<event>
 6    1  0.5026615E-004  0.7857504E+03  0.7818608E-02  0.9580875E-01
          2   -1    0    0  501    0  0.00000000000E+00  0.00000000000E+00  0.58701824208E+03  0.58701824208E+03  0.00000000000E+00 0.  1.
         -2   -1    0    0    0  501 -0.00000000000E+00 -0.00000000000E+00 -0.26294057159E+03  0.26294057159E+03  0.00000000000E+00 0. -1.
         23    2    1    2    0    0  0.36729196613E+03 -0.10329412686E+03  0.23840958561E+03  0.45891906404E+03  0.90523542791E+02 0.  0.
         11    1    3    3    0    0  0.13951508024E+03 -0.84198592678E+02  0.86749849137E+02  0.18460605881E+03  0.00000000000E+00 0. -1.
        -11    1    3    3    0    0  0.22777688589E+03 -0.19095534186E+02  0.15165973647E+03  0.27431300523E+03  0.00000000000E+00 0.  1.
         22    1    1    2    0    0 -0.36729196613E+03  0.10329412686E+03  0.85668084873E+02  0.39103974963E+03  0.00000000000E+00 0. -1.
<mgrwt>
<rscale>  0 0.78575037E+03</rscale>
<asrwt>0</asrwt>
<pdfrwt beam="1">  1        2 0.90310498E-01 0.78575037E+03</pdfrwt>
<pdfrwt beam="2">  1       -2 0.40452396E-01 0.78575037E+03</pdfrwt>
<totfact> 0.29649391E+02</totfact>
</mgrwt>
</event>
<event>
 6    1  0.5026615E-004  0.1045886E+04  0.7818608E-02  0.9259602E-01
         -2   -1    0    0    0  501 -0.00000000000E+00  0.00000000000E+00  0.13063423982E+03  0.13063423982E+03  0.00000000000E+00 0. -1.
          2   -1    0    0  501    0  0.00000000000E+00 -0.00000000000E+00 -0.20933975138E+04  0.20933975138E+04  0.00000000000E+00 0.  1.
         23    2    1    2    0    0 -0.34452471395E+03 -0.16201487196E+03 -0.23894996997E+03  0.45867671728E+03  0.91329872235E+02 0.  0.
         13    1    3    3    0    0 -0.13875022823E+03 -0.37340193748E+02 -0.47928172305E+02  0.15146955339E+03  0.00000000000E+00 0. -1.
        -13    1    3    3    0    0 -0.20577448572E+03 -0.12467467822E+03 -0.19102179766E+03  0.30720716389E+03  0.00000000000E+00 0.  1.
         22    1    1    2    0    0  0.34452471395E+03  0.16201487196E+03 -0.17238133040E+04  0.17653550364E+04  0.00000000000E+00 0.  1.
<mgrwt>
<rscale>  0 0.10458860E+04</rscale>
<asrwt>0</asrwt>
<pdfrwt beam="1">  1        2 0.32206117E+00 0.10458860E+04</pdfrwt>
<pdfrwt beam="2">  1       -2 0.20097574E-01 0.10458860E+04</pdfrwt>
<totfact> 0.12558012E+02</totfact>
</mgrwt>
</event>
<event>
 6    1  0.5026615E-004  0.1205296E+04  0.7818608E-02  0.9108234E-01
          2   -1    0    0  501    0  0.00000000000E+00  0.00000000000E+00  0.12751435479E+04  0.12751435479E+04  0.00000000000E+00 0.  1.
         -2   -1    0    0    0  501 -0.00000000000E+00 -0.00000000000E+00 -0.28481850595E+03  0.28481850595E+03  0.00000000000E+00 0. -1.
         23    2    1    2    0    0  0.34246346146E+03 -0.80806727773E+02 -0.13009098058E+03  0.38559285584E+03  0.89147280143E+02 0.  0.
         11    1    3    3    0    0  0.13487316017E+03 -0.19286209363E+02 -0.67522889115E+01  0.13641231840E+03  0.00000000000E+00 0.  1.
        -11    1    3    3    0    0  0.20759030129E+03 -0.61520518411E+02 -0.12333869167E+03  0.24918053744E+03  0.00000000000E+00 0. -1.
         22    1    1    2    0    0 -0.34246346146E+03  0.80806727773E+02  0.11204160225E+04  0.11743691980E+04  0.00000000000E+00 0.  1.
<mgrwt>
<rscale>  0 0.12052958E+04</rscale>
<asrwt>0</asrwt>
<pdfrwt beam="1">  1        2 0.19617593E+00 0.12052958E+04</pdfrwt>
<pdfrwt beam="2">  1       -2 0.43818233E-01 0.12052958E+04</pdfrwt>
<totfact> 0.83239718E+01</totfact>
</mgrwt>
</event>
<event>
 6    1  0.5026615E-004  0.1263770E+04  0.7818608E-02  0.9058800E-01
         -2   -1    0    0    0  501 -0.00000000000E+00  0.00000000000E+00  0.20545338967E+03  0.20545338967E+03  0.00000000000E+00 0. -1.
          2   -1    0    0  501    0  0.00000000000E+00 -0.00000000000E+00 -0.19434034710E+04  0.19434034710E+04  0.00000000000E+00 0.  1.
         23    2    1    2    0    0  0.25968042009E+03 -0.40761439762E+03 -0.19191990763E+03  0.52904430493E+03  0.97320131087E+02 0.  0.
         11    1    3    3    0    0  0.13683933858E+03 -0.17209468629E+03 -0.13297910291E+03  0.25695335655E+03  0.00000000000E+00 0. -1.
        -11    1    3    3    0    0  0.12284108151E+03 -0.23551971133E+03 -0.58940804720E+02  0.27209094838E+03  0.00000000000E+00 0.  1.
         22    1    1    2    0    0 -0.25968042009E+03  0.40761439762E+03 -0.15460301737E+04  0.16198125558E+04  0.00000000000E+00 0.  1.
<mgrwt>
<rscale>  0 0.12637703E+04</rscale>
<asrwt>0</asrwt>
<pdfrwt beam="1">  1        2 0.29898515E+00 0.12637703E+04</pdfrwt>
<pdfrwt beam="2">  1       -2 0.31608213E-01 0.12637703E+04</pdfrwt>
<totfact> 0.65672373E+01</totfact>
</mgrwt>
</event>
<event>
 6    1  0.5026615E-004  0.1713215E+04  0.7818608E-02  0.8753863E-01
          2   -1    0    0  501    0  0.00000000000E+00  0.00000000000E+00  0.11821167112E+04  0.11821167112E+04  0.00000000000E+00 0.  1.
         -2   -1    0    0    0  501 -0.00000000000E+00 -0.00000000000E+00 -0.62073108677E+03  0.62073108677E+03  0.00000000000E+00 0. -1.
         23    2    1    2    0    0 -0.75943780990E+03  0.39021227327E+03  0.25733218077E+03  0.89650354662E+03  0.92126828543E+02 0.  0.
         13    1    3    3    0    0 -0.31824054115E+03  0.21267857978E+03  0.12895779943E+03  0.40390510565E+03  0.00000000000E+00 0. -1.
        -13    1    3    3    0    0 -0.44119726874E+03  0.17753369348E+03  0.12837438134E+03  0.49259844098E+03  0.00000000000E+00 0.  1.
         22    1    1    2    0    0  0.75943780990E+03 -0.39021227327E+03  0.30405344362E+03  0.90634425131E+03  0.00000000000E+00 0. -1.
<mgrwt>
<rscale>  0 0.17132152E+04</rscale>
<asrwt>0</asrwt>
<pdfrwt beam="1">  1        2 0.18186411E+00 0.17132152E+04</pdfrwt>
<pdfrwt beam="2">  1       -2 0.95497090E-01 0.17132152E+04</pdfrwt>
<totfact> 0.16994281E+01</totfact>
</mgrwt>
</event>
<event>
 6    1  0.5026615E-004  0.1208517E+04  0.7818608E-02  0.9105435E-01
          2   -1    0    0  501    0  0.00000000000E+00  0.00000000000E+00  0.77475228596E+03  0.77475228596E+03  0.00000000000E+00 0.  1.
         -2   -1    0    0    0  501 -0.00000000000E+00 -0.00000000000E+00 -0.47128362882E+03  0.47128362882E+03  0.00000000000E+00 0. -1.
         23    2    1    2    0    0  0.61690763467E+02  0.19053515154E+03 -0.43091714955E+03  0.48483166667E+03  0.96243238480E+02 0.  0.
         11    1    3    3    0    0  0.64221588309E+02  0.17916177490E+03 -0.31287556330E+03  0.36621642795E+03  0.00000000000E+00 0. -1.
        -11    1    3    3    0    0 -0.25308248426E+01  0.11373376642E+02 -0.11804158625E+03  0.11861523872E+03  0.00000000000E+00 0.  1.
         22    1    1    2    0    0 -0.61690763467E+02 -0.19053515154E+03  0.73438580669E+03  0.76120424811E+03  0.00000000000E+00 0.  1.
<mgrwt>
<rscale>  0 0.12085166E+04</rscale>
<asrwt>0</asrwt>
<pdfrwt beam="1">  1        2 0.11919266E+00 0.12085166E+04</pdfrwt>
<pdfrwt beam="2">  1       -2 0.72505174E-01 0.12085166E+04</pdfrwt>
<totfact> 0.61024060E+01</totfact>
</mgrwt>
</event>
<event>
 6    1  0.5026615E-004  0.3722770E+04  0.7818608E-02  0.8062934E-01
         -2   -1    0    0    0  501 -0.00000000000E+00  0.00000000000E+00  0.14954406923E+04  0.14954406923E+04  0.00000000000E+00 0. -1.
          2   -1    0    0  501    0  0.00000000000E+00 -0.00000000000E+00 -0.23168784315E+04  0.23168784315E+04  0.00000000000E+00 0.  1.
         23    2    1    2    0    0  0.49967080574E+02 -0.12488673475E+04 -0.18219979187E+04  0.22112922553E+04  0.89278562333E+02 0.  0.
         13    1    3    3    0    0  0.73191818431E+02 -0.10696238969E+04 -0.15722822539E+04  0.19030301650E+04  0.00000000000E+00 0.  1.
        -13    1    3    3    0    0 -0.23224737857E+02 -0.17924345064E+03 -0.24971566484E+03  0.30826209029E+03  0.00000000000E+00 0. -1.
         22    1    1    2    0    0 -0.49967080574E+02  0.12488673475E+04  0.10005601795E+04  0.16010268685E+04  0.00000000000E+00 0. -1.
<mgrwt>
<rscale>  0 0.37227701E+04</rscale>
<asrwt>0</asrwt>
<pdfrwt beam="1">  1        2 0.35644283E+00 0.37227701E+04</pdfrwt>
<pdfrwt beam="2">  1       -2 0.23006780E+00 0.37227701E+04</pdfrwt>
<totfact> 0.30564726E-01</totfact>
</mgrwt>
</event>
<event>
 6    1  0.5026615E-004  0.4233060E+04  0.7818608E-02  0.7959113E-01
         -2   -1    0    0    0  501 -0.00000000000E+00  0.00000000000E+00  0.14658636632E+04  0.14658636632E+04  0.00000000000E+00 0. -1.
          2   -1    0    0  501    0  0.00000000000E+00 -0.00000000000E+00 -0.30560130654E+04  0.30560130654E+04  0.00000000000E+00 0.  1.
         23    2    1    2    0    0  0.13455090267E+04 -0.80665336126E+03 -0.23116550476E+04  0.27951299079E+04  0.88982900631E+02 0.  0.
         11    1    3    3    0    0  0.40852089625E+03 -0.26419548125E+03 -0.65082390032E+03  0.81256404314E+03  0.00000000000E+00 0.  1.
        -11    1    3    3    0    0  0.93698813048E+03 -0.54245788002E+03 -0.16608311473E+04  0.19825658648E+04  0.00000000000E+00 0. -1.
         22    1    1    2    0    0 -0.13455090267E+04  0.80665336126E+03  0.72150564550E+03  0.17267468207E+04  0.00000000000E+00 0. -1.
<mgrwt>
<rscale>  0 0.42330597E+04</rscale>
<asrwt>0</asrwt>
<pdfrwt beam="1">  1        2 0.47015585E+00 0.42330597E+04</pdfrwt>
<pdfrwt beam="2">  1       -2 0.22551749E+00 0.42330597E+04</pdfrwt>
<totfact> 0.11327882E-01</totfact>
</mgrwt>
</event>
<event>
 6    1  0.5026615E-004  0.2641023E+04  0.7818608E-02  0.8354399E-01
         -1   -1    0    0    0  501 -0.00000000000E+00  0.00000000000E+00  0.12806488013E+04  0.12806488013E+04  0.00000000000E+00 0. -1.
          1   -1    0    0  501    0  0.00000000000E+00 -0.00000000000E+00 -0.13616148986E+04  0.13616148986E+04  0.00000000000E+00 0.  1.
         23    2    1    2    0    0  0.33570987512E+03 -0.29217980333E+02 -0.13164446039E+04  0.13616537082E+04  0.86715715089E+02 0.  0.
         13    1    3    3    0    0  0.71930032696E+02  0.27855171731E+02 -0.25298098557E+03  0.26447914711E+03  0.00000000000E+00 0.  1.
        -13    1    3    3    0    0  0.26377984243E+03 -0.57073152064E+02 -0.10634636183E+04  0.10971745610E+04  0.00000000000E+00 0. -1.
         22    1    1    2    0    0 -0.33570987512E+03  0.29217980333E+02  0.12354785066E+04  0.12806099917E+04  0.00000000000E+00 0. -1.
<mgrwt>
<rscale>  0 0.26410229E+04</rscale>
<asrwt>0</asrwt>
<pdfrwt beam="1">  1        1 0.20947921E+00 0.26410229E+04</pdfrwt>
<pdfrwt beam="2">  1       -1 0.19702289E+00 0.26410229E+04</pdfrwt>
<totfact> 0.11326177E+00</totfact>
</mgrwt>
</event>
<event>
 6    1  0.5026615E-004  0.4775103E+04  0.7818608E-02  0.7864168E-01
         -2   -1    0    0    0  501 -0.00000000000E+00  0.00000000000E+00  0.25723807252E+04  0.25723807252E+04  0.00000000000E+00 0. -1.
          2   -1    0    0  501    0  0.00000000000E+00 -0.00000000000E+00 -0.22160029181E+04  0.22160029181E+04  0.00000000000E+00 0.  1.
         23    2    1    2    0    0 -0.20971870372E+04  0.73914386286E+03 -0.69118465897E+03  0.23303530821E+04  0.91006240572E+02 0.  0.
         11    1    3    3    0    0 -0.20289498102E+04  0.69948591288E+03 -0.67498939319E+03  0.22497841131E+04  0.00000000000E+00 0. -1.
        -11    1    3    3    0    0 -0.68237226999E+02  0.39657949978E+02 -0.16195265784E+02  0.80568969081E+02  0.00000000000E+00 0.  1.
         22    1    1    2    0    0  0.20971870372E+04 -0.73914386286E+03  0.10475624661E+04  0.24580305611E+04  0.00000000000E+00 0. -1.
<mgrwt>
<rscale>  0 0.47751034E+04</rscale>
<asrwt>0</asrwt>
<pdfrwt beam="1">  1        2 0.34092353E+00 0.47751034E+04</pdfrwt>
<pdfrwt beam="2">  1       -2 0.39575088E+00 0.47751034E+04</pdfrwt>
<totfact> 0.29671050E-02</totfact>
</mgrwt>
</event>
<event>
 6    1  0.5026615E-004  0.3370518E+04  0.7818608E-02  0.8145180E-01
          2   -1    0    0  501    0  0.00000000000E+00  0.00000000000E+00  0.14401848768E+04  0.14401848768E+04  0.00000000000E+00 0.  1.
         -2   -1    0    0    0  501 -0.00000000000E+00 -0.00000000000E+00 -0.19720375712E+04  0.19720375712E+04  0.00000000000E+00 0. -1.
         23    2    1    2    0    0 -0.73119321085E+03  0.62285671041E+03  0.11345526031E+04  0.14888138568E+04  0.82238055144E+02 0.  0.
         13    1    3    3    0    0 -0.39459607777E+03  0.33234931421E+03  0.67224267183E+03  0.84739149221E+03  0.00000000000E+00 0.  1.
        -13    1    3    3    0    0 -0.33659713308E+03  0.29050739620E+03  0.46230993126E+03  0.64142236458E+03  0.00000000000E+00 0. -1.
         22    1    1    2    0    0  0.73119321085E+03 -0.62285671041E+03 -0.16664052975E+04  0.19234085913E+04  0.00000000000E+00 0. -1.
<mgrwt>
<rscale>  0 0.33705185E+04</rscale>
<asrwt>0</asrwt>
<pdfrwt beam="1">  1        2 0.22156690E+00 0.33705185E+04</pdfrwt>
<pdfrwt beam="2">  1       -2 0.30339040E+00 0.33705185E+04</pdfrwt>
<totfact> 0.34530698E-01</totfact>
</mgrwt>
</event>
<event>
 6    1  0.5026615E-004  0.8753682E+03  0.7818608E-02  0.9456907E-01
          2   -1    0    0  501    0  0.00000000000E+00  0.00000000000E+00  0.33716396163E+04  0.33716396163E+04  0.00000000000E+00 0.  1.
         -2   -1    0    0    0  501 -0.00000000000E+00 -0.00000000000E+00 -0.56817271790E+02  0.56817271790E+02  0.00000000000E+00 0. -1.
         23    2    1    2    0    0  0.21356235555E+03  0.34522889318E+03  0.22683882288E+04  0.23060415341E+04  0.86316463893E+02 0.  0.
         11    1    3    3    0    0  0.15673337121E+03  0.30286325145E+03  0.17596960620E+04  0.17924345816E+04  0.00000000000E+00 0. -1.
        -11    1    3    3    0    0  0.56828984349E+02  0.42365641729E+02  0.50869216680E+03  0.51360695247E+03  0.00000000000E+00 0.  1.
         22    1    1    2    0    0 -0.21356235555E+03 -0.34522889318E+03  0.10464341157E+04  0.11224153540E+04  0.00000000000E+00 0. -1.
<mgrwt>
<rscale>  0 0.87536818E+03</rscale>
<asrwt>0</asrwt>
<pdfrwt beam="1">  1        2 0.51871363E+00 0.87536818E+03</pdfrwt>
<pdfrwt beam="2">  1       -2 0.87411214E-02 0.87536818E+03</pdfrwt>
<totfact> 0.89600716E+01</totfact>
</mgrwt>
</event>
<event>
 6    1  0.5026615E-004  0.4169055E+04  0.7818608E-02  0.7971285E-01
         -4   -1    0    0    0  501 -0.00000000000E+00  0.00000000000E+00  0.25739773652E+04  0.25739773652E+04  0.00000000000E+00 0. -1.
          4   -1    0    0  501    0  0.00000000000E+00 -0.00000000000E+00 -0.16881482875E+04  0.16881482875E+04  0.00000000000E+00 0.  1.
         23    2    1    2    0    0 -0.64237572393E+03  0.11019114956E+04  0.21273889227E+04  0.24821463372E+04  0.91713118652E+02 0.  0.
         11    1    3    3    0    0 -0.23190387541E+03  0.43386705385E+03  0.74207429162E+03  0.89033380376E+03  0.00000000000E+00 0. -1.
        -11    1    3    3    0    0 -0.41047184852E+03  0.66804444172E+03  0.13853146311E+04  0.15918125334E+04  0.00000000000E+00 0.  1.
         22    1    1    2    0    0  0.64237572393E+03 -0.11019114956E+04 -0.12415598451E+04  0.17799793155E+04  0.00000000000E+00 0.  1.
<mgrwt>
<rscale>  0 0.41690553E+04</rscale>
<asrwt>0</asrwt>
<pdfrwt beam="1">  1        4 0.25971512E+00 0.41690553E+04</pdfrwt>
<pdfrwt beam="2">  1       -4 0.39599652E+00 0.41690553E+04</pdfrwt>
<totfact> 0.60635450E-04</totfact>
</mgrwt>
</event>
<event>
 6    1  0.5026615E-004  0.3243930E+04  0.7818608E-02  0.8177311E-01
         -2   -1    0    0    0  501 -0.00000000000E+00  0.00000000000E+00  0.80896815865E+03  0.80896815865E+03  0.00000000000E+00 0. -1.
          2   -1    0    0  501    0  0.00000000000E+00 -0.00000000000E+00 -0.32520076417E+04  0.32520076417E+04  0.00000000000E+00 0.  1.
         23    2    1    2    0    0  0.81334009188E+03 -0.13458346451E+04 -0.17135294958E+04  0.23274886160E+04  0.90702411479E+02 0.  0.
         11    1    3    3    0    0  0.34385977194E+03 -0.56191379441E+03 -0.78421148445E+03  0.10241944676E+04  0.00000000000E+00 0. -1.
        -11    1    3    3    0    0  0.46948031994E+03 -0.78392085065E+03 -0.92931801140E+03  0.13032941484E+04  0.00000000000E+00 0.  1.
         22    1    1    2    0    0 -0.81334009188E+03  0.13458346451E+04 -0.72950998719E+03  0.17334871844E+04  0.00000000000E+00 0.  1.
<mgrwt>
<rscale>  0 0.32439301E+04</rscale>
<asrwt>0</asrwt>
<pdfrwt beam="1">  1        2 0.50030887E+00 0.32439301E+04</pdfrwt>
<pdfrwt beam="2">  1       -2 0.12445664E+00 0.32439301E+04</pdfrwt>
<totfact> 0.48701582E-01</totfact>
</mgrwt>
</event>
<event>
 6    1  0.5026615E-004  0.9912165E+03  0.7818608E-02  0.9318231E-01
          2   -1    0    0  501    0  0.00000000000E+00  0.00000000000E+00  0.23955071325E+04  0.23955071325E+04  0.00000000000E+00 0.  1.
         -2   -1    0    0    0  501 -0.00000000000E+00 -0.00000000000E+00 -0.10253675932E+03  0.10253675932E+03  0.00000000000E+00 0. -1.
         23    2    1    2    0    0  0.11761511057E+03 -0.22228933599E+03  0.22198266765E+04  0.22361357715E+04  0.97091976763E+02 0.  0.
         13    1    3    3    0    0  0.76227827201E+02 -0.12695454127E+03  0.16714835500E+04  0.16780302128E+04  0.00000000000E+00 0. -1.
        -13    1    3    3    0    0  0.41387283369E+02 -0.95334794717E+02  0.54834312649E+03  0.55810555872E+03  0.00000000000E+00 0.  1.
         22    1    1    2    0    0 -0.11761511057E+03  0.22228933599E+03  0.73143696746E+02  0.26190812034E+03  0.00000000000E+00 0. -1.
<mgrwt>
<rscale>  0 0.99121650E+03</rscale>
<asrwt>0</asrwt>
<pdfrwt beam="1">  1        2 0.36853952E+00 0.99121650E+03</pdfrwt>
<pdfrwt beam="2">  1       -2 0.15774888E-01 0.99121650E+03</pdfrwt>
<totfact> 0.13012813E+02</totfact>
</mgrwt>
</event>
<event>
 6    1  0.5026615E-004  0.4071860E+04  0.7818608E-02  0.7990205E-01
         -2   -1    0    0    0  501 -0.00000000000E+00  0.00000000000E+00  0.27138114748E+04  0.27138114748E+04  0.00000000000E+00 0. -1.
          2   -1    0    0  501    0  0.00000000000E+00 -0.00000000000E+00 -0.15273758777E+04  0.15273758777E+04  0.00000000000E+00 0.  1.
         23    2    1    2    0    0 -0.71281274585E+03  0.18371235852E+04  0.64657714902E+02  0.19736973977E+04  0.90419686137E+02 0.  0.
         13    1    3    3    0    0 -0.64573288929E+03  0.16136682059E+04  0.34181292762E+02  0.17384085837E+04  0.00000000000E+00 0. -1.
        -13    1    3    3    0    0 -0.67079856554E+02  0.22345537936E+03  0.30476422140E+02  0.23528881407E+03  0.00000000000E+00 0.  1.
         22    1    1    2    0    0  0.71281274585E+03 -0.18371235852E+04  0.11217778822E+04  0.22674899548E+04  0.00000000000E+00 0. -1.
<mgrwt>
<rscale>  0 0.40718596E+04</rscale>
<asrwt>0</asrwt>
<pdfrwt beam="1">  1        2 0.23498090E+00 0.40718596E+04</pdfrwt>
<pdfrwt beam="2">  1       -2 0.41750946E+00 0.40718596E+04</pdfrwt>
<totfact> 0.54696595E-02</totfact>
</mgrwt>
</event>
<event>
 6    1  0.5026615E-004  0.1361941E+04  0.7818608E-02  0.8981838E-01
          2   -1    0    0  501    0  0.00000000000E+00  0.00000000000E+00  0.16769168121E+04  0.16769168121E+04  0.00000000000E+00 0.  1.
         -2   -1    0    0    0  501 -0.00000000000E+00 -0.00000000000E+00 -0.27653160796E+03  0.27653160796E+03  0.00000000000E+00 0. -1.
         23    2    1    2    0    0  0.72829051668E+02 -0.55719520383E+03  0.15739672228E+03  0.58934031144E+03  0.82326839889E+02 0.  0.
         11    1    3    3    0    0 -0.97345073573E+01 -0.10993969705E+03  0.54233640845E+02  0.12297473489E+03  0.00000000000E+00 0. -1.
        -11    1    3    3    0    0  0.82563559026E+02 -0.44725550678E+03  0.10316308143E+03  0.46636557655E+03  0.00000000000E+00 0.  1.
         22    1    1    2    0    0 -0.72829051668E+02  0.55719520383E+03  0.12429884818E+04  0.13641081086E+04  0.00000000000E+00 0.  1.
<mgrwt>
<rscale>  0 0.13619405E+04</rscale>
<asrwt>0</asrwt>
<pdfrwt beam="1">  1        2 0.25798719E+00 0.13619405E+04</pdfrwt>
<pdfrwt beam="2">  1       -2 0.42543326E-01 0.13619405E+04</pdfrwt>
<totfact> 0.51626042E+01</totfact>
</mgrwt>
</event>
<event>
 6    1  0.5026615E-004  0.3205122E+04  0.7818608E-02  0.8187466E-01
          2   -1    0    0  501    0  0.00000000000E+00  0.00000000000E+00  0.17328030565E+04  0.17328030565E+04  0.00000000000E+00 0.  1.
         -2   -1    0    0    0  501 -0.00000000000E+00 -0.00000000000E+00 -0.14821086325E+04  0.14821086325E+04  0.00000000000E+00 0. -1.
         23    2    1    2    0    0  0.15660192965E+04 -0.33188895496E+03  0.15252116539E+03  0.16111022539E+04  0.99101217342E+02 0.  0.
         11    1    3    3    0    0  0.11780950800E+04 -0.24317378245E+03  0.71891374615E+02  0.12050767095E+04  0.00000000000E+00 0. -1.
        -11    1    3    3    0    0  0.38792421649E+03 -0.88715172515E+02  0.80629790776E+02  0.40602554444E+03  0.00000000000E+00 0.  1.
         22    1    1    2    0    0 -0.15660192965E+04  0.33188895496E+03  0.98173258650E+02  0.16038094351E+04  0.00000000000E+00 0.  1.
<mgrwt>
<rscale>  0 0.32051224E+04</rscale>
<asrwt>0</asrwt>
<pdfrwt beam="1">  1        2 0.26658509E+00 0.32051224E+04</pdfrwt>
<pdfrwt beam="2">  1       -2 0.22801671E+00 0.32051224E+04</pdfrwt>
<totfact> 0.69641165E-01</totfact>
</mgrwt>
</event>
<event>
 6    1  0.5026615E-004  0.1387796E+04  0.7818608E-02  0.8962700E-01
         -2   -1    0    0    0  501 -0.00000000000E+00  0.00000000000E+00  0.21918205822E+03  0.21918205822E+03  0.00000000000E+00 0. -1.
          2   -1    0    0  501    0  0.00000000000E+00 -0.00000000000E+00 -0.21967773904E+04  0.21967773904E+04  0.00000000000E+00 0.  1.
         23    2    1    2    0    0 -0.22444365840E+03 -0.61529946609E+03 -0.13754992823E+04  0.15263033116E+04  0.92925426336E+02 0.  0.
         13    1    3    3    0    0 -0.12830671048E+03 -0.42355615110E+03 -0.84023652080E+03  0.94966301180E+03  0.00000000000E+00 0. -1.
        -13    1    3    3    0    0 -0.96136947919E+02 -0.19174331499E+03 -0.53526276145E+03  0.57664029983E+03  0.00000000000E+00 0.  1.
         22    1    1    2    0    0  0.22444365840E+03  0.61529946609E+03 -0.60209604997E+03  0.88965613703E+03  0.00000000000E+00 0. -1.
<mgrwt>
<rscale>  0 0.13877956E+04</rscale>
<asrwt>0</asrwt>
<pdfrwt beam="1">  1        2 0.33796575E+00 0.13877956E+04</pdfrwt>
<pdfrwt beam="2">  1       -2 0.33720317E-01 0.13877956E+04</pdfrwt>
<totfact> 0.41617105E+01</totfact>
</mgrwt>
</event>
<event>
 6    1  0.5026615E-004  0.1628843E+04  0.7818608E-02  0.8803022E-01
          2   -1    0    0  501    0  0.00000000000E+00  0.00000000000E+00  0.77627804203E+03  0.77627804203E+03  0.00000000000E+00 0.  1.
         -2   -1    0    0    0  501 -0.00000000000E+00 -0.00000000000E+00 -0.85443948770E+03  0.85443948770E+03  0.00000000000E+00 0. -1.
         23    2    1    2    0    0 -0.31651931158E+03  0.28621718234E+03  0.65239104143E+03  0.78466097933E+03  0.89297432641E+02 0.  0.
         13    1    3    3    0    0 -0.94295847882E+02  0.10688711627E+03  0.15094610799E+03  0.20760850192E+03  0.00000000000E+00 0. -1.
        -13    1    3    3    0    0 -0.22222346370E+03  0.17933006608E+03  0.50144493344E+03  0.57705247741E+03  0.00000000000E+00 0.  1.
         22    1    1    2    0    0  0.31651931158E+03 -0.28621718234E+03 -0.73055248709E+03  0.84605655040E+03  0.00000000000E+00 0. -1.
<mgrwt>
<rscale>  0 0.16288433E+04</rscale>
<asrwt>0</asrwt>
<pdfrwt beam="1">  1        2 0.11942739E+00 0.16288433E+04</pdfrwt>
<pdfrwt beam="2">  1       -2 0.13145223E+00 0.16288433E+04</pdfrwt>
<totfact> 0.14479021E+01</totfact>
</mgrwt>
</event>
<event>
 6    1  0.5026615E-004  0.2475563E+04  0.7818608E-02  0.8411743E-01
          2   -1    0    0  501    0  0.00000000000E+00  0.00000000000E+00  0.18483085461E+04  0.18483085461E+04  0.00000000000E+00 0.  1.
         -2   -1    0    0    0  501 -0.00000000000E+00 -0.00000000000E+00 -0.82892152901E+03  0.82892152901E+03  0.00000000000E+00 0. -1.
         23    2    1    2    0    0  0.44881296200E+03 -0.53377313811E+03  0.16140980727E+04  0.17606996187E+04  0.91671812548E+02 0.  0.
         11    1    3    3    0    0  0.39372868166E+03 -0.48596237814E+03  0.15013251045E+04  0.16263944101E+04  0.00000000000E+00 0. -1.
        -11    1    3    3    0    0  0.55084280333E+02 -0.47810759976E+02  0.11277296817E+03  0.13430520860E+03  0.00000000000E+00 0.  1.
         22    1    1    2    0    0 -0.44881296200E+03  0.53377313811E+03 -0.59471105562E+03  0.91653045640E+03  0.00000000000E+00 0. -1.
<mgrwt>
<rscale>  0 0.24755628E+04</rscale>
<asrwt>0</asrwt>
<pdfrwt beam="1">  1        2 0.28435516E+00 0.24755628E+04</pdfrwt>
<pdfrwt beam="2">  1       -2 0.12752639E+00 0.24755628E+04</pdfrwt>
<totfact> 0.33055194E+00</totfact>
</mgrwt>
</event>
<event>
 6    1  0.5026615E-004  0.4434483E+04  0.7818608E-02  0.7922208E-01
          2   -1    0    0  501    0  0.00000000000E+00  0.00000000000E+00  0.16148505137E+04  0.16148505137E+04  0.00000000000E+00 0.  1.
         -2   -1    0    0    0  501 -0.00000000000E+00 -0.00000000000E+00 -0.30443442253E+04  0.30443442253E+04  0.00000000000E+00 0. -1.
         23    2    1    2    0    0  0.18862586382E+04  0.41890084003E+03 -0.18556634214E+04  0.26805411094E+04  0.91456773278E+02 0.  0.
         13    1    3    3    0    0  0.17823872486E+04  0.38874255078E+03 -0.17777664401E+04  0.25472492203E+04  0.00000000000E+00 0. -1.
        -13    1    3    3    0    0  0.10387138966E+03  0.30158289245E+02 -0.77896981306E+02  0.13329188909E+03  0.00000000000E+00 0.  1.
         22    1    1    2    0    0 -0.18862586382E+04 -0.41890084003E+03  0.42616970985E+03  0.19786536295E+04  0.00000000000E+00 0.  1.
<mgrwt>
<rscale>  0 0.44344834E+04</rscale>
<asrwt>0</asrwt>
<pdfrwt beam="1">  1        2 0.24843854E+00 0.44344834E+04</pdfrwt>
<pdfrwt beam="2">  1       -2 0.46836064E+00 0.44344834E+04</pdfrwt>
<totfact> 0.21943461E-02</totfact>
</mgrwt>
</event>
<event>
 6    1  0.5026615E-004  0.2806181E+04  0.7818608E-02  0.8301352E-01
         -2   -1    0    0    0  501 -0.00000000000E+00  0.00000000000E+00  0.26006237969E+04  0.26006237969E+04  0.00000000000E+00 0. -1.
          2   -1    0    0  501    0  0.00000000000E+00 -0.00000000000E+00 -0.75699624538E+03  0.75699624538E+03  0.00000000000E+00 0.  1.
         23    2    1    2    0    0  0.80668346367E+03  0.58436891170E+03 -0.25700616700E+03  0.10327787026E+04  0.91402642640E+02 0.  0.
         11    1    3    3    0    0  0.69109725415E+03  0.45841163941E+03 -0.21579574114E+03  0.85692732932E+03  0.00000000000E+00 0. -1.
        -11    1    3    3    0    0  0.11558620952E+03  0.12595727229E+03 -0.41210425861E+02  0.17585137325E+03  0.00000000000E+00 0.  1.
         22    1    1    2    0    0 -0.80668346367E+03 -0.58436891170E+03  0.21006337186E+04  0.23248413398E+04  0.00000000000E+00 0. -1.
<mgrwt>
<rscale>  0 0.28061806E+04</rscale>
<asrwt>0</asrwt>
<pdfrwt beam="1">  1        2 0.11646096E+00 0.28061806E+04</pdfrwt>
<pdfrwt beam="2">  1       -2 0.40009596E+00 0.28061806E+04</pdfrwt>
<totfact> 0.23871629E-01</totfact>
</mgrwt>
</event>
<event>
 6    1  0.5026615E-004  0.1437454E+04  0.7818608E-02  0.8927145E-01
          2   -1    0    0  501    0  0.00000000000E+00  0.00000000000E+00  0.13129178672E+04  0.13129178672E+04  0.00000000000E+00 0.  1.
         -2   -1    0    0    0  501 -0.00000000000E+00 -0.00000000000E+00 -0.39345071840E+03  0.39345071840E+03  0.00000000000E+00 0. -1.
         23    2    1    2    0    0 -0.22654946167E+03  0.72089773227E+02  0.12630486566E+04  0.12885530205E+04  0.92495317897E+02 0.  0.
         13    1    3    3    0    0 -0.18270917078E+03  0.94044126975E+02  0.98369076819E+03  0.10049251048E+04  0.00000000000E+00 0. -1.
        -13    1    3    3    0    0 -0.43840290892E+02 -0.21954353748E+02  0.27935788839E+03  0.28362791569E+03  0.00000000000E+00 0.  1.
         22    1    1    2    0    0  0.22654946167E+03 -0.72089773227E+02 -0.34358150774E+03  0.41781556511E+03  0.00000000000E+00 0. -1.
<mgrwt>
<rscale>  0 0.14374540E+04</rscale>
<asrwt>0</asrwt>
<pdfrwt beam="1">  1        2 0.20198736E+00 0.14374540E+04</pdfrwt>
<pdfrwt beam="2">  1       -2 0.60530880E-01 0.14374540E+04</pdfrwt>
<totfact> 0.40086986E+01</totfact>
</mgrwt>
</event>
<event>
 6    1  0.5026615E-004  0.4548083E+04  0.7818608E-02  0.7902272E-01
         -2   -1    0    0    0  501 -0.00000000000E+00  0.00000000000E+00  0.16210587852E+04  0.16210587852E+04  0.00000000000E+00 0. -1.
          2   -1    0    0  501    0  0.00000000000E+00 -0.00000000000E+00 -0.31900544385E+04  0.31900544385E+04  0.00000000000E+00 0.  1.
         23    2    1    2    0    0 -0.96312465983E+03 -0.14064458845E+04 -0.23755692549E+04  0.29253083263E+04  0.91653600165E+02 0.  0.
         13    1    3    3    0    0 -0.61250137380E+03 -0.96705417827E+03 -0.16155055120E+04  0.19799519631E+04  0.00000000000E+00 0. -1.
        -13    1    3    3    0    0 -0.35062328603E+03 -0.43939170624E+03 -0.76006374288E+03  0.94535636321E+03  0.00000000000E+00 0.  1.
         22    1    1    2    0    0  0.96312465983E+03  0.14064458845E+04  0.80657360164E+03  0.18858048975E+04  0.00000000000E+00 0. -1.
<mgrwt>
<rscale>  0 0.45480835E+04</rscale>
<asrwt>0</asrwt>
<pdfrwt beam="1">  1        2 0.49077760E+00 0.45480835E+04</pdfrwt>
<pdfrwt beam="2">  1       -2 0.24939366E+00 0.45480835E+04</pdfrwt>
<totfact> 0.64333687E-02</totfact>
</mgrwt>
</event>
<event>
 6    1  0.5026615E-004  0.2069159E+04  0.7818608E-02  0.8574952E-01
          2   -1    0    0  501    0  0.00000000000E+00  0.00000000000E+00  0.18619749333E+04  0.18619749333E+04  0.00000000000E+00 0.  1.
         -2   -1    0    0    0  501 -0.00000000000E+00 -0.00000000000E+00 -0.57484901660E+03  0.57484901660E+03  0.00000000000E+00 0. -1.
         23    2    1    2    0    0 -0.22316774926E+03  0.56798143439E+03 -0.33616753917E+03  0.70261277534E+03  0.90825896951E+02 0.  0.
         11    1    3    3    0    0 -0.19063727414E+03  0.42224562788E+03 -0.21710294213E+03  0.51163231724E+03  0.00000000000E+00 0. -1.
        -11    1    3    3    0    0 -0.32530475123E+02  0.14573580651E+03 -0.11906459704E+03  0.19098045810E+03  0.00000000000E+00 0.  1.
         22    1    1    2    0    0  0.22316774926E+03 -0.56798143439E+03  0.16232934558E+04  0.17342111745E+04  0.00000000000E+00 0.  1.
<mgrwt>
<rscale>  0 0.20691587E+04</rscale>
<asrwt>0</asrwt>
<pdfrwt beam="1">  1        2 0.28645768E+00 0.20691587E+04</pdfrwt>
<pdfrwt beam="2">  1       -2 0.88438311E-01 0.20691587E+04</pdfrwt>
<totfact> 0.81031040E+00</totfact>
</mgrwt>
</event>
<event>
 6    1  0.5026615E-004  0.2179090E+04  0.7818608E-02  0.8527182E-01
         -2   -1    0    0    0  501 -0.00000000000E+00  0.00000000000E+00  0.71313057835E+03  0.71313057835E+03  0.00000000000E+00 0.  1.
          2   -1    0    0  501    0  0.00000000000E+00 -0.00000000000E+00 -0.16646431871E+04  0.16646431871E+04  0.00000000000E+00 0. -1.
         23    2    1    2    0    0 -0.40649846001E+02  0.61997614768E+03 -0.14506727641E+04  0.15807896412E+04  0.91769207124E+02 0.  0.
         11    1    3    3    0    0 -0.37963628001E+02  0.34837110337E+03 -0.92358910578E+03  0.98783627137E+03  0.00000000000E+00 0. -1.
        -11    1    3    3    0    0 -0.26862179999E+01  0.27160504431E+03 -0.52708365833E+03  0.59295336979E+03  0.00000000000E+00 0.  1.
         22    1    1    2    0    0  0.40649846001E+02 -0.61997614768E+03  0.49916015536E+03  0.79698412429E+03  0.00000000000E+00 0.  1.
<mgrwt>
<rscale>  0 0.21790897E+04</rscale>
<asrwt>0</asrwt>
<pdfrwt beam="1">  1        2 0.25609895E+00 0.21790897E+04</pdfrwt>
<pdfrwt beam="2">  1       -2 0.10971240E+00 0.21790897E+04</pdfrwt>
<totfact> 0.62131941E+00</totfact>
</mgrwt>
</event>
<event>
 6    1  0.5026615E-004  0.2089516E+04  0.7818608E-02  0.8565876E-01
         -2   -1    0    0    0  501 -0.00000000000E+00  0.00000000000E+00  0.80940881772E+03  0.80940881772E+03  0.00000000000E+00 0. -1.
          2   -1    0    0  501    0  0.00000000000E+00 -0.00000000000E+00 -0.13485388057E+04  0.13485388057E+04  0.00000000000E+00 0.  1.
         23    2    1    2    0    0  0.79938914943E+03 -0.64789435533E+03 -0.95237791041E+02  0.10373092382E+04  0.90277964690E+02 0.  0.
         11    1    3    3    0    0  0.47931577039E+02 -0.57671525150E+02  0.11357175438E+02  0.75844751463E+02  0.00000000000E+00 0. -1.
        -11    1    3    3    0    0  0.75145757239E+03 -0.59022283018E+03 -0.10659496648E+03  0.96146448673E+03  0.00000000000E+00 0.  1.
         22    1    1    2    0    0 -0.79938914943E+03  0.64789435533E+03 -0.44389219691E+03  0.11206383852E+04  0.00000000000E+00 0.  1.
<mgrwt>
<rscale>  0 0.20895159E+04</rscale>
<asrwt>0</asrwt>
<pdfrwt beam="1">  1        2 0.20746750E+00 0.20895159E+04</pdfrwt>
<pdfrwt beam="2">  1       -2 0.12452444E+00 0.20895159E+04</pdfrwt>
<totfact> 0.69183743E+00</totfact>
</mgrwt>
</event>
<event>
 6    1  0.5026615E-004  0.1534070E+04  0.7818608E-02  0.8862108E-01
          2   -1    0    0  501    0  0.00000000000E+00  0.00000000000E+00  0.14166554169E+04  0.14166554169E+04  0.00000000000E+00 0.  1.
         -2   -1    0    0    0  501 -0.00000000000E+00 -0.00000000000E+00 -0.41530392680E+03  0.41530392680E+03  0.00000000000E+00 0. -1.
         23    2    1    2    0    0 -0.30214902014E+03 -0.45049150429E+03 -0.14037170662E+03  0.56793067165E+03  0.92759937287E+02 0.  0.
         11    1    3    3    0    0 -0.22684356324E+03 -0.29536089247E+03 -0.58303941321E+02  0.37695544639E+03  0.00000000000E+00 0. -1.
        -11    1    3    3    0    0 -0.75305456902E+02 -0.15513061182E+03 -0.82067765297E+02  0.19097522526E+03  0.00000000000E+00 0.  1.
         22    1    1    2    0    0  0.30214902014E+03  0.45049150429E+03  0.11417231967E+04  0.12640286720E+04  0.00000000000E+00 0.  1.
<mgrwt>
<rscale>  0 0.15340698E+04</rscale>
<asrwt>0</asrwt>
<pdfrwt beam="1">  1        2 0.21794699E+00 0.15340698E+04</pdfrwt>
<pdfrwt beam="2">  1       -2 0.63892912E-01 0.15340698E+04</pdfrwt>
<totfact> 0.30902106E+01</totfact>
</mgrwt>
</event>
<event>
 6    1  0.5026615E-004  0.4550064E+04  0.7818608E-02  0.7901930E-01
          2   -1    0    0  501    0  0.00000000000E+00  0.00000000000E+00  0.25680108042E+04  0.25680108042E+04  0.00000000000E+00 0.  1.
         -2   -1    0    0    0  501 -0.00000000000E+00 -0.00000000000E+00 -0.20154786800E+04  0.20154786800E+04  0.00000000000E+00 0. -1.
         23    2    1    2    0    0  0.11565395550E+04  0.77503448670E+03 -0.15349336206E+04  0.20743510996E+04  0.93000358031E+02 0.  0.
         13    1    3    3    0    0  0.64174119359E+03  0.48454869417E+03 -0.87291411066E+03  0.11868438150E+04  0.00000000000E+00 0. -1.
        -13    1    3    3    0    0  0.51479836144E+03  0.29048579253E+03 -0.66201950996E+03  0.88750728457E+03  0.00000000000E+00 0.  1.
         22    1    1    2    0    0 -0.11565395550E+04 -0.77503448670E+03  0.20874657447E+04  0.25091383847E+04  0.00000000000E+00 0.  1.
<mgrwt>
<rscale>  0 0.45500642E+04</rscale>
<asrwt>0</asrwt>
<pdfrwt beam="1">  1        2 0.39507859E+00 0.45500642E+04</pdfrwt>
<pdfrwt beam="2">  1       -2 0.31007364E+00 0.45500642E+04</pdfrwt>
<totfact> 0.66101689E-02</totfact>
</mgrwt>
</event>
<event>
 6    1  0.5026615E-004  0.1720381E+04  0.7818608E-02  0.8749825E-01
         -2   -1    0    0    0  501 -0.00000000000E+00  0.00000000000E+00  0.63889372764E+03  0.63889372764E+03  0.00000000000E+00 0. -1.
          2   -1    0    0  501    0  0.00000000000E+00 -0.00000000000E+00 -0.11581383036E+04  0.11581383036E+04  0.00000000000E+00 0.  1.
         23    2    1    2    0    0 -0.49769116399E+03  0.17195713521E+03 -0.96766110887E+03  0.11054084789E+04  0.91072128107E+02 0.  0.
         11    1    3    3    0    0 -0.34730372034E+03  0.16199177355E+03 -0.67407390683E+03  0.77539463548E+03  0.00000000000E+00 0. -1.
        -11    1    3    3    0    0 -0.15038744365E+03  0.99653616545E+01 -0.29358720204E+03  0.33001384341E+03  0.00000000000E+00 0.  1.
         22    1    1    2    0    0  0.49769116399E+03 -0.17195713521E+03  0.44841653296E+03  0.69162355230E+03  0.00000000000E+00 0. -1.
<mgrwt>
<rscale>  0 0.17203805E+04</rscale>
<asrwt>0</asrwt>
<pdfrwt beam="1">  1        2 0.17817512E+00 0.17203805E+04</pdfrwt>
<pdfrwt beam="2">  1       -2 0.98291344E-01 0.17203805E+04</pdfrwt>
<totfact> 0.16409792E+01</totfact>
</mgrwt>
</event>
<event>
 6    1  0.5026615E-004  0.1427245E+04  0.7818608E-02  0.8934330E-01
          2   -1    0    0  501    0  0.00000000000E+00  0.00000000000E+00  0.12105022310E+04  0.12105022310E+04  0.00000000000E+00 0.  1.
         -2   -1    0    0    0  501 -0.00000000000E+00 -0.00000000000E+00 -0.42069914998E+03  0.42069914998E+03  0.00000000000E+00 0. -1.
         23    2    1    2    0    0 -0.52626325490E+03  0.33832161492E+03  0.11347199709E+02  0.63249817794E+03  0.92253225263E+02 0.  0.
         11    1    3    3    0    0 -0.18074586934E+03  0.68824199581E+02 -0.11180078524E+02  0.19372876371E+03  0.00000000000E+00 0. -1.
        -11    1    3    3    0    0 -0.34551738556E+03  0.26949741534E+03  0.22527278233E+02  0.43876941423E+03  0.00000000000E+00 0.  1.
         22    1    1    2    0    0  0.52626325490E+03 -0.33832161492E+03  0.77845588128E+03  0.99870320300E+03  0.00000000000E+00 0.  1.
<mgrwt>
<rscale>  0 0.14272453E+04</rscale>
<asrwt>0</asrwt>
<pdfrwt beam="1">  1        2 0.18623111E+00 0.14272453E+04</pdfrwt>
<pdfrwt beam="2">  1       -2 0.64722947E-01 0.14272453E+04</pdfrwt>
<totfact> 0.39958351E+01</totfact>
</mgrwt>
</event>
<event>
 6    1  0.5026615E-004  0.2569561E+04  0.7818608E-02  0.8378615E-01
          1   -1    0    0  501    0  0.00000000000E+00  0.00000000000E+00  0.55137130619E+03  0.55137130619E+03  0.00000000000E+00 0. -1.
         -1   -1    0    0    0  501 -0.00000000000E+00 -0.00000000000E+00 -0.29937379799E+04  0.29937379799E+04  0.00000000000E+00 0.  1.
         23    2    1    2    0    0 -0.90712762165E+03  0.26688011051E+03 -0.26281177144E+02  0.95058145966E+03  0.93855718207E+02 0.  0.
         11    1    3    3    0    0 -0.45939145635E+03  0.17886035036E+03  0.73581032572E+01  0.49303719615E+03  0.00000000000E+00 0. -1.
        -11    1    3    3    0    0 -0.44773616529E+03  0.88019760149E+02 -0.33639280401E+02  0.45754426351E+03  0.00000000000E+00 0.  1.
         22    1    1    2    0    0  0.90712762165E+03 -0.26688011051E+03 -0.24160854965E+04  0.25945278264E+04  0.00000000000E+00 0.  1.
<mgrwt>
<rscale>  0 0.25695612E+04</rscale>
<asrwt>0</asrwt>
<pdfrwt beam="1">  1        1 0.84826356E-01 0.25695612E+04</pdfrwt>
<pdfrwt beam="2">  1       -1 0.46057507E+00 0.25695612E+04</pdfrwt>
<totfact> 0.93294879E-02</totfact>
</mgrwt>
</event>
<event>
 6    1  0.5026615E-004  0.1216691E+04  0.7818608E-02  0.9098371E-01
         -2   -1    0    0    0  501 -0.00000000000E+00  0.00000000000E+00  0.41787904349E+03  0.41787904349E+03  0.00000000000E+00 0. -1.
          2   -1    0    0  501    0  0.00000000000E+00 -0.00000000000E+00 -0.88562587056E+03  0.88562587056E+03  0.00000000000E+00 0.  1.
         23    2    1    2    0    0 -0.66269169139E+02 -0.25414430464E+03 -0.81879811785E+03  0.86507825072E+03  0.94599639058E+02 0.  0.
         11    1    3    3    0    0  0.74589494536E+01 -0.73549109561E+01 -0.11769598000E+03  0.11816122186E+03  0.00000000000E+00 0. -1.
        -11    1    3    3    0    0 -0.73728118593E+02 -0.24678939369E+03 -0.70110213785E+03  0.74691702886E+03  0.00000000000E+00 0.  1.
         22    1    1    2    0    0  0.66269169139E+02  0.25414430464E+03  0.35105129078E+03  0.43842666333E+03  0.00000000000E+00 0. -1.
<mgrwt>
<rscale>  0 0.12166914E+04</rscale>
<asrwt>0</asrwt>
<pdfrwt beam="1">  1        2 0.13625013E+00 0.12166914E+04</pdfrwt>
<pdfrwt beam="2">  1       -2 0.64289084E-01 0.12166914E+04</pdfrwt>
<totfact> 0.66097570E+01</totfact>
</mgrwt>
</event>
<event>
 6    1  0.5026615E-004  0.2616253E+04  0.7818608E-02  0.8362701E-01
         -1   -1    0    0    0  501 -0.00000000000E+00  0.00000000000E+00  0.94476689836E+03  0.94476689836E+03  0.00000000000E+00 0.  1.
          1   -1    0    0  501    0  0.00000000000E+00 -0.00000000000E+00 -0.18112345943E+04  0.18112345943E+04  0.00000000000E+00 0. -1.
         23    2    1    2    0    0  0.11220755434E+04  0.46089818124E+03 -0.94510016746E+03  0.15404095693E+04  0.90369552839E+02 0.  0.
         13    1    3    3    0    0  0.58893403183E+03  0.29055866275E+03 -0.51256621098E+03  0.83306167298E+03  0.00000000000E+00 0. -1.
        -13    1    3    3    0    0  0.53314151156E+03  0.17033951849E+03 -0.43253395649E+03  0.70734789632E+03  0.00000000000E+00 0.  1.
         22    1    1    2    0    0 -0.11220755434E+04 -0.46089818124E+03  0.78632471536E+02  0.12155919234E+04  0.00000000000E+00 0.  1.
<mgrwt>
<rscale>  0 0.26162527E+04</rscale>
<asrwt>0</asrwt>
<pdfrwt beam="1">  1        1 0.27865147E+00 0.26162527E+04</pdfrwt>
<pdfrwt beam="2">  1       -1 0.14534876E+00 0.26162527E+04</pdfrwt>
<totfact> 0.13365281E+00</totfact>
</mgrwt>
</event>
<event>
 6    1  0.5026615E-004  0.1507346E+04  0.7818608E-02  0.8879583E-01
         -2   -1    0    0    0  501 -0.00000000000E+00  0.00000000000E+00  0.11928662076E+04  0.11928662076E+04  0.00000000000E+00 0. -1.
          2   -1    0    0  501    0  0.00000000000E+00 -0.00000000000E+00 -0.47618323586E+03  0.47618323586E+03  0.00000000000E+00 0.  1.
         23    2    1    2    0    0  0.89868113305E+02  0.74294552883E+03  0.42943910895E+03  0.86745517372E+03  0.89533197849E+02 0.  0.
         11    1    3    3    0    0  0.38603680995E+02  0.96273751096E+02  0.77126015775E+02  0.12925672766E+03  0.00000000000E+00 0. -1.
        -11    1    3    3    0    0  0.51264432309E+02  0.64667177773E+03  0.35231309318E+03  0.73819844605E+03  0.00000000000E+00 0.  1.
         22    1    1    2    0    0 -0.89868113305E+02 -0.74294552883E+03  0.28724386281E+03  0.80159426976E+03  0.00000000000E+00 0.  1.
<mgrwt>
<rscale>  0 0.15073459E+04</rscale>
<asrwt>0</asrwt>
<pdfrwt beam="1">  1        2 0.73258960E-01 0.15073459E+04</pdfrwt>
<pdfrwt beam="2">  1       -2 0.18351788E+00 0.15073459E+04</pdfrwt>
<totfact> 0.10780498E+01</totfact>
</mgrwt>
</event>
<event>
 6    1  0.5026615E-004  0.1440192E+04  0.7818608E-02  0.8925228E-01
         -2   -1    0    0    0  501 -0.00000000000E+00  0.00000000000E+00  0.31326274698E+03  0.31326274698E+03  0.00000000000E+00 0. -1.
          2   -1    0    0  501    0  0.00000000000E+00 -0.00000000000E+00 -0.16552826500E+04  0.16552826500E+04  0.00000000000E+00 0.  1.
         23    2    1    2    0    0 -0.18355210575E+03  0.62377380681E+03 -0.10874888828E+04  0.12702824251E+04  0.90555131354E+02 0.  0.
         11    1    3    3    0    0 -0.99703780787E+02  0.31217453039E+03 -0.63425781905E+03  0.71391649536E+03  0.00000000000E+00 0. -1.
        -11    1    3    3    0    0 -0.83848324962E+02  0.31159927642E+03 -0.45323106372E+03  0.55636592975E+03  0.00000000000E+00 0.  1.
         22    1    1    2    0    0  0.18355210575E+03 -0.62377380681E+03 -0.25453102022E+03  0.69826297184E+03  0.00000000000E+00 0. -1.
<mgrwt>
<rscale>  0 0.14401922E+04</rscale>
<asrwt>0</asrwt>
<pdfrwt beam="1">  1        2 0.25465886E+00 0.14401922E+04</pdfrwt>
<pdfrwt beam="2">  1       -2 0.48194270E-01 0.14401922E+04</pdfrwt>
<totfact> 0.41102853E+01</totfact>
</mgrwt>
</event>
<event>
 6    1  0.5026615E-004  0.2412811E+04  0.7818608E-02  0.8434723E-01
          2   -1    0    0  501    0  0.00000000000E+00  0.00000000000E+00  0.98728765910E+03  0.98728765910E+03  0.00000000000E+00 0.  1.
         -2   -1    0    0    0  501 -0.00000000000E+00 -0.00000000000E+00 -0.14741539118E+04  0.14741539118E+04  0.00000000000E+00 0. -1.
         23    2    1    2    0    0 -0.67277982850E+03  0.55445285549E+03 -0.10918685252E+04  0.14002731506E+04  0.92397800264E+02 0.  0.
         13    1    3    3    0    0 -0.49919629306E+03  0.36693649794E+03 -0.81087436151E+03  0.10204687955E+04  0.00000000000E+00 0. -1.
        -13    1    3    3    0    0 -0.17358353544E+03  0.18751635755E+03 -0.28099416368E+03  0.37980435509E+03  0.00000000000E+00 0.  1.
         22    1    1    2    0    0  0.67277982850E+03 -0.55445285549E+03  0.60500227244E+03  0.10611684203E+04  0.00000000000E+00 0.  1.
<mgrwt>
<rscale>  0 0.24128108E+04</rscale>
<asrwt>0</asrwt>
<pdfrwt beam="1">  1        2 0.15189041E+00 0.24128108E+04</pdfrwt>
<pdfrwt beam="2">  1       -2 0.22679291E+00 0.24128108E+04</pdfrwt>
<totfact> 0.20644522E+00</totfact>
</mgrwt>
</event>
<event>
 6    1  0.5026615E-004  0.2158806E+04  0.7818608E-02  0.8535772E-01
         -2   -1    0    0    0  501 -0.00000000000E+00  0.00000000000E+00  0.19255121192E+04  0.19255121192E+04  0.00000000000E+00 0. -1.
          2   -1    0    0  501    0  0.00000000000E+00 -0.00000000000E+00 -0.60509153126E+03  0.60509153126E+03  0.00000000000E+00 0.  1.
         23    2    1    2    0    0 -0.85217485927E+03  0.41931453604E+03  0.12577554607E+04  0.15787877076E+04  0.92710064451E+02 0.  0.
         11    1    3    3    0    0 -0.26473756492E+03  0.84227834324E+02  0.35304449325E+03  0.44924461107E+03  0.00000000000E+00 0.  1.
        -11    1    3    3    0    0 -0.58743729435E+03  0.33508670171E+03  0.90471096740E+03  0.11295430966E+04  0.00000000000E+00 0. -1.
         22    1    1    2    0    0  0.85217485927E+03 -0.41931453604E+03  0.62665127313E+02  0.95181594286E+03  0.00000000000E+00 0.  1.
<mgrwt>
<rscale>  0 0.21588062E+04</rscale>
<asrwt>0</asrwt>
<pdfrwt beam="1">  1        2 0.93091005E-01 0.21588062E+04</pdfrwt>
<pdfrwt beam="2">  1       -2 0.29623263E+00 0.21588062E+04</pdfrwt>
<totfact> 0.15098442E+00</totfact>
</mgrwt>
</event>
<event>
 6    1  0.5026615E-004  0.4705457E+04  0.7818608E-02  0.7875622E-01
         -2   -1    0    0    0  501 -0.00000000000E+00  0.00000000000E+00  0.28366079003E+04  0.28366079003E+04  0.00000000000E+00 0. -1.
          2   -1    0    0  501    0  0.00000000000E+00 -0.00000000000E+00 -0.19513912540E+04  0.19513912540E+04  0.00000000000E+00 0.  1.
         23    2    1    2    0    0 -0.45572566028E+03 -0.14112289435E+04 -0.14146213585E+04  0.20514853399E+04  0.90473772284E+02 0.  0.
         11    1    3    3    0    0 -0.29137260474E+03 -0.96281074025E+03 -0.90603779866E+03  0.13538120287E+04  0.00000000000E+00 0.  1.
        -11    1    3    3    0    0 -0.16435305554E+03 -0.44841820321E+03 -0.50858355987E+03  0.69767331123E+03  0.00000000000E+00 0. -1.
         22    1    1    2    0    0  0.45572566028E+03  0.14112289435E+04  0.22998380048E+04  0.27365138144E+04  0.00000000000E+00 0. -1.
<mgrwt>
<rscale>  0 0.47054572E+04</rscale>
<asrwt>0</asrwt>
<pdfrwt beam="1">  1        2 0.30021404E+00 0.47054572E+04</pdfrwt>
<pdfrwt beam="2">  1       -2 0.43640122E+00 0.47054572E+04</pdfrwt>
<totfact> 0.22658888E-02</totfact>
</mgrwt>
</event>
<event>
 6    1  0.5026615E-004  0.3961474E+04  0.7818608E-02  0.8012364E-01
          2   -1    0    0  501    0  0.00000000000E+00  0.00000000000E+00  0.23199572193E+04  0.23199572193E+04  0.00000000000E+00 0.  1.
         -2   -1    0    0    0  501 -0.00000000000E+00 -0.00000000000E+00 -0.16911172462E+04  0.16911172462E+04  0.00000000000E+00 0. -1.
         23    2    1    2    0    0 -0.89001089671E+03 -0.83827141741E+03 -0.12620597534E+04  0.17593373269E+04  0.87490817754E+02 0.  0.
         11    1    3    3    0    0 -0.49703049724E+03 -0.52083405151E+03 -0.76962634598E+03  0.10538653315E+04  0.00000000000E+00 0.  1.
        -11    1    3    3    0    0 -0.39298039947E+03 -0.31743736590E+03 -0.49243340742E+03  0.70547199546E+03  0.00000000000E+00 0. -1.
         22    1    1    2    0    0  0.89001089671E+03  0.83827141741E+03  0.18908997266E+04  0.22517371386E+04  0.00000000000E+00 0.  1.
<mgrwt>
<rscale>  0 0.39614743E+04</rscale>
<asrwt>0</asrwt>
<pdfrwt beam="1">  1        2 0.35691650E+00 0.39614743E+04</pdfrwt>
<pdfrwt beam="2">  1       -2 0.26017188E+00 0.39614743E+04</pdfrwt>
<totfact> 0.19454371E-01</totfact>
</mgrwt>
</event>
<event>
 6    1  0.5026615E-004  0.3439883E+04  0.7818608E-02  0.8128186E-01
         -2   -1    0    0    0  501 -0.00000000000E+00  0.00000000000E+00  0.95091294560E+03  0.95091294560E+03  0.00000000000E+00 0. -1.
          2   -1    0    0  501    0  0.00000000000E+00 -0.00000000000E+00 -0.31109047062E+04  0.31109047062E+04  0.00000000000E+00 0.  1.
         23    2    1    2    0    0  0.38154353054E+03  0.12024510972E+04  0.29744694618E+03  0.12994872761E+04  0.93425843841E+02 0.  0.
         11    1    3    3    0    0  0.28735569731E+03  0.80907643795E+03  0.16877945502E+03  0.87502256180E+03  0.00000000000E+00 0. -1.
        -11    1    3    3    0    0  0.94187833229E+02  0.39337465921E+03  0.12866749117E+03  0.42446471434E+03  0.00000000000E+00 0.  1.
         22    1    1    2    0    0 -0.38154353054E+03 -0.12024510972E+04 -0.24574387068E+04  0.27623303756E+04  0.00000000000E+00 0.  1.
<mgrwt>
<rscale>  0 0.34398835E+04</rscale>
<asrwt>0</asrwt>
<pdfrwt beam="1">  1        2 0.47860072E+00 0.34398835E+04</pdfrwt>
<pdfrwt beam="2">  1       -2 0.14629430E+00 0.34398835E+04</pdfrwt>
<totfact> 0.39107795E-01</totfact>
</mgrwt>
</event>
<event>
 6    1  0.5026615E-004  0.3017356E+04  0.7818608E-02  0.8238792E-01
          2   -1    0    0  501    0  0.00000000000E+00  0.00000000000E+00  0.16933365350E+04  0.16933365350E+04  0.00000000000E+00 0.  1.
         -2   -1    0    0    0  501 -0.00000000000E+00 -0.00000000000E+00 -0.13441569183E+04  0.13441569183E+04  0.00000000000E+00 0. -1.
         23    2    1    2    0    0 -0.18795323597E+03  0.12805613664E+04  0.95165703124E+03  0.16098580422E+04  0.10405757588E+03 0.  0.
         13    1    3    3    0    0 -0.70366967451E+02  0.69392371421E+03  0.46066531485E+03  0.83587927571E+03  0.00000000000E+00 0.  1.
        -13    1    3    3    0    0 -0.11758626852E+03  0.58663765217E+03  0.49099171639E+03  0.77397876653E+03  0.00000000000E+00 0. -1.
         22    1    1    2    0    0  0.18795323597E+03 -0.12805613664E+04 -0.60247741453E+03  0.14276354111E+04  0.00000000000E+00 0. -1.
<mgrwt>
<rscale>  0 0.30173565E+04</rscale>
<asrwt>0</asrwt>
<pdfrwt beam="1">  1        2 0.26051331E+00 0.30173565E+04</pdfrwt>
<pdfrwt beam="2">  1       -2 0.20679337E+00 0.30173565E+04</pdfrwt>
<totfact> 0.10155274E+00</totfact>
</mgrwt>
</event>
<event>
 6    1  0.5026615E-004  0.1294413E+04  0.7818608E-02  0.9034007E-01
         -2   -1    0    0    0  501 -0.00000000000E+00  0.00000000000E+00  0.21638876291E+03  0.21638876291E+03  0.00000000000E+00 0. -1.
          2   -1    0    0  501    0  0.00000000000E+00 -0.00000000000E+00 -0.19357581260E+04  0.19357581260E+04  0.00000000000E+00 0.  1.
         23    2    1    2    0    0 -0.47345679277E+03  0.32809955591E+03 -0.13427473785E+04  0.14639210739E+04  0.91015025513E+02 0.  0.
         11    1    3    3    0    0 -0.31333410875E+03  0.19220600710E+03 -0.94823492821E+03  0.10169910973E+04  0.00000000000E+00 0.  1.
        -11    1    3    3    0    0 -0.16012268402E+03  0.13589354882E+03 -0.39451245026E+03  0.44692997657E+03  0.00000000000E+00 0. -1.
         22    1    1    2    0    0  0.47345679277E+03 -0.32809955591E+03 -0.37662198461E+03  0.68822581505E+03  0.00000000000E+00 0. -1.
<mgrwt>
<rscale>  0 0.12944131E+04</rscale>
<asrwt>0</asrwt>
<pdfrwt beam="1">  1        2 0.29780893E+00 0.12944131E+04</pdfrwt>
<pdfrwt beam="2">  1       -2 0.33290580E-01 0.12944131E+04</pdfrwt>
<totfact> 0.59989068E+01</totfact>
</mgrwt>
</event>
<event>
 6    1  0.5026615E-004  0.1380897E+04  0.7818608E-02  0.8967764E-01
          2   -1    0    0  501    0  0.00000000000E+00  0.00000000000E+00  0.26416338496E+03  0.26416338496E+03  0.00000000000E+00 0.  1.
         -2   -1    0    0    0  501 -0.00000000000E+00 -0.00000000000E+00 -0.18046368090E+04  0.18046368090E+04  0.00000000000E+00 0. -1.
         23    2    1    2    0    0  0.16115500549E+03 -0.56754417085E+03 -0.24484942706E+03  0.64517142803E+03  0.90651022862E+02 0.  0.
         11    1    3    3    0    0  0.10341168890E+02 -0.18948413345E+03 -0.72172926504E+02  0.20302735757E+03  0.00000000000E+00 0. -1.
        -11    1    3    3    0    0  0.15081383660E+03 -0.37806003740E+03 -0.17267650056E+03  0.44214407045E+03  0.00000000000E+00 0.  1.
         22    1    1    2    0    0 -0.16115500549E+03  0.56754417085E+03 -0.12956239969E+04  0.14236287659E+04  0.00000000000E+00 0. -1.
<mgrwt>
<rscale>  0 0.13808968E+04</rscale>
<asrwt>0</asrwt>
<pdfrwt beam="1">  1        2 0.40640520E-01 0.13808968E+04</pdfrwt>
<pdfrwt beam="2">  1       -2 0.27763643E+00 0.13808968E+04</pdfrwt>
<totfact> 0.53867180E+00</totfact>
</mgrwt>
</event>
<event>
 6    1  0.5026615E-004  0.1206917E+04  0.7818608E-02  0.9106824E-01
         -2   -1    0    0    0  501 -0.00000000000E+00  0.00000000000E+00  0.11485311030E+03  0.11485311030E+03  0.00000000000E+00 0. -1.
          2   -1    0    0  501    0  0.00000000000E+00 -0.00000000000E+00 -0.31706774717E+04  0.31706774717E+04  0.00000000000E+00 0.  1.
         23    2    1    2    0    0 -0.26068543234E+03  0.50261641269E+02 -0.30013627011E+04  0.30145154539E+04  0.92963600123E+02 0.  0.
         13    1    3    3    0    0 -0.20856526348E+03  0.53720748583E+02 -0.19503482705E+04  0.19622038029E+04  0.00000000000E+00 0. -1.
        -13    1    3    3    0    0 -0.52120168857E+02 -0.34591073144E+01 -0.10510144306E+04  0.10523116510E+04  0.00000000000E+00 0.  1.
         22    1    1    2    0    0  0.26068543234E+03 -0.50261641269E+02 -0.54461660277E+02  0.27101512809E+03  0.00000000000E+00 0. -1.
<mgrwt>
<rscale>  0 0.12069170E+04</rscale>
<asrwt>0</asrwt>
<pdfrwt beam="1">  1        2 0.48779653E+00 0.12069170E+04</pdfrwt>
<pdfrwt beam="2">  1       -2 0.17669709E-01 0.12069170E+04</pdfrwt>
<totfact> 0.36090816E+01</totfact>
</mgrwt>
</event>
<event>
 6    1  0.5026615E-004  0.1822765E+04  0.7818608E-02  0.8694286E-01
         -2   -1    0    0    0  501 -0.00000000000E+00  0.00000000000E+00  0.89555961377E+03  0.89555961377E+03  0.00000000000E+00 0. -1.
          2   -1    0    0  501    0  0.00000000000E+00 -0.00000000000E+00 -0.92748476904E+03  0.92748476904E+03  0.00000000000E+00 0.  1.
         23    2    1    2    0    0  0.87838220802E+03 -0.16633830294E+03 -0.18084568505E+03  0.91673259397E+03  0.92031259161E+02 0.  0.
         11    1    3    3    0    0  0.17980279472E+03 -0.25442409288E+02 -0.39248116522E+00  0.18159437001E+03  0.00000000000E+00 0. -1.
        -11    1    3    3    0    0  0.69857941330E+03 -0.14089589366E+03 -0.18045320388E+03  0.73513822396E+03  0.00000000000E+00 0.  1.
         22    1    1    2    0    0 -0.87838220802E+03  0.16633830294E+03  0.14892052978E+03  0.90631178883E+03  0.00000000000E+00 0. -1.
<mgrwt>
<rscale>  0 0.18227648E+04</rscale>
<asrwt>0</asrwt>
<pdfrwt beam="1">  1        2 0.14268996E+00 0.18227648E+04</pdfrwt>
<pdfrwt beam="2">  1       -2 0.13777840E+00 0.18227648E+04</pdfrwt>
<totfact> 0.99124898E+00</totfact>
</mgrwt>
</event>
<event>
 6    1  0.5026615E-004  0.2719935E+04  0.7818608E-02  0.8328566E-01
         -2   -1    0    0    0  501 -0.00000000000E+00  0.00000000000E+00  0.65957321330E+03  0.65957321330E+03  0.00000000000E+00 0. -1.
          2   -1    0    0  501    0  0.00000000000E+00 -0.00000000000E+00 -0.28041042821E+04  0.28041042821E+04  0.00000000000E+00 0.  1.
         23    2    1    2    0    0  0.72864749166E+03  0.11209443491E+04 -0.76716575796E+03  0.15441518768E+04  0.91751391254E+02 0.  0.
         13    1    3    3    0    0  0.42432968106E+03  0.68571623231E+03 -0.50965309746E+03  0.95394376628E+03  0.00000000000E+00 0. -1.
        -13    1    3    3    0    0  0.30431781061E+03  0.43522811675E+03 -0.25751266050E+03  0.59020811057E+03  0.00000000000E+00 0.  1.
         22    1    1    2    0    0 -0.72864749166E+03 -0.11209443491E+04 -0.13773653109E+04  0.19195256186E+04  0.00000000000E+00 0.  1.
<mgrwt>
<rscale>  0 0.27199353E+04</rscale>
<asrwt>0</asrwt>
<pdfrwt beam="1">  1        2 0.43140067E+00 0.27199353E+04</pdfrwt>
<pdfrwt beam="2">  1       -2 0.10147280E+00 0.27199353E+04</pdfrwt>
<totfact> 0.16059897E+00</totfact>
</mgrwt>
</event>
<event>
 6    1  0.5026615E-004  0.9154967E+03  0.7818608E-02  0.9406414E-01
         -2   -1    0    0    0  501 -0.00000000000E+00  0.00000000000E+00  0.12150035128E+03  0.12150035128E+03  0.00000000000E+00 0. -1.
          2   -1    0    0  501    0  0.00000000000E+00 -0.00000000000E+00 -0.17245511547E+04  0.17245511547E+04  0.00000000000E+00 0.  1.
         23    2    1    2    0    0  0.31464089418E+03  0.21899278105E+03 -0.12965671573E+04  0.13552471093E+04  0.93013996187E+02 0.  0.
         11    1    3    3    0    0  0.26422751867E+03  0.17768594249E+03 -0.11741747259E+04  0.12165832330E+04  0.00000000000E+00 0. -1.
        -11    1    3    3    0    0  0.50413375509E+02  0.41306838554E+02 -0.12239243137E+03  0.13866387633E+03  0.00000000000E+00 0.  1.
         22    1    1    2    0    0 -0.31464089418E+03 -0.21899278105E+03 -0.30648364608E+03  0.49080439663E+03  0.00000000000E+00 0. -1.
<mgrwt>
<rscale>  0 0.91549674E+03</rscale>
<asrwt>0</asrwt>
<pdfrwt beam="1">  1        2 0.26531556E+00 0.91549674E+03</pdfrwt>
<pdfrwt beam="2">  1       -2 0.18692362E-01 0.91549674E+03</pdfrwt>
<totfact> 0.22961069E+02</totfact>
</mgrwt>
</event>
<event>
 6    1  0.5026615E-004  0.1193832E+04  0.7818608E-02  0.9118273E-01
         -2   -1    0    0    0  501 -0.00000000000E+00  0.00000000000E+00  0.10305818309E+04  0.10305818309E+04  0.00000000000E+00 0.  1.
          2   -1    0    0  501    0  0.00000000000E+00 -0.00000000000E+00 -0.34573547969E+03  0.34573547969E+03  0.00000000000E+00 0. -1.
         23    2    1    2    0    0  0.21928897266E+03 -0.11014037352E+03  0.96728577494E+03  0.10021641555E+04  0.92047100364E+02 0.  0.
         13    1    3    3    0    0  0.15600788617E+03 -0.75379399818E+02  0.82035440855E+03  0.83845206786E+03  0.00000000000E+00 0. -1.
        -13    1    3    3    0    0  0.63281086483E+02 -0.34760973703E+02  0.14693136639E+03  0.16371208761E+03  0.00000000000E+00 0.  1.
         22    1    1    2    0    0 -0.21928897266E+03  0.11014037352E+03 -0.28243942374E+03  0.37415315512E+03  0.00000000000E+00 0. -1.
<mgrwt>
<rscale>  0 0.11938320E+04</rscale>
<asrwt>0</asrwt>
<pdfrwt beam="1">  1        2 0.53190074E-01 0.11938320E+04</pdfrwt>
<pdfrwt beam="2">  1       -2 0.15855105E+00 0.11938320E+04</pdfrwt>
<totfact> 0.23851566E+01</totfact>
</mgrwt>
</event>
<event>
 6    1  0.5026615E-004  0.6575494E+03  0.7818608E-02  0.9792716E-01
         -2   -1    0    0    0  501 -0.00000000000E+00  0.00000000000E+00  0.75809577536E+03  0.75809577536E+03  0.00000000000E+00 0. -1.
          2   -1    0    0  501    0  0.00000000000E+00 -0.00000000000E+00 -0.14258461928E+03  0.14258461928E+03  0.00000000000E+00 0.  1.
         23    2    1    2    0    0  0.10534971462E+03  0.26229186741E+03  0.10127864165E+03  0.31388344085E+03  0.91486966870E+02 0.  0.
         11    1    3    3    0    0  0.37723666350E+02  0.50014408433E+02 -0.12255434881E+02  0.63833468791E+02  0.00000000000E+00 0. -1.
        -11    1    3    3    0    0  0.67626048275E+02  0.21227745897E+03  0.11353407653E+03  0.25004997206E+03  0.00000000000E+00 0.  1.
         22    1    1    2    0    0 -0.10534971462E+03 -0.26229186741E+03  0.51423251444E+03  0.58679695379E+03  0.00000000000E+00 0. -1.
<mgrwt>
<rscale>  0 0.65754938E+03</rscale>
<asrwt>0</asrwt>
<pdfrwt beam="1">  1        2 0.21936096E-01 0.65754938E+03</pdfrwt>
<pdfrwt beam="2">  1       -2 0.11663012E+00 0.65754938E+03</pdfrwt>
<totfact> 0.14701742E+02</totfact>
</mgrwt>
</event>
<event>
 6    1  0.5026615E-004  0.4617956E+04  0.7818608E-02  0.7890305E-01
         -2   -1    0    0    0  501 -0.00000000000E+00  0.00000000000E+00  0.25284015684E+04  0.25284015684E+04  0.00000000000E+00 0. -1.
          2   -1    0    0  501    0  0.00000000000E+00 -0.00000000000E+00 -0.21085968014E+04  0.21085968014E+04  0.00000000000E+00 0.  1.
         23    2    1    2    0    0  0.66215730338E+03 -0.19544301341E+04 -0.82950855298E+03  0.22247311345E+04  0.55630367008E+02 0.  0.
         13    1    3    3    0    0  0.22092356958E+03 -0.66538592780E+03 -0.25389991332E+03  0.74566133230E+03  0.00000000000E+00 0.  1.
        -13    1    3    3    0    0  0.44123373380E+03 -0.12890442063E+04 -0.57560863966E+03  0.14790698022E+04  0.00000000000E+00 0. -1.
         22    1    1    2    0    0 -0.66215730338E+03  0.19544301341E+04  0.12493133200E+04  0.24122672354E+04  0.00000000000E+00 0. -1.
<mgrwt>
<rscale>  0 0.46179560E+04</rscale>
<asrwt>0</asrwt>
<pdfrwt beam="1">  1        2 0.32439951E+00 0.46179560E+04</pdfrwt>
<pdfrwt beam="2">  1       -2 0.38898486E+00 0.46179560E+04</pdfrwt>
<totfact> 0.38199140E-02</totfact>
</mgrwt>
</event>
<event>
 6    1  0.5026615E-004  0.1494971E+04  0.7818608E-02  0.8887804E-01
         -1   -1    0    0    0  501 -0.00000000000E+00  0.00000000000E+00  0.32486010485E+03  0.32486010485E+03  0.00000000000E+00 0. -1.
          1   -1    0    0  501    0  0.00000000000E+00 -0.00000000000E+00 -0.17199245302E+04  0.17199245302E+04  0.00000000000E+00 0.  1.
         23    2    1    2    0    0 -0.31806858307E+03  0.64372587979E+03 -0.43234421911E+03  0.84379303334E+03  0.97542439322E+02 0.  0.
         13    1    3    3    0    0 -0.25926638150E+03  0.44236383393E+03 -0.33544538351E+03  0.61272214213E+03  0.00000000000E+00 0. -1.
        -13    1    3    3    0    0 -0.58802201575E+02  0.20136204586E+03 -0.96898835608E+02  0.23107089121E+03  0.00000000000E+00 0.  1.
         22    1    1    2    0    0  0.31806858307E+03 -0.64372587979E+03 -0.96272020621E+03  0.12009916017E+04  0.00000000000E+00 0.  1.
<mgrwt>
<rscale>  0 0.14949714E+04</rscale>
<asrwt>0</asrwt>
<pdfrwt beam="1">  1        1 0.26460377E+00 0.14949714E+04</pdfrwt>
<pdfrwt beam="2">  1       -1 0.49978478E-01 0.14949714E+04</pdfrwt>
<totfact> 0.17958801E+01</totfact>
</mgrwt>
</event>
<event>
 6    1  0.5026615E-004  0.6845214E+03  0.7818608E-02  0.9744075E-01
          2   -1    0    0  501    0  0.00000000000E+00  0.00000000000E+00  0.69085670839E+03  0.69085670839E+03  0.00000000000E+00 0.  1.
         -2   -1    0    0    0  501 -0.00000000000E+00 -0.00000000000E+00 -0.16956104888E+03  0.16956104888E+03  0.00000000000E+00 0. -1.
         23    2    1    2    0    0  0.13656448845E+03 -0.10127291060E+02  0.65112776458E+03  0.67171482396E+03  0.92092439385E+02 0.  0.
         11    1    3    3    0    0  0.14239093926E+03 -0.27174872640E+02  0.53918149586E+03  0.55832816404E+03  0.00000000000E+00 0. -1.
        -11    1    3    3    0    0 -0.58264508117E+01  0.17047581579E+02  0.11194626872E+03  0.11338665992E+03  0.00000000000E+00 0.  1.
         22    1    1    2    0    0 -0.13656448845E+03  0.10127291060E+02 -0.12983210507E+03  0.18870293330E+03  0.00000000000E+00 0. -1.
<mgrwt>
<rscale>  0 0.68452140E+03</rscale>
<asrwt>0</asrwt>
<pdfrwt beam="1">  1        2 0.10628565E+00 0.68452140E+03</pdfrwt>
<pdfrwt beam="2">  1       -2 0.26086316E-01 0.68452140E+03</pdfrwt>
<totfact> 0.55599136E+02</totfact>
</mgrwt>
</event>
<event>
 6    1  0.5026615E-004  0.5553273E+04  0.7818608E-02  0.7748401E-01
         -2   -1    0    0    0  501 -0.00000000000E+00  0.00000000000E+00  0.25574369670E+04  0.25574369670E+04  0.00000000000E+00 0. -1.
          2   -1    0    0  501    0  0.00000000000E+00 -0.00000000000E+00 -0.30146235096E+04  0.30146235096E+04  0.00000000000E+00 0.  1.
         23    2    1    2    0    0 -0.80227714466E+03  0.12356704986E+04  0.21319415919E+04  0.25931152447E+04  0.92420360045E+02 0.  0.
         11    1    3    3    0    0 -0.22518944547E+03  0.40797158140E+03  0.72185448483E+03  0.85920020650E+03  0.00000000000E+00 0. -1.
        -11    1    3    3    0    0 -0.57708769919E+03  0.82769891722E+03  0.14100871070E+04  0.17339150382E+04  0.00000000000E+00 0.  1.
         22    1    1    2    0    0  0.80227714466E+03 -0.12356704986E+04 -0.25891281345E+04  0.29789452319E+04  0.00000000000E+00 0.  1.
<mgrwt>
<rscale>  0 0.55532728E+04</rscale>
<asrwt>0</asrwt>
<pdfrwt beam="1">  1        2 0.46378823E+00 0.55532728E+04</pdfrwt>
<pdfrwt beam="2">  1       -2 0.39345184E+00 0.55532728E+04</pdfrwt>
<totfact> 0.97334697E-03</totfact>
</mgrwt>
</event>
<event>
 6    1  0.5026615E-004  0.1616026E+04  0.7818608E-02  0.8810763E-01
          2   -1    0    0  501    0  0.00000000000E+00  0.00000000000E+00  0.21631957409E+04  0.21631957409E+04  0.00000000000E+00 0.  1.
         -2   -1    0    0    0  501 -0.00000000000E+00 -0.00000000000E+00 -0.30181495021E+03  0.30181495021E+03  0.00000000000E+00 0. -1.
         23    2    1    2    0    0 -0.71242371177E+03 -0.48255115030E+02  0.15014542682E+04  0.16653712706E+04  0.96023165565E+02 0.  0.
         11    1    3    3    0    0 -0.48853302568E+03  0.93656322675E+01  0.10523576855E+04  0.11602624404E+04  0.00000000000E+00 0.  1.
        -11    1    3    3    0    0 -0.22389068609E+03 -0.57620747298E+02  0.44909658267E+03  0.50510883026E+03  0.00000000000E+00 0. -1.
         22    1    1    2    0    0  0.71242371177E+03  0.48255115030E+02  0.35992652251E+03  0.79963942051E+03  0.00000000000E+00 0.  1.
<mgrwt>
<rscale>  0 0.16160258E+04</rscale>
<asrwt>0</asrwt>
<pdfrwt beam="1">  1        2 0.33279933E+00 0.16160258E+04</pdfrwt>
<pdfrwt beam="2">  1       -2 0.46433071E-01 0.16160258E+04</pdfrwt>
<totfact> 0.22823120E+01</totfact>
</mgrwt>
</event>
<event>
 6    1  0.5026615E-004  0.2659578E+04  0.7818608E-02  0.8348241E-01
         -1   -1    0    0    0  501 -0.00000000000E+00  0.00000000000E+00  0.16717234446E+04  0.16717234446E+04  0.00000000000E+00 0. -1.
          1   -1    0    0  501    0  0.00000000000E+00 -0.00000000000E+00 -0.10577941193E+04  0.10577941193E+04  0.00000000000E+00 0.  1.
         23    2    1    2    0    0 -0.12933463271E+04 -0.30199247571E+03  0.29139558455E+03  0.13627797723E+04  0.91176442592E+02 0.  0.
         13    1    3    3    0    0 -0.53021982203E+03 -0.78320966093E+02  0.12357598530E+03  0.55003477849E+03  0.00000000000E+00 0. -1.
        -13    1    3    3    0    0 -0.76312650511E+03 -0.22367150961E+03  0.16781959925E+03  0.81274499377E+03  0.00000000000E+00 0.  1.
         22    1    1    2    0    0  0.12933463271E+04  0.30199247571E+03  0.32253374075E+03  0.13667377917E+04  0.00000000000E+00 0. -1.
<mgrwt>
<rscale>  0 0.26595783E+04</rscale>
<asrwt>0</asrwt>
<pdfrwt beam="1">  1        1 0.16273756E+00 0.26595783E+04</pdfrwt>
<pdfrwt beam="2">  1       -1 0.25718822E+00 0.26595783E+04</pdfrwt>
<totfact> 0.74847410E-01</totfact>
</mgrwt>
</event>
<event>
 6    1  0.5055439E-004  0.1720798E+04  0.7818608E-02  0.8749591E-01
         -2   -1    0    0    0  501 -0.00000000000E+00  0.00000000000E+00  0.99876228310E+03  0.99876228310E+03  0.00000000000E+00 0. -1.
          2   -1    0    0  501    0  0.00000000000E+00 -0.00000000000E+00 -0.74120395022E+03  0.74120395022E+03  0.00000000000E+00 0.  1.
         23    2    1    2    0    0  0.29672647952E+03  0.75379999355E+02  0.93962138493E+03  0.99234416642E+03  0.90165678876E+02 0.  0.
         13    1    3    3    0    0  0.10347944832E+03  0.29094466262E+02  0.47503629373E+03  0.48704616265E+03  0.00000000000E+00 0. -1.
        -13    1    3    3    0    0  0.19324703121E+03  0.46285533093E+02  0.46458509120E+03  0.50529800376E+03  0.00000000000E+00 0.  1.
         22    1    1    2    0    0 -0.29672647952E+03 -0.75379999355E+02 -0.68206305205E+03  0.74762206690E+03  0.00000000000E+00 0.  1.
<mgrwt>
<rscale>  0 0.17207981E+04</rscale>
<asrwt>0</asrwt>
<pdfrwt beam="1">  1        2 0.11403138E+00 0.17207981E+04</pdfrwt>
<pdfrwt beam="2">  1       -2 0.15365574E+00 0.17207981E+04</pdfrwt>
<totfact> 0.10159776E+01</totfact>
</mgrwt>
</event>
<event>
 6    1  0.5026615E-004  0.2740619E+04  0.7818608E-02  0.8321945E-01
          2   -1    0    0  501    0  0.00000000000E+00  0.00000000000E+00  0.16727807297E+04  0.16727807297E+04  0.00000000000E+00 0.  1.
         -2   -1    0    0    0  501 -0.00000000000E+00 -0.00000000000E+00 -0.11225308364E+04  0.11225308364E+04  0.00000000000E+00 0. -1.
         23    2    1    2    0    0  0.62658353027E+02  0.49138538373E+03 -0.10260507421E+04  0.11430073091E+04  0.91103889692E+02 0.  0.
         13    1    3    3    0    0  0.66731971278E+02  0.29688351211E+03 -0.70084876288E+03  0.76405625721E+03  0.00000000000E+00 0. -1.
        -13    1    3    3    0    0 -0.40736182518E+01  0.19450187162E+03 -0.32520197920E+03  0.37895105186E+03  0.00000000000E+00 0.  1.
         22    1    1    2    0    0 -0.62658353027E+02 -0.49138538373E+03  0.15763006354E+04  0.16523042570E+04  0.00000000000E+00 0.  1.
<mgrwt>
<rscale>  0 0.27406189E+04</rscale>
<asrwt>0</asrwt>
<pdfrwt beam="1">  1        2 0.25735088E+00 0.27406189E+04</pdfrwt>
<pdfrwt beam="2">  1       -2 0.17269705E+00 0.27406189E+04</pdfrwt>
<totfact> 0.18113701E+00</totfact>
</mgrwt>
</event>
<event>
 6    1  0.5026615E-004  0.4397796E+04  0.7818608E-02  0.7928778E-01
          2   -1    0    0  501    0  0.00000000000E+00  0.00000000000E+00  0.20982981710E+04  0.20982981710E+04  0.00000000000E+00 0.  1.
         -2   -1    0    0    0  501 -0.00000000000E+00 -0.00000000000E+00 -0.23043207710E+04  0.23043207710E+04  0.00000000000E+00 0. -1.
         23    2    1    2    0    0  0.84226580189E+03 -0.93860605999E+03 -0.19052182674E+04  0.22865709906E+04  0.90317395242E+02 0.  0.
         11    1    3    3    0    0  0.37275404625E+03 -0.35848924218E+03 -0.82163025427E+03  0.97084313383E+03  0.00000000000E+00 0. -1.
        -11    1    3    3    0    0  0.46951175563E+03 -0.58011681781E+03 -0.10835880131E+04  0.13157278568E+04  0.00000000000E+00 0.  1.
         22    1    1    2    0    0 -0.84226580189E+03  0.93860605999E+03  0.16991956673E+04  0.21160479514E+04  0.00000000000E+00 0.  1.
<mgrwt>
<rscale>  0 0.43977958E+04</rscale>
<asrwt>0</asrwt>
<pdfrwt beam="1">  1        2 0.32281510E+00 0.43977958E+04</pdfrwt>
<pdfrwt beam="2">  1       -2 0.35451089E+00 0.43977958E+04</pdfrwt>
<totfact> 0.65544434E-02</totfact>
</mgrwt>
</event>
<event>
 6    1  0.5026615E-004  0.1904951E+04  0.7818608E-02  0.8652396E-01
          2   -1    0    0  501    0  0.00000000000E+00  0.00000000000E+00  0.23578689422E+04  0.23578689422E+04  0.00000000000E+00 0.  1.
         -2   -1    0    0    0  501 -0.00000000000E+00 -0.00000000000E+00 -0.38475844362E+03  0.38475844362E+03  0.00000000000E+00 0. -1.
         23    2    1    2    0    0 -0.49009933653E+03 -0.77052511432E+03  0.13671836510E+04  0.16467014504E+04  0.92348359238E+02 0.  0.
         11    1    3    3    0    0 -0.33634203475E+03 -0.47009991145E+03  0.80576500323E+03  0.99165373569E+03  0.00000000000E+00 0. -1.
        -11    1    3    3    0    0 -0.15375730179E+03 -0.30042520287E+03  0.56141864782E+03  0.65504771467E+03  0.00000000000E+00 0.  1.
         22    1    1    2    0    0  0.49009933653E+03  0.77052511432E+03  0.60592684755E+03  0.10959259355E+04  0.00000000000E+00 0. -1.
<mgrwt>
<rscale>  0 0.19049514E+04</rscale>
<asrwt>0</asrwt>
<pdfrwt beam="1">  1        2 0.36274906E+00 0.19049514E+04</pdfrwt>
<pdfrwt beam="2">  1       -2 0.59193608E-01 0.19049514E+04</pdfrwt>
<totfact> 0.10489753E+01</totfact>
</mgrwt>
</event>
<event>
 6    1  0.5026615E-004  0.1458309E+04  0.7818608E-02  0.8912660E-01
         -2   -1    0    0    0  501 -0.00000000000E+00  0.00000000000E+00  0.52982411048E+03  0.52982411048E+03  0.00000000000E+00 0. -1.
          2   -1    0    0  501    0  0.00000000000E+00 -0.00000000000E+00 -0.10034767130E+04  0.10034767130E+04  0.00000000000E+00 0.  1.
         23    2    1    2    0    0  0.35998541854E+03  0.31860609945E+02  0.42496133576E+03  0.56473920433E+03  0.87941071133E+02 0.  0.
         11    1    3    3    0    0  0.13480217535E+03 -0.23211560255E+02  0.19513972863E+03  0.23830635052E+03  0.00000000000E+00 0.  1.
        -11    1    3    3    0    0  0.22518324319E+03  0.55072170200E+02  0.22982160712E+03  0.32643285380E+03  0.00000000000E+00 0. -1.
         22    1    1    2    0    0 -0.35998541854E+03 -0.31860609945E+02 -0.89861393829E+03  0.96856161916E+03  0.00000000000E+00 0.  1.
<mgrwt>
<rscale>  0 0.14583088E+04</rscale>
<asrwt>0</asrwt>
<pdfrwt beam="1">  1        2 0.15438103E+00 0.14583088E+04</pdfrwt>
<pdfrwt beam="2">  1       -2 0.81511402E-01 0.14583088E+04</pdfrwt>
<totfact> 0.32191964E+01</totfact>
</mgrwt>
</event>
<event>
 6    1  0.5026615E-004  0.3871417E+04  0.7818608E-02  0.8031000E-01
         -1   -1    0    0    0  501 -0.00000000000E+00  0.00000000000E+00  0.13272327518E+04  0.13272327518E+04  0.00000000000E+00 0. -1.
          1   -1    0    0  501    0  0.00000000000E+00 -0.00000000000E+00 -0.28231423893E+04  0.28231423893E+04  0.00000000000E+00 0.  1.
         23    2    1    2    0    0 -0.52382347320E+03 -0.47135287993E+02  0.12475307646E+04  0.13569761353E+04  0.91861073090E+02 0.  0.
         13    1    3    3    0    0 -0.11701895043E+03  0.17519695908E+02  0.34943624425E+03  0.36892555252E+03  0.00000000000E+00 0. -1.
        -13    1    3    3    0    0 -0.40680452277E+03 -0.64654983902E+02  0.89809452030E+03  0.98805058276E+03  0.00000000000E+00 0.  1.
         22    1    1    2    0    0  0.52382347320E+03  0.47135287993E+02 -0.27434404020E+04  0.27933990058E+04  0.00000000000E+00 0.  1.
<mgrwt>
<rscale>  0 0.38714168E+04</rscale>
<asrwt>0</asrwt>
<pdfrwt beam="1">  1        1 0.43432960E+00 0.38714168E+04</pdfrwt>
<pdfrwt beam="2">  1       -1 0.20418965E+00 0.38714168E+04</pdfrwt>
<totfact> 0.89341512E-02</totfact>
</mgrwt>
</event>
<event>
 6    1  0.5026615E-004  0.2716357E+04  0.7818608E-02  0.8329717E-01
          2   -1    0    0  501    0  0.00000000000E+00  0.00000000000E+00  0.28169661484E+04  0.28169661484E+04  0.00000000000E+00 0.  1.
         -2   -1    0    0    0  501 -0.00000000000E+00 -0.00000000000E+00 -0.65483530215E+03  0.65483530215E+03  0.00000000000E+00 0. -1.
         23    2    1    2    0    0 -0.47790286822E+03  0.86810798445E+03 -0.10197595188E+03  0.10003277571E+04  0.90850991952E+02 0.  0.
         11    1    3    3    0    0 -0.70684753715E+02  0.10619810342E+03  0.15350690161E+02  0.12849130424E+03  0.00000000000E+00 0.  1.
        -11    1    3    3    0    0 -0.40721811450E+03  0.76190988103E+03 -0.11732664204E+03  0.87183645285E+03  0.00000000000E+00 0. -1.
         22    1    1    2    0    0  0.47790286822E+03 -0.86810798445E+03  0.22641067981E+04  0.24714736934E+04  0.00000000000E+00 0.  1.
<mgrwt>
<rscale>  0 0.27163570E+04</rscale>
<asrwt>0</asrwt>
<pdfrwt beam="1">  1        2 0.43337940E+00 0.27163570E+04</pdfrwt>
<pdfrwt beam="2">  1       -2 0.10074389E+00 0.27163570E+04</pdfrwt>
<totfact> 0.16052084E+00</totfact>
</mgrwt>
</event>
<event>
 6    1  0.5026615E-004  0.1831933E+04  0.7818608E-02  0.8689500E-01
         -2   -1    0    0    0  501 -0.00000000000E+00  0.00000000000E+00  0.67038692706E+03  0.67038692706E+03  0.00000000000E+00 0. -1.
          2   -1    0    0  501    0  0.00000000000E+00 -0.00000000000E+00 -0.12515079654E+04  0.12515079654E+04  0.00000000000E+00 0.  1.
         23    2    1    2    0    0  0.44493115431E+03  0.46448771746E+03 -0.97209258267E+03  0.11691855726E+04  0.91204945937E+02 0.  0.
         11    1    3    3    0    0  0.22085598056E+03  0.23918128771E+03 -0.57318163527E+03  0.65918300915E+03  0.00000000000E+00 0. -1.
        -11    1    3    3    0    0  0.22407517375E+03  0.22530642975E+03 -0.39891094740E+03  0.51000256346E+03  0.00000000000E+00 0.  1.
         22    1    1    2    0    0 -0.44493115431E+03 -0.46448771746E+03  0.39097154432E+03  0.75270931986E+03  0.00000000000E+00 0. -1.
<mgrwt>
<rscale>  0 0.18319329E+04</rscale>
<asrwt>0</asrwt>
<pdfrwt beam="1">  1        2 0.19253969E+00 0.18319329E+04</pdfrwt>
<pdfrwt beam="2">  1       -2 0.10313645E+00 0.18319329E+04</pdfrwt>
<totfact> 0.12756765E+01</totfact>
</mgrwt>
</event>
<event>
 6    1  0.5026615E-004  0.1189299E+04  0.7818608E-02  0.9122275E-01
         -2   -1    0    0    0  501 -0.00000000000E+00  0.00000000000E+00  0.33268159612E+03  0.33268159612E+03  0.00000000000E+00 0. -1.
          2   -1    0    0  501    0  0.00000000000E+00 -0.00000000000E+00 -0.10629025063E+04  0.10629025063E+04  0.00000000000E+00 0.  1.
         23    2    1    2    0    0 -0.52084864435E+03 -0.23726470891E+03 -0.19383704625E+03  0.61118273710E+03  0.91617057392E+02 0.  0.
         13    1    3    3    0    0 -0.30880517795E+03 -0.14884192430E+03 -0.68871964137E+02  0.34965397724E+03  0.00000000000E+00 0. -1.
        -13    1    3    3    0    0 -0.21204346641E+03 -0.88422784612E+02 -0.12496508211E+03  0.26152875985E+03  0.00000000000E+00 0.  1.
         22    1    1    2    0    0  0.52084864435E+03  0.23726470891E+03 -0.53638386392E+03  0.78440136531E+03  0.00000000000E+00 0. -1.
<mgrwt>
<rscale>  0 0.11892991E+04</rscale>
<asrwt>0</asrwt>
<pdfrwt beam="1">  1        2 0.16352347E+00 0.11892991E+04</pdfrwt>
<pdfrwt beam="2">  1       -2 0.51181783E-01 0.11892991E+04</pdfrwt>
<totfact> 0.81826759E+01</totfact>
</mgrwt>
</event>
<event>
 6    1  0.5026615E-004  0.6523371E+04  0.7818608E-02  0.7628693E-01
         -2   -1    0    0    0  501 -0.00000000000E+00  0.00000000000E+00  0.27085641901E+04  0.27085641901E+04  0.00000000000E+00 0. -1.
          2   -1    0    0  501    0  0.00000000000E+00 -0.00000000000E+00 -0.39277612730E+04  0.39277612730E+04  0.00000000000E+00 0.  1.
         23    2    1    2    0    0  0.92134627190E+03 -0.23557537745E+04 -0.27035033820E+04  0.37034736106E+04  0.91276772248E+02 0.  0.
         11    1    3    3    0    0  0.22055867752E+03 -0.48572478351E+03 -0.60541781601E+03  0.80691104062E+03  0.00000000000E+00 0.  1.
        -11    1    3    3    0    0  0.70078759439E+03 -0.18700289910E+04 -0.20980855660E+04  0.28965625700E+04  0.00000000000E+00 0. -1.
         22    1    1    2    0    0 -0.92134627190E+03  0.23557537745E+04  0.14843062991E+04  0.29328518524E+04  0.00000000000E+00 0. -1.
<mgrwt>
<rscale>  0 0.65233714E+04</rscale>
<asrwt>0</asrwt>
<pdfrwt beam="1">  1        2 0.60427096E+00 0.65233714E+04</pdfrwt>
<pdfrwt beam="2">  1       -2 0.41670219E+00 0.65233714E+04</pdfrwt>
<totfact> 0.14532337E-03</totfact>
</mgrwt>
</event>
<event>
 6    1  0.5026615E-004  0.1741751E+04  0.7818608E-02  0.8737904E-01
         -2   -1    0    0    0  501 -0.00000000000E+00  0.00000000000E+00  0.26658782901E+03  0.26658782901E+03  0.00000000000E+00 0. -1.
          2   -1    0    0  501    0  0.00000000000E+00 -0.00000000000E+00 -0.28449319172E+04  0.28449319172E+04  0.00000000000E+00 0.  1.
         23    2    1    2    0    0  0.27272148949E+03  0.64674701853E+03 -0.37921060635E+03  0.80309023944E+03  0.92165784941E+02 0.  0.
         11    1    3    3    0    0  0.69445598090E+02  0.27537712691E+03 -0.16795807988E+03  0.32994722263E+03  0.00000000000E+00 0. -1.
        -11    1    3    3    0    0  0.20327589140E+03  0.37136989162E+03 -0.21125252646E+03  0.47314301681E+03  0.00000000000E+00 0.  1.
         22    1    1    2    0    0 -0.27272148949E+03 -0.64674701853E+03 -0.21991334819E+04  0.23084295068E+04  0.00000000000E+00 0.  1.
<mgrwt>
<rscale>  0 0.17417511E+04</rscale>
<asrwt>0</asrwt>
<pdfrwt beam="1">  1        2 0.43768184E+00 0.17417511E+04</pdfrwt>
<pdfrwt beam="2">  1       -2 0.41013511E-01 0.17417511E+04</pdfrwt>
<totfact> 0.11634531E+01</totfact>
</mgrwt>
</event>
<event>
 6    1  0.5026615E-004  0.2861830E+04  0.7818608E-02  0.8284326E-01
         -2   -1    0    0    0  501 -0.00000000000E+00  0.00000000000E+00  0.51112564980E+03  0.51112564980E+03  0.00000000000E+00 0. -1.
          2   -1    0    0  501    0  0.00000000000E+00 -0.00000000000E+00 -0.40058977384E+04  0.40058977384E+04  0.00000000000E+00 0.  1.
         23    2    1    2    0    0 -0.12231652095E+04  0.72834361148E+03 -0.19528569228E+04  0.24184238731E+04  0.92229728537E+02 0.  0.
         11    1    3    3    0    0 -0.30250729944E+03  0.20774525084E+03 -0.44902528286E+03  0.57990728579E+03  0.00000000000E+00 0. -1.
        -11    1    3    3    0    0 -0.92065791011E+03  0.52059836064E+03 -0.15038316400E+04  0.18385165873E+04  0.00000000000E+00 0.  1.
         22    1    1    2    0    0  0.12231652095E+04 -0.72834361148E+03 -0.15419151658E+04  0.20985995151E+04  0.00000000000E+00 0. -1.
<mgrwt>
<rscale>  0 0.28618295E+04</rscale>
<asrwt>0</asrwt>
<pdfrwt beam="1">  1        2 0.61629196E+00 0.28618295E+04</pdfrwt>
<pdfrwt beam="2">  1       -2 0.78634715E-01 0.28618295E+04</pdfrwt>
<totfact> 0.42103875E-01</totfact>
</mgrwt>
</event>
<event>
 6    1  0.5026615E-004  0.1492663E+04  0.7818608E-02  0.8889346E-01
         -2   -1    0    0    0  501 -0.00000000000E+00  0.00000000000E+00  0.88040878829E+03  0.88040878829E+03  0.00000000000E+00 0. -1.
          2   -1    0    0  501    0  0.00000000000E+00 -0.00000000000E+00 -0.63267316384E+03  0.63267316384E+03  0.00000000000E+00 0.  1.
         23    2    1    2    0    0 -0.52538553030E+03 -0.43608975301E+03 -0.17396941283E+03  0.71056131900E+03  0.91803068211E+02 0.  0.
         13    1    3    3    0    0 -0.16867023898E+03 -0.87093016337E+02 -0.43640851863E+02  0.19478030435E+03  0.00000000000E+00 0.  1.
        -13    1    3    3    0    0 -0.35671529132E+03 -0.34899673667E+03 -0.13032856097E+03  0.51578101465E+03  0.00000000000E+00 0. -1.
         22    1    1    2    0    0  0.52538553030E+03  0.43608975301E+03  0.42170503728E+03  0.80252063313E+03  0.00000000000E+00 0. -1.
<mgrwt>
<rscale>  0 0.14926634E+04</rscale>
<asrwt>0</asrwt>
<pdfrwt beam="1">  1        2 0.97334332E-01 0.14926634E+04</pdfrwt>
<pdfrwt beam="2">  1       -2 0.13544751E+00 0.14926634E+04</pdfrwt>
<totfact> 0.17571907E+01</totfact>
</mgrwt>
</event>
<event>
 6    1  0.5026615E-004  0.1758366E+04  0.7818608E-02  0.8728759E-01
          2   -1    0    0  501    0  0.00000000000E+00  0.00000000000E+00  0.15123207587E+04  0.15123207587E+04  0.00000000000E+00 0.  1.
         -2   -1    0    0    0  501 -0.00000000000E+00 -0.00000000000E+00 -0.51111038093E+03  0.51111038093E+03  0.00000000000E+00 0. -1.
         23    2    1    2    0    0 -0.78247093342E+03  0.29595741134E+03  0.19962120263E+03  0.86481267064E+03  0.90558156935E+02 0.  0.
         13    1    3    3    0    0 -0.62552718026E+03  0.26449719991E+03  0.18605508269E+03  0.70417293032E+03  0.00000000000E+00 0. -1.
        -13    1    3    3    0    0 -0.15694375316E+03  0.31460211430E+02  0.13566119940E+02  0.16063974032E+03  0.00000000000E+00 0.  1.
         22    1    1    2    0    0  0.78247093342E+03 -0.29595741134E+03  0.80158917514E+03  0.11586184690E+04  0.00000000000E+00 0.  1.
<mgrwt>
<rscale>  0 0.17583661E+04</rscale>
<asrwt>0</asrwt>
<pdfrwt beam="1">  1        2 0.23266473E+00 0.17583661E+04</pdfrwt>
<pdfrwt beam="2">  1       -2 0.78632367E-01 0.17583661E+04</pdfrwt>
<totfact> 0.17001568E+01</totfact>
</mgrwt>
</event>
<event>
 6    1  0.5026615E-004  0.8314112E+03  0.7818608E-02  0.9515632E-01
         -2   -1    0    0    0  501 -0.00000000000E+00  0.00000000000E+00  0.43871266295E+03  0.43871266295E+03  0.00000000000E+00 0. -1.
          2   -1    0    0  501    0  0.00000000000E+00 -0.00000000000E+00 -0.39390504172E+03  0.39390504172E+03  0.00000000000E+00 0.  1.
         23    2    1    2    0    0 -0.25197511370E+03 -0.14046802214E+03 -0.27001869407E+03  0.40560677744E+03  0.91564401330E+02 0.  0.
         11    1    3    3    0    0 -0.12019815809E+03 -0.16480032258E+02 -0.11875403682E+03  0.16976957894E+03  0.00000000000E+00 0. -1.
        -11    1    3    3    0    0 -0.13177695561E+03 -0.12398798988E+03 -0.15126465725E+03  0.23583719850E+03  0.00000000000E+00 0.  1.
         22    1    1    2    0    0  0.25197511370E+03  0.14046802214E+03  0.31482631529E+03  0.42701092723E+03  0.00000000000E+00 0. -1.
<mgrwt>
<rscale>  0 0.83141116E+03</rscale>
<asrwt>0</asrwt>
<pdfrwt beam="1">  1        2 0.60600776E-01 0.83141116E+03</pdfrwt>
<pdfrwt beam="2">  1       -2 0.67494256E-01 0.83141116E+03</pdfrwt>
<totfact> 0.16393069E+02</totfact>
</mgrwt>
</event>
<event>
 6    1  0.5026615E-004  0.9010893E+03  0.7818608E-02  0.9424221E-01
          2   -1    0    0  501    0  0.00000000000E+00  0.00000000000E+00  0.15348863506E+04  0.15348863506E+04  0.00000000000E+00 0.  1.
         -2   -1    0    0    0  501 -0.00000000000E+00 -0.00000000000E+00 -0.13225113625E+03  0.13225113625E+03  0.00000000000E+00 0. -1.
         23    2    1    2    0    0 -0.37367329745E+03  0.15428617355E+03  0.10566673898E+04  0.11350381614E+04  0.91267182095E+02 0.  0.
         13    1    3    3    0    0 -0.88825353503E+02 -0.33287609404E+01  0.22317277547E+03  0.24022304591E+03  0.00000000000E+00 0.  1.
        -13    1    3    3    0    0 -0.28484794394E+03  0.15761493449E+03  0.83349461431E+03  0.89481511544E+03  0.00000000000E+00 0. -1.
         22    1    1    2    0    0  0.37367329745E+03 -0.15428617355E+03  0.34596782462E+03  0.53209932554E+03  0.00000000000E+00 0. -1.
<mgrwt>
<rscale>  0 0.90108926E+03</rscale>
<asrwt>0</asrwt>
<pdfrwt beam="1">  1        2 0.23613635E+00 0.90108926E+03</pdfrwt>
<pdfrwt beam="2">  1       -2 0.20346330E-01 0.90108926E+03</pdfrwt>
<totfact> 0.25230788E+02</totfact>
</mgrwt>
</event>
<event>
 6    1  0.5026615E-004  0.3297045E+04  0.7818608E-02  0.8163648E-01
          2   -1    0    0  501    0  0.00000000000E+00  0.00000000000E+00  0.30025071271E+04  0.30025071271E+04  0.00000000000E+00 0.  1.
         -2   -1    0    0    0  501 -0.00000000000E+00 -0.00000000000E+00 -0.90511918108E+03  0.90511918108E+03  0.00000000000E+00 0. -1.
         23    2    1    2    0    0  0.39189448875E+03  0.10586724171E+04 -0.37236359809E+03  0.11921077082E+04  0.89986452985E+02 0.  0.
         11    1    3    3    0    0  0.21131841726E+03  0.68318636498E+03 -0.25526384520E+03  0.75931463402E+03  0.00000000000E+00 0. -1.
        -11    1    3    3    0    0  0.18057607149E+03  0.37548605214E+03 -0.11709975290E+03  0.43279307420E+03  0.00000000000E+00 0.  1.
         22    1    1    2    0    0 -0.39189448875E+03 -0.10586724171E+04  0.24697515441E+04  0.27155186000E+04  0.00000000000E+00 0.  1.
<mgrwt>
<rscale>  0 0.32970452E+04</rscale>
<asrwt>0</asrwt>
<pdfrwt beam="1">  1        2 0.46192417E+00 0.32970452E+04</pdfrwt>
<pdfrwt beam="2">  1       -2 0.13924911E+00 0.32970452E+04</pdfrwt>
<totfact> 0.52747894E-01</totfact>
</mgrwt>
</event>
<event>
 6    1  0.5026615E-004  0.6796761E+03  0.7818608E-02  0.9752634E-01
         -2   -1    0    0    0  501 -0.00000000000E+00  0.00000000000E+00  0.53185508731E+03  0.53185508731E+03  0.00000000000E+00 0. -1.
          2   -1    0    0  501    0  0.00000000000E+00 -0.00000000000E+00 -0.21714544996E+03  0.21714544996E+03  0.00000000000E+00 0.  1.
         23    2    1    2    0    0 -0.30781633539E+03 -0.12833970639E+03  0.17562110523E+03  0.38765915252E+03  0.90635916507E+02 0.  0.
         13    1    3    3    0    0 -0.17014745528E+03 -0.21898195028E+02  0.89597751393E+02  0.19353925839E+03  0.00000000000E+00 0.  1.
        -13    1    3    3    0    0 -0.13766888011E+03 -0.10644151136E+03  0.86023353836E+02  0.19411989413E+03  0.00000000000E+00 0. -1.
         22    1    1    2    0    0  0.30781633539E+03  0.12833970639E+03  0.13908853213E+03  0.36134138476E+03  0.00000000000E+00 0.  1.
<mgrwt>
<rscale>  0 0.67967614E+03</rscale>
<asrwt>0</asrwt>
<pdfrwt beam="1">  1        2 0.33406992E-01 0.67967614E+03</pdfrwt>
<pdfrwt beam="2">  1       -2 0.81823859E-01 0.67967614E+03</pdfrwt>
<totfact> 0.20920949E+02</totfact>
</mgrwt>
</event>
<event>
 6    1  0.5026615E-004  0.3231793E+04  0.7818608E-02  0.8180471E-01
          2   -1    0    0  501    0  0.00000000000E+00  0.00000000000E+00  0.20513994986E+04  0.20513994986E+04  0.00000000000E+00 0.  1.
         -2   -1    0    0    0  501 -0.00000000000E+00 -0.00000000000E+00 -0.12728491902E+04  0.12728491902E+04  0.00000000000E+00 0. -1.
         23    2    1    2    0    0 -0.34986914528E+03 -0.73831774840E+03  0.18220769926E+04  0.19989300641E+04  0.90748650477E+02 0.  0.
         11    1    3    3    0    0 -0.78044229734E+02 -0.21151465313E+03  0.59158440678E+03  0.63308882523E+03  0.00000000000E+00 0. -1.
        -11    1    3    3    0    0 -0.27182491555E+03 -0.52680309527E+03  0.12304925859E+04  0.13658412389E+04  0.00000000000E+00 0.  1.
         22    1    1    2    0    0  0.34986914528E+03  0.73831774840E+03 -0.10435266842E+04  0.13253186247E+04  0.00000000000E+00 0. -1.
<mgrwt>
<rscale>  0 0.32317934E+04</rscale>
<asrwt>0</asrwt>
<pdfrwt beam="1">  1        2 0.31559992E+00 0.32317934E+04</pdfrwt>
<pdfrwt beam="2">  1       -2 0.19582295E+00 0.32317934E+04</pdfrwt>
<totfact> 0.74454160E-01</totfact>
</mgrwt>
</event>
<event>
 6    1  0.5026615E-004  0.1442082E+04  0.7818608E-02  0.8923908E-01
          2   -1    0    0  501    0  0.00000000000E+00  0.00000000000E+00  0.57358836237E+03  0.57358836237E+03  0.00000000000E+00 0.  1.
         -2   -1    0    0    0  501 -0.00000000000E+00 -0.00000000000E+00 -0.90639994057E+03  0.90639994057E+03  0.00000000000E+00 0. -1.
         23    2    1    2    0    0  0.15890397916E+03  0.67600713086E+03  0.19998209969E+02  0.70107183618E+03  0.94157716163E+02 0.  0.
         13    1    3    3    0    0  0.48527244603E+02  0.40518973723E+03  0.23312622479E+01  0.40809196440E+03  0.00000000000E+00 0. -1.
        -13    1    3    3    0    0  0.11037673456E+03  0.27081739363E+03  0.17666947721E+02  0.29297987177E+03  0.00000000000E+00 0.  1.
         22    1    1    2    0    0 -0.15890397916E+03 -0.67600713086E+03 -0.35280978818E+03  0.77891646676E+03  0.00000000000E+00 0. -1.
<mgrwt>
<rscale>  0 0.14420825E+04</rscale>
<asrwt>0</asrwt>
<pdfrwt beam="1">  1        2 0.88244363E-01 0.14420825E+04</pdfrwt>
<pdfrwt beam="2">  1       -2 0.13944614E+00 0.14420825E+04</pdfrwt>
<totfact> 0.18426115E+01</totfact>
</mgrwt>
</event>
<event>
 6    1  0.5026615E-004  0.2864995E+04  0.7818608E-02  0.8283369E-01
         -2   -1    0    0    0  501 -0.00000000000E+00  0.00000000000E+00  0.72804057676E+03  0.72804057676E+03  0.00000000000E+00 0. -1.
          2   -1    0    0  501    0  0.00000000000E+00 -0.00000000000E+00 -0.28185920730E+04  0.28185920730E+04  0.00000000000E+00 0.  1.
         23    2    1    2    0    0  0.23996609457E+03 -0.10149757598E+04  0.16681075682E+03  0.10599795053E+04  0.89281596646E+02 0.  0.
         13    1    3    3    0    0  0.11708379725E+03 -0.47636485434E+03  0.12340091143E+03  0.50582593347E+03  0.00000000000E+00 0. -1.
        -13    1    3    3    0    0  0.12288229732E+03 -0.53861090543E+03  0.43409845393E+02  0.55415357178E+03  0.00000000000E+00 0.  1.
         22    1    1    2    0    0 -0.23996609457E+03  0.10149757598E+04 -0.22573622530E+04  0.24866531445E+04  0.00000000000E+00 0.  1.
<mgrwt>
<rscale>  0 0.28649952E+04</rscale>
<asrwt>0</asrwt>
<pdfrwt beam="1">  1        2 0.43362954E+00 0.28649952E+04</pdfrwt>
<pdfrwt beam="2">  1       -2 0.11200624E+00 0.28649952E+04</pdfrwt>
<totfact> 0.12257857E+00</totfact>
</mgrwt>
</event>
<event>
 6    1  0.5026615E-004  0.2250311E+04  0.7818608E-02  0.8497775E-01
         -2   -1    0    0    0  501 -0.00000000000E+00  0.00000000000E+00  0.62875469180E+03  0.62875469180E+03  0.00000000000E+00 0. -1.
          2   -1    0    0  501    0  0.00000000000E+00 -0.00000000000E+00 -0.20134636806E+04  0.20134636806E+04  0.00000000000E+00 0.  1.
         23    2    1    2    0    0 -0.37249055442E+02 -0.10957509787E+04 -0.40506885729E+03  0.11719284395E+04  0.85309957118E+02 0.  0.
         13    1    3    3    0    0 -0.77859082260E+01 -0.43093278759E+03 -0.20328402095E+03  0.47653759658E+03  0.00000000000E+00 0. -1.
        -13    1    3    3    0    0 -0.29463147216E+02 -0.66481819112E+03 -0.20178483634E+03  0.69539084295E+03  0.00000000000E+00 0.  1.
         22    1    1    2    0    0  0.37249055442E+02  0.10957509787E+04 -0.97964013152E+03  0.14702899329E+04  0.00000000000E+00 0.  1.
<mgrwt>
<rscale>  0 0.22503109E+04</rscale>
<asrwt>0</asrwt>
<pdfrwt beam="1">  1        2 0.30976365E+00 0.22503109E+04</pdfrwt>
<pdfrwt beam="2">  1       -2 0.96731489E-01 0.22503109E+04</pdfrwt>
<totfact> 0.53399338E+00</totfact>
</mgrwt>
</event>
<event>
 6    1  0.5026615E-004  0.1800011E+04  0.7818608E-02  0.8706294E-01
         -2   -1    0    0    0  501 -0.00000000000E+00  0.00000000000E+00  0.73450984904E+03  0.73450984904E+03  0.00000000000E+00 0.  1.
          2   -1    0    0  501    0  0.00000000000E+00 -0.00000000000E+00 -0.11027895310E+04  0.11027895310E+04  0.00000000000E+00 0. -1.
         23    2    1    2    0    0  0.32892412360E+02  0.58710055364E+03 -0.87698325856E+03  0.10597723388E+04  0.90822923424E+02 0.  0.
         13    1    3    3    0    0  0.46294338162E+02  0.17298573845E+03 -0.23002962882E+03  0.29151477079E+03  0.00000000000E+00 0.  1.
        -13    1    3    3    0    0 -0.13401925802E+02  0.41411481519E+03 -0.64695362974E+03  0.76825756801E+03  0.00000000000E+00 0. -1.
         22    1    1    2    0    0 -0.32892412360E+02 -0.58710055364E+03  0.50870357665E+03  0.77752704118E+03  0.00000000000E+00 0.  1.
<mgrwt>
<rscale>  0 0.18000109E+04</rscale>
<asrwt>0</asrwt>
<pdfrwt beam="1">  1        2 0.16965993E+00 0.18000109E+04</pdfrwt>
<pdfrwt beam="2">  1       -2 0.11300152E+00 0.18000109E+04</pdfrwt>
<totfact> 0.12609420E+01</totfact>
</mgrwt>
</event>
<event>
 6    1  0.5026615E-004  0.5073431E+04  0.7818608E-02  0.7817279E-01
         -2   -1    0    0    0  501 -0.00000000000E+00  0.00000000000E+00  0.20671826663E+04  0.20671826663E+04  0.00000000000E+00 0. -1.
          2   -1    0    0  501    0  0.00000000000E+00 -0.00000000000E+00 -0.31128960647E+04  0.31128960647E+04  0.00000000000E+00 0.  1.
         23    2    1    2    0    0 -0.12038942490E+04  0.20315189637E+04 -0.14669700611E+04  0.27813524359E+04  0.86542186117E+02 0.  0.
         11    1    3    3    0    0 -0.10258135847E+04  0.17387685178E+04 -0.12890175536E+04  0.23952402223E+04  0.00000000000E+00 0. -1.
        -11    1    3    3    0    0 -0.17808066428E+03  0.29275044598E+03 -0.17795250742E+03  0.38611221363E+03  0.00000000000E+00 0.  1.
         22    1    1    2    0    0  0.12038942490E+04 -0.20315189637E+04  0.42125666263E+03  0.23987262950E+04  0.00000000000E+00 0. -1.
<mgrwt>
<rscale>  0 0.50734307E+04</rscale>
<asrwt>0</asrwt>
<pdfrwt beam="1">  1        2 0.47890708E+00 0.50734307E+04</pdfrwt>
<pdfrwt beam="2">  1       -2 0.31802810E+00 0.50734307E+04</pdfrwt>
<totfact> 0.26297526E-02</totfact>
</mgrwt>
</event>
<event>
 6    1  0.5026615E-004  0.2598698E+04  0.7818608E-02  0.8368644E-01
         -1   -1    0    0    0  501 -0.00000000000E+00  0.00000000000E+00  0.13432995851E+04  0.13432995851E+04  0.00000000000E+00 0.  1.
          1   -1    0    0  501    0  0.00000000000E+00 -0.00000000000E+00 -0.12568364630E+04  0.12568364630E+04  0.00000000000E+00 0. -1.
         23    2    1    2    0    0 -0.88028172261E+03 -0.15472514597E+03  0.98470383083E+03  0.13329848525E+04  0.91494264537E+02 0.  0.
         13    1    3    3    0    0 -0.49776428153E+03 -0.50535680986E+02  0.58952358920E+03  0.77321484547E+03  0.00000000000E+00 0. -1.
        -13    1    3    3    0    0 -0.38251744108E+03 -0.10418946498E+03  0.39518024163E+03  0.55977000698E+03  0.00000000000E+00 0.  1.
         22    1    1    2    0    0  0.88028172261E+03  0.15472514597E+03 -0.89824070875E+03  0.12671511957E+04  0.00000000000E+00 0. -1.
<mgrwt>
<rscale>  0 0.25986981E+04</rscale>
<asrwt>0</asrwt>
<pdfrwt beam="1">  1        1 0.19335946E+00 0.25986981E+04</pdfrwt>
<pdfrwt beam="2">  1       -1 0.20666148E+00 0.25986981E+04</pdfrwt>
<totfact> 0.11593271E+00</totfact>
</mgrwt>
</event>
<event>
 6    1  0.5026615E-004  0.1489732E+04  0.7818608E-02  0.8891310E-01
         -2   -1    0    0    0  501 -0.00000000000E+00  0.00000000000E+00  0.82856435421E+03  0.82856435421E+03  0.00000000000E+00 0. -1.
          2   -1    0    0  501    0  0.00000000000E+00 -0.00000000000E+00 -0.66962211817E+03  0.66962211817E+03  0.00000000000E+00 0.  1.
         23    2    1    2    0    0  0.16838480592E+03  0.11166325751E+03  0.79778671726E+03  0.82815334102E+03  0.92478019384E+02 0.  0.
         11    1    3    3    0    0  0.35556517608E+01  0.39648035034E+02  0.19859188828E+03  0.20254221148E+03  0.00000000000E+00 0. -1.
        -11    1    3    3    0    0  0.16482915416E+03  0.72015222477E+02  0.59919482898E+03  0.62561112954E+03  0.00000000000E+00 0.  1.
         22    1    1    2    0    0 -0.16838480592E+03 -0.11166325751E+03 -0.63884448122E+03  0.67003313136E+03  0.00000000000E+00 0.  1.
<mgrwt>
<rscale>  0 0.14897315E+04</rscale>
<asrwt>0</asrwt>
<pdfrwt beam="1">  1        2 0.10301879E+00 0.14897315E+04</pdfrwt>
<pdfrwt beam="2">  1       -2 0.12747144E+00 0.14897315E+04</pdfrwt>
<totfact> 0.19116374E+01</totfact>
</mgrwt>
</event>
<event>
 6    1  0.5026615E-004  0.2150182E+04  0.7818608E-02  0.8539455E-01
          2   -1    0    0  501    0  0.00000000000E+00  0.00000000000E+00  0.54194503832E+03  0.54194503832E+03  0.00000000000E+00 0.  1.
         -2   -1    0    0    0  501 -0.00000000000E+00 -0.00000000000E+00 -0.21327259439E+04  0.21327259439E+04  0.00000000000E+00 0. -1.
         23    2    1    2    0    0  0.34489324362E+03 -0.75501792707E+03  0.49331467984E+02  0.83647294674E+03  0.90829385142E+02 0.  0.
         13    1    3    3    0    0  0.11878051002E+03 -0.31069996493E+03  0.59067221023E+02  0.33783459617E+03  0.00000000000E+00 0. -1.
        -13    1    3    3    0    0  0.22611273360E+03 -0.44431796214E+03 -0.97357530386E+01  0.49863835057E+03  0.00000000000E+00 0.  1.
         22    1    1    2    0    0 -0.34489324362E+03  0.75501792707E+03 -0.16401123736E+04  0.18381980355E+04  0.00000000000E+00 0. -1.
<mgrwt>
<rscale>  0 0.21501816E+04</rscale>
<asrwt>0</asrwt>
<pdfrwt beam="1">  1        2 0.83376161E-01 0.21501816E+04</pdfrwt>
<pdfrwt beam="2">  1       -2 0.32811168E+00 0.21501816E+04</pdfrwt>
<totfact> 0.10979449E+00</totfact>
</mgrwt>
</event>
<event>
 6    1  0.5026615E-004  0.2525786E+04  0.7818608E-02  0.8393856E-01
          2   -1    0    0  501    0  0.00000000000E+00  0.00000000000E+00  0.17532341459E+04  0.17532341459E+04  0.00000000000E+00 0.  1.
         -2   -1    0    0    0  501 -0.00000000000E+00 -0.00000000000E+00 -0.90968951926E+03  0.90968951926E+03  0.00000000000E+00 0. -1.
         23    2    1    2    0    0 -0.50795536647E+03  0.75980664012E+03  0.13384796036E+04  0.16235558687E+04  0.95295461998E+02 0.  0.
         13    1    3    3    0    0 -0.20767220435E+03  0.23828094181E+03  0.49809953957E+03  0.58992262459E+03  0.00000000000E+00 0. -1.
        -13    1    3    3    0    0 -0.30028316212E+03  0.52152569831E+03  0.84038006400E+03  0.10336332442E+04  0.00000000000E+00 0.  1.
         22    1    1    2    0    0  0.50795536647E+03 -0.75980664012E+03 -0.49493497698E+03  0.10393677964E+04  0.00000000000E+00 0. -1.
<mgrwt>
<rscale>  0 0.25257860E+04</rscale>
<asrwt>0</asrwt>
<pdfrwt beam="1">  1        2 0.26972833E+00 0.25257860E+04</pdfrwt>
<pdfrwt beam="2">  1       -2 0.13995223E+00 0.25257860E+04</pdfrwt>
<totfact> 0.29311921E+00</totfact>
</mgrwt>
</event>
<event>
 6    1  0.5026615E-004  0.2143696E+04  0.7818608E-02  0.8542236E-01
         -2   -1    0    0    0  501 -0.00000000000E+00  0.00000000000E+00  0.40632837553E+03  0.40632837553E+03  0.00000000000E+00 0. -1.
          2   -1    0    0  501    0  0.00000000000E+00 -0.00000000000E+00 -0.28274124860E+04  0.28274124860E+04  0.00000000000E+00 0.  1.
         23    2    1    2    0    0  0.10649593334E+04  0.10489267324E+01 -0.13659745372E+04  0.17346092150E+04  0.94038345371E+02 0.  0.
         11    1    3    3    0    0  0.40069016437E+03  0.45433209253E+02 -0.52655738812E+03  0.66323409691E+03  0.00000000000E+00 0.  1.
        -11    1    3    3    0    0  0.66426916902E+03 -0.44384282521E+02 -0.83941714909E+03  0.10713751181E+04  0.00000000000E+00 0. -1.
         22    1    1    2    0    0 -0.10649593334E+04 -0.10489267324E+01 -0.10551095732E+04  0.14991316465E+04  0.00000000000E+00 0.  1.
<mgrwt>
<rscale>  0 0.21436958E+04</rscale>
<asrwt>0</asrwt>
<pdfrwt beam="1">  1        2 0.43498655E+00 0.21436958E+04</pdfrwt>
<pdfrwt beam="2">  1       -2 0.62512056E-01 0.21436958E+04</pdfrwt>
<totfact> 0.48554480E+00</totfact>
</mgrwt>
</event>
<event>
 6    1  0.5026615E-004  0.2773416E+04  0.7818608E-02  0.8311570E-01
          2   -1    0    0  501    0  0.00000000000E+00  0.00000000000E+00  0.12919062564E+04  0.12919062564E+04  0.00000000000E+00 0.  1.
         -2   -1    0    0    0  501 -0.00000000000E+00 -0.00000000000E+00 -0.14884660617E+04  0.14884660617E+04  0.00000000000E+00 0. -1.
         23    2    1    2    0    0  0.10299220220E+04  0.89408351712E+03  0.14471252887E+03  0.13744592649E+04  0.89843463454E+02 0.  0.
         11    1    3    3    0    0  0.72820539069E+03  0.64520244142E+03  0.63435470094E+02  0.97498376413E+03  0.00000000000E+00 0.  1.
        -11    1    3    3    0    0  0.30171663127E+03  0.24888107570E+03  0.81277058779E+02  0.39947550077E+03  0.00000000000E+00 0. -1.
         22    1    1    2    0    0 -0.10299220220E+04 -0.89408351712E+03 -0.34127233419E+03  0.14059130531E+04  0.00000000000E+00 0.  1.
<mgrwt>
<rscale>  0 0.27734157E+04</rscale>
<asrwt>0</asrwt>
<pdfrwt beam="1">  1        2 0.19875481E+00 0.27734157E+04</pdfrwt>
<pdfrwt beam="2">  1       -2 0.22899478E+00 0.27734157E+04</pdfrwt>
<totfact> 0.12642939E+00</totfact>
</mgrwt>
</event>
<event>
 6    1  0.5026615E-004  0.3959897E+04  0.7818608E-02  0.8012686E-01
         -2   -1    0    0    0  501 -0.00000000000E+00  0.00000000000E+00  0.26376987770E+04  0.26376987770E+04  0.00000000000E+00 0. -1.
          2   -1    0    0  501    0  0.00000000000E+00 -0.00000000000E+00 -0.14862182458E+04  0.14862182458E+04  0.00000000000E+00 0.  1.
         23    2    1    2    0    0  0.15061766964E+04 -0.92678104165E+02 -0.75638228685E+03  0.16914084403E+04  0.10766093197E+03 0.  0.
         13    1    3    3    0    0  0.11246755337E+04 -0.42009604860E+02 -0.60581743867E+03  0.12781528203E+04  0.00000000000E+00 0. -1.
        -13    1    3    3    0    0  0.38150116271E+03 -0.50668499305E+02 -0.15056484818E+03  0.41325562002E+03  0.00000000000E+00 0.  1.
         22    1    1    2    0    0 -0.15061766964E+04  0.92678104165E+02  0.19078628181E+04  0.24325085826E+04  0.00000000000E+00 0. -1.
<mgrwt>
<rscale>  0 0.39598970E+04</rscale>
<asrwt>0</asrwt>
<pdfrwt beam="1">  1        2 0.22864896E+00 0.39598970E+04</pdfrwt>
<pdfrwt beam="2">  1       -2 0.40579981E+00 0.39598970E+04</pdfrwt>
<totfact> 0.69520963E-02</totfact>
</mgrwt>
</event>
<event>
 6    1  0.5026615E-004  0.6132748E+03  0.7818608E-02  0.9878241E-01
         -2   -1    0    0    0  501 -0.00000000000E+00  0.00000000000E+00  0.36103160286E+03  0.36103160286E+03  0.00000000000E+00 0. -1.
          2   -1    0    0  501    0  0.00000000000E+00 -0.00000000000E+00 -0.26043842222E+03  0.26043842222E+03  0.00000000000E+00 0.  1.
         23    2    1    2    0    0  0.96694555076E+02  0.19144655708E+01 -0.23495595723E+03  0.27226131086E+03  0.97818287628E+02 0.  0.
         13    1    3    3    0    0  0.12078960831E+02  0.33308228723E+02 -0.12544646665E+03  0.13035396193E+03  0.00000000000E+00 0.  1.
        -13    1    3    3    0    0  0.84615594245E+02 -0.31393763152E+02 -0.10950949058E+03  0.14190734894E+03  0.00000000000E+00 0. -1.
         22    1    1    2    0    0 -0.96694555076E+02 -0.19144655708E+01  0.33554913787E+03  0.34920871422E+03  0.00000000000E+00 0. -1.
<mgrwt>
<rscale>  0 0.61327482E+03</rscale>
<asrwt>0</asrwt>
<pdfrwt beam="1">  1        2 0.40067449E-01 0.61327482E+03</pdfrwt>
<pdfrwt beam="2">  1       -2 0.55543324E-01 0.61327482E+03</pdfrwt>
<totfact> 0.39530767E+02</totfact>
</mgrwt>
</event>
<event>
 6    1  0.5026615E-004  0.2994463E+04  0.7818608E-02  0.8245314E-01
         -2   -1    0    0    0  501 -0.00000000000E+00  0.00000000000E+00  0.69303267332E+03  0.69303267332E+03  0.00000000000E+00 0. -1.
          2   -1    0    0  501    0  0.00000000000E+00 -0.00000000000E+00 -0.32346275534E+04  0.32346275534E+04  0.00000000000E+00 0.  1.
         23    2    1    2    0    0 -0.42075273173E+02 -0.53128115530E+03  0.56174686850E+03  0.77888903733E+03  0.84134378365E+02 0.  0.
         13    1    3    3    0    0  0.13704334963E+02 -0.33419799764E+03  0.35964241908E+03  0.49114028548E+03  0.00000000000E+00 0. -1.
        -13    1    3    3    0    0 -0.55779608136E+02 -0.19708315766E+03  0.20210444942E+03  0.28774875185E+03  0.00000000000E+00 0.  1.
         22    1    1    2    0    0  0.42075273173E+02  0.53128115530E+03 -0.31033417486E+04  0.31487711894E+04  0.00000000000E+00 0.  1.
<mgrwt>
<rscale>  0 0.29944633E+04</rscale>
<asrwt>0</asrwt>
<pdfrwt beam="1">  1        2 0.49763501E+00 0.29944633E+04</pdfrwt>
<pdfrwt beam="2">  1       -2 0.10662041E+00 0.29944633E+04</pdfrwt>
<totfact> 0.74619967E-01</totfact>
</mgrwt>
</event>
<event>
 6    1  0.5026615E-004  0.3187844E+04  0.7818608E-02  0.8192035E-01
         -2   -1    0    0    0  501 -0.00000000000E+00  0.00000000000E+00  0.10761674857E+04  0.10761674857E+04  0.00000000000E+00 0. -1.
          2   -1    0    0  501    0  0.00000000000E+00 -0.00000000000E+00 -0.23607728951E+04  0.23607728951E+04  0.00000000000E+00 0.  1.
         23    2    1    2    0    0 -0.13859405458E+04 -0.52224156495E+03 -0.11330206540E+02  0.14837898001E+04  0.89086187035E+02 0.  0.
         13    1    3    3    0    0 -0.18159023643E+03 -0.99867991876E+02  0.76378292937E+01  0.20738120987E+03  0.00000000000E+00 0. -1.
        -13    1    3    3    0    0 -0.12043503094E+04 -0.42237357308E+03 -0.18968035834E+02  0.12764085903E+04  0.00000000000E+00 0.  1.
         22    1    1    2    0    0  0.13859405458E+04  0.52224156495E+03 -0.12732752029E+04  0.19531505807E+04  0.00000000000E+00 0.  1.
<mgrwt>
<rscale>  0 0.31878438E+04</rscale>
<asrwt>0</asrwt>
<pdfrwt beam="1">  1        2 0.36319583E+00 0.31878438E+04</pdfrwt>
<pdfrwt beam="2">  1       -2 0.16556423E+00 0.31878438E+04</pdfrwt>
<totfact> 0.80923436E-01</totfact>
</mgrwt>
</event>
<event>
 6    1  0.5026615E-004  0.1429686E+04  0.7818608E-02  0.8932606E-01
          2   -1    0    0  501    0  0.00000000000E+00  0.00000000000E+00  0.11131284243E+04  0.11131284243E+04  0.00000000000E+00 0.  1.
         -2   -1    0    0    0  501 -0.00000000000E+00 -0.00000000000E+00 -0.45906680259E+03  0.45906680259E+03  0.00000000000E+00 0. -1.
         23    2    1    2    0    0  0.32777998845E+03 -0.90324189873E+02  0.10164188113E+04  0.10753039782E+04  0.87024511321E+02 0.  0.
         11    1    3    3    0    0  0.18541091304E+03 -0.14776213807E+02  0.46519913225E+03  0.50100476626E+03  0.00000000000E+00 0. -1.
        -11    1    3    3    0    0  0.14236907541E+03 -0.75547976066E+02  0.55121967903E+03  0.57429921197E+03  0.00000000000E+00 0.  1.
         22    1    1    2    0    0 -0.32777998845E+03  0.90324189873E+02 -0.36235718961E+03  0.49689124863E+03  0.00000000000E+00 0. -1.
<mgrwt>
<rscale>  0 0.14296857E+04</rscale>
<asrwt>0</asrwt>
<pdfrwt beam="1">  1        2 0.17125053E+00 0.14296857E+04</pdfrwt>
<pdfrwt beam="2">  1       -2 0.70625662E-01 0.14296857E+04</pdfrwt>
<totfact> 0.37867936E+01</totfact>
</mgrwt>
</event>
<event>
 6    1  0.5026615E-004  0.3550833E+04  0.7818608E-02  0.8101848E-01
          2   -1    0    0  501    0  0.00000000000E+00  0.00000000000E+00  0.39304883559E+04  0.39304883559E+04  0.00000000000E+00 0.  1.
         -2   -1    0    0    0  501 -0.00000000000E+00 -0.00000000000E+00 -0.80196257300E+03  0.80196257300E+03  0.00000000000E+00 0. -1.
         23    2    1    2    0    0  0.31932394692E+03 -0.16481785499E+04  0.80045392840E+03  0.18621932967E+04  0.92612458643E+02 0.  0.
         13    1    3    3    0    0  0.43965684591E+02 -0.12471390125E+03  0.80648827890E+02  0.15488954783E+03  0.00000000000E+00 0.  1.
        -13    1    3    3    0    0  0.27535826233E+03 -0.15234646486E+04  0.71980510051E+03  0.17073037489E+04  0.00000000000E+00 0. -1.
         22    1    1    2    0    0 -0.31932394692E+03  0.16481785499E+04  0.23280718545E+04  0.28702576321E+04  0.00000000000E+00 0. -1.
<mgrwt>
<rscale>  0 0.35508335E+04</rscale>
<asrwt>0</asrwt>
<pdfrwt beam="1">  1        2 0.60469051E+00 0.35508335E+04</pdfrwt>
<pdfrwt beam="2">  1       -2 0.12337886E+00 0.35508335E+04</pdfrwt>
<totfact> 0.15727032E-01</totfact>
</mgrwt>
</event>
<event>
 6    1  0.5026615E-004  0.9192016E+03  0.7818608E-02  0.9401892E-01
         -2   -1    0    0    0  501 -0.00000000000E+00  0.00000000000E+00  0.20568780957E+03  0.20568780957E+03  0.00000000000E+00 0. -1.
          2   -1    0    0  501    0  0.00000000000E+00 -0.00000000000E+00 -0.10269587283E+04  0.10269587283E+04  0.00000000000E+00 0.  1.
         23    2    1    2    0    0  0.27471583853E+03  0.36177952795E+03 -0.42277184448E+03  0.62836619652E+03  0.98766520952E+02 0.  0.
         11    1    3    3    0    0  0.19798680265E+03  0.31075427556E+03 -0.37001618974E+03  0.52218672376E+03  0.00000000000E+00 0. -1.
        -11    1    3    3    0    0  0.76729035876E+02  0.51025252385E+02 -0.52755654740E+02  0.10617947275E+03  0.00000000000E+00 0.  1.
         22    1    1    2    0    0 -0.27471583853E+03 -0.36177952795E+03 -0.39849907426E+03  0.60428034137E+03  0.00000000000E+00 0.  1.
<mgrwt>
<rscale>  0 0.91920159E+03</rscale>
<asrwt>0</asrwt>
<pdfrwt beam="1">  1        2 0.15799365E+00 0.91920159E+03</pdfrwt>
<pdfrwt beam="2">  1       -2 0.31644278E-01 0.91920159E+03</pdfrwt>
<totfact> 0.22469944E+02</totfact>
</mgrwt>
</event>
<event>
 6    1  0.5026615E-004  0.9629299E+03  0.7818608E-02  0.9350164E-01
          4   -1    0    0  501    0  0.00000000000E+00  0.00000000000E+00  0.98095230804E+03  0.98095230804E+03  0.00000000000E+00 0.  1.
         -4   -1    0    0    0  501 -0.00000000000E+00 -0.00000000000E+00 -0.23630962980E+03  0.23630962980E+03  0.00000000000E+00 0. -1.
         23    2    1    2    0    0  0.21968338548E+03  0.37874582581E+03  0.13815831665E+03  0.46924290649E+03  0.96912302667E+02 0.  0.
         11    1    3    3    0    0 -0.62350361429E+01  0.44949244947E+02  0.13674393610E+02  0.47395140443E+02  0.00000000000E+00 0.  1.
        -11    1    3    3    0    0  0.22591842162E+03  0.33379658086E+03  0.12448392304E+03  0.42184776605E+03  0.00000000000E+00 0. -1.
         22    1    1    2    0    0 -0.21968338548E+03 -0.37874582581E+03  0.60648436158E+03  0.74801903135E+03  0.00000000000E+00 0.  1.
<mgrwt>
<rscale>  0 0.96292986E+03</rscale>
<asrwt>0</asrwt>
<pdfrwt beam="1">  1        4 0.15091574E+00 0.96292986E+03</pdfrwt>
<pdfrwt beam="2">  1       -4 0.36355328E-01 0.96292986E+03</pdfrwt>
<totfact> 0.43022369E+00</totfact>
</mgrwt>
</event>
<event>
 6    1  0.5026615E-004  0.1779652E+04  0.7818608E-02  0.8717196E-01
         -2   -1    0    0    0  501 -0.00000000000E+00  0.00000000000E+00  0.40426717872E+03  0.40426717872E+03  0.00000000000E+00 0. -1.
          2   -1    0    0  501    0  0.00000000000E+00 -0.00000000000E+00 -0.19585822621E+04  0.19585822621E+04  0.00000000000E+00 0.  1.
         23    2    1    2    0    0  0.37797012270E+03  0.66059449033E+03 -0.13852886300E+04  0.15832236099E+04  0.91246458683E+02 0.  0.
         13    1    3    3    0    0  0.25062753775E+03  0.50176183544E+03 -0.96304681749E+03  0.11144677092E+04  0.00000000000E+00 0.  1.
        -13    1    3    3    0    0  0.12734258495E+03  0.15883265489E+03 -0.42224181255E+03  0.46875590073E+03  0.00000000000E+00 0. -1.
         22    1    1    2    0    0 -0.37797012270E+03 -0.66059449033E+03 -0.16902645338E+03  0.77962583093E+03  0.00000000000E+00 0. -1.
<mgrwt>
<rscale>  0 0.17796522E+04</rscale>
<asrwt>0</asrwt>
<pdfrwt beam="1">  1        2 0.30132034E+00 0.17796522E+04</pdfrwt>
<pdfrwt beam="2">  1       -2 0.62194951E-01 0.17796522E+04</pdfrwt>
<totfact> 0.15985358E+01</totfact>
</mgrwt>
</event>
<event>
 6    1  0.5026615E-004  0.2309805E+04  0.7818608E-02  0.8474065E-01
         -2   -1    0    0    0  501 -0.00000000000E+00  0.00000000000E+00  0.13411672058E+04  0.13411672058E+04  0.00000000000E+00 0. -1.
          2   -1    0    0  501    0  0.00000000000E+00 -0.00000000000E+00 -0.99450701410E+03  0.99450701410E+03  0.00000000000E+00 0.  1.
         23    2    1    2    0    0 -0.29425615636E+03  0.11050963697E+04  0.24916118696E+02  0.11476742534E+04  0.93331168573E+02 0.  0.
         11    1    3    3    0    0 -0.30050760145E+02  0.10730857980E+03  0.30309616656E+02  0.11548529060E+03  0.00000000000E+00 0. -1.
        -11    1    3    3    0    0 -0.26420539622E+03  0.99778778992E+03 -0.53934979602E+01  0.10321889628E+04  0.00000000000E+00 0.  1.
         22    1    1    2    0    0  0.29425615636E+03 -0.11050963697E+04  0.32174407303E+03  0.11879999665E+04  0.00000000000E+00 0.  1.
<mgrwt>
<rscale>  0 0.23098054E+04</rscale>
<asrwt>0</asrwt>
<pdfrwt beam="1">  1        2 0.15300108E+00 0.23098054E+04</pdfrwt>
<pdfrwt beam="2">  1       -2 0.20633341E+00 0.23098054E+04</pdfrwt>
<totfact> 0.27812207E+00</totfact>
</mgrwt>
</event>
<event>
 6    1  0.5026615E-004  0.6566659E+04  0.7818608E-02  0.7623856E-01
         -2   -1    0    0    0  501 -0.00000000000E+00  0.00000000000E+00  0.31756414618E+04  0.31756414618E+04  0.00000000000E+00 0. -1.
          2   -1    0    0  501    0  0.00000000000E+00 -0.00000000000E+00 -0.33946691386E+04  0.33946691386E+04  0.00000000000E+00 0.  1.
         23    2    1    2    0    0  0.83011534172E+03  0.16004519729E+04 -0.28543101726E+04  0.33773101571E+04  0.92732613288E+02 0.  0.
         11    1    3    3    0    0  0.17939129177E+03  0.43360509310E+03 -0.75050728581E+03  0.88513038496E+03  0.00000000000E+00 0.  1.
        -11    1    3    3    0    0  0.65072404995E+03  0.11668468798E+04 -0.21038028868E+04  0.24921797721E+04  0.00000000000E+00 0. -1.
         22    1    1    2    0    0 -0.83011534172E+03 -0.16004519729E+04  0.26352824958E+04  0.31930004433E+04  0.00000000000E+00 0. -1.
<mgrwt>
<rscale>  0 0.65666588E+04</rscale>
<asrwt>0</asrwt>
<pdfrwt beam="1">  1        2 0.52225679E+00 0.65666588E+04</pdfrwt>
<pdfrwt beam="2">  1       -2 0.48856023E+00 0.65666588E+04</pdfrwt>
<totfact> 0.12178912E-03</totfact>
</mgrwt>
</event>
<event>
 6    1  0.5026615E-004  0.3722675E+04  0.7818608E-02  0.8062955E-01
         -2   -1    0    0    0  501 -0.00000000000E+00  0.00000000000E+00  0.20096809273E+04  0.20096809273E+04  0.00000000000E+00 0. -1.
          2   -1    0    0  501    0  0.00000000000E+00 -0.00000000000E+00 -0.17239436254E+04  0.17239436254E+04  0.00000000000E+00 0.  1.
         23    2    1    2    0    0  0.17303367941E+03  0.95591267029E+03  0.17337045901E+04  0.19899735110E+04  0.10272916418E+03 0.  0.
         13    1    3    3    0    0  0.35161634839E+02  0.48169815219E+03  0.84893102656E+03  0.97670534873E+03  0.00000000000E+00 0.  1.
        -13    1    3    3    0    0  0.13787204457E+03  0.47421451810E+03  0.88477356353E+03  0.10132681622E+04  0.00000000000E+00 0. -1.
         22    1    1    2    0    0 -0.17303367941E+03 -0.95591267029E+03 -0.14479672883E+04  0.17436510417E+04  0.00000000000E+00 0.  1.
<mgrwt>
<rscale>  0 0.37226746E+04</rscale>
<asrwt>0</asrwt>
<pdfrwt beam="1">  1        2 0.26522210E+00 0.37226746E+04</pdfrwt>
<pdfrwt beam="2">  1       -2 0.30918168E+00 0.37226746E+04</pdfrwt>
<totfact> 0.21421740E-01</totfact>
</mgrwt>
</event>
<event>
 6    1  0.5026615E-004  0.1556063E+04  0.7818608E-02  0.8848005E-01
          2   -1    0    0  501    0  0.00000000000E+00  0.00000000000E+00  0.10224713569E+04  0.10224713569E+04  0.00000000000E+00 0.  1.
         -2   -1    0    0    0  501 -0.00000000000E+00 -0.00000000000E+00 -0.59202893977E+03  0.59202893977E+03  0.00000000000E+00 0. -1.
         23    2    1    2    0    0 -0.26750559525E+03 -0.72692350635E+03  0.17695656340E+03  0.79949593739E+03  0.88899386955E+02 0.  0.
         13    1    3    3    0    0 -0.19633103659E+03 -0.43637137846E+03  0.13676680565E+03  0.49766556542E+03  0.00000000000E+00 0.  1.
        -13    1    3    3    0    0 -0.71174558654E+02 -0.29055212788E+03  0.40189757750E+02  0.30183037197E+03  0.00000000000E+00 0. -1.
         22    1    1    2    0    0  0.26750559525E+03  0.72692350635E+03  0.25348585369E+03  0.81500435925E+03  0.00000000000E+00 0.  1.
<mgrwt>
<rscale>  0 0.15560625E+04</rscale>
<asrwt>0</asrwt>
<pdfrwt beam="1">  1        2 0.15730329E+00 0.15560625E+04</pdfrwt>
<pdfrwt beam="2">  1       -2 0.91081376E-01 0.15560625E+04</pdfrwt>
<totfact> 0.24107051E+01</totfact>
</mgrwt>
</event>
<event>
 6    1  0.5026615E-004  0.4899111E+04  0.7818608E-02  0.7844262E-01
         -2   -1    0    0    0  501 -0.00000000000E+00  0.00000000000E+00  0.20856816480E+04  0.20856816480E+04  0.00000000000E+00 0. -1.
          2   -1    0    0  501    0  0.00000000000E+00 -0.00000000000E+00 -0.28769115565E+04  0.28769115565E+04  0.00000000000E+00 0.  1.
         23    2    1    2    0    0  0.15216534088E+04 -0.15394186611E+04  0.76397528335E+03  0.22972785703E+04  0.92691343666E+02 0.  0.
         13    1    3    3    0    0  0.77938050585E+03 -0.81782043245E+03  0.35468216015E+03  0.11840876941E+04  0.00000000000E+00 0.  1.
        -13    1    3    3    0    0  0.74227290299E+03 -0.72159822861E+03  0.40929312321E+03  0.11131908762E+04  0.00000000000E+00 0. -1.
         22    1    1    2    0    0 -0.15216534088E+04  0.15394186611E+04 -0.15552051919E+04  0.26653146343E+04  0.00000000000E+00 0.  1.
<mgrwt>
<rscale>  0 0.48991108E+04</rscale>
<asrwt>0</asrwt>
<pdfrwt beam="1">  1        2 0.44260178E+00 0.48991108E+04</pdfrwt>
<pdfrwt beam="2">  1       -2 0.32087410E+00 0.48991108E+04</pdfrwt>
<totfact> 0.36014789E-02</totfact>
</mgrwt>
</event>
<event>
 6    1  0.5026615E-004  0.2823797E+04  0.7818608E-02  0.8295918E-01
         -2   -1    0    0    0  501 -0.00000000000E+00  0.00000000000E+00  0.10410655710E+04  0.10410655710E+04  0.00000000000E+00 0. -1.
          2   -1    0    0  501    0  0.00000000000E+00 -0.00000000000E+00 -0.19148245382E+04  0.19148245382E+04  0.00000000000E+00 0.  1.
         23    2    1    2    0    0 -0.12355053095E+04  0.36299105332E+03  0.16500321703E+03  0.13014225967E+04  0.90768050792E+02 0.  0.
         13    1    3    3    0    0 -0.35324105792E+03  0.85638291668E+02  0.83969829059E+02  0.37304704019E+03  0.00000000000E+00 0. -1.
        -13    1    3    3    0    0 -0.88226425154E+03  0.27735276165E+03  0.81033387973E+02  0.92837555650E+03  0.00000000000E+00 0.  1.
         22    1    1    2    0    0  0.12355053095E+04 -0.36299105332E+03 -0.10387621842E+04  0.16544675125E+04  0.00000000000E+00 0.  1.
<mgrwt>
<rscale>  0 0.28237974E+04</rscale>
<asrwt>0</asrwt>
<pdfrwt beam="1">  1        2 0.29458839E+00 0.28237974E+04</pdfrwt>
<pdfrwt beam="2">  1       -2 0.16016393E+00 0.28237974E+04</pdfrwt>
<totfact> 0.16255815E+00</totfact>
</mgrwt>
</event>
<event>
 6    1  0.5026615E-004  0.3209305E+04  0.7818608E-02  0.8186364E-01
         -1   -1    0    0    0  501 -0.00000000000E+00  0.00000000000E+00  0.24014268877E+04  0.24014268877E+04  0.00000000000E+00 0. -1.
          1   -1    0    0  501    0  0.00000000000E+00 -0.00000000000E+00 -0.10722417891E+04  0.10722417891E+04  0.00000000000E+00 0.  1.
         23    2    1    2    0    0 -0.10665228796E+04 -0.42136617123E+03  0.18783117575E+04  0.22022283163E+04  0.82060927490E+02 0.  0.
         13    1    3    3    0    0 -0.38320315155E+03 -0.18412236619E+03  0.64722744242E+03  0.77437010745E+03  0.00000000000E+00 0.  1.
        -13    1    3    3    0    0 -0.68331972802E+03 -0.23724380504E+03  0.12310843150E+04  0.14278582088E+04  0.00000000000E+00 0. -1.
         22    1    1    2    0    0  0.10665228796E+04  0.42136617123E+03 -0.54912665881E+03  0.12714403605E+04  0.00000000000E+00 0.  1.
<mgrwt>
<rscale>  0 0.32093054E+04</rscale>
<asrwt>0</asrwt>
<pdfrwt beam="1">  1        1 0.16496028E+00 0.32093054E+04</pdfrwt>
<pdfrwt beam="2">  1       -1 0.36945029E+00 0.32093054E+04</pdfrwt>
<totfact> 0.12813105E-01</totfact>
</mgrwt>
</event>
<event>
 6    1  0.5026615E-004  0.3610759E+04  0.7818608E-02  0.8088032E-01
          2   -1    0    0  501    0  0.00000000000E+00  0.00000000000E+00  0.33819029962E+04  0.33819029962E+04  0.00000000000E+00 0.  1.
         -2   -1    0    0    0  501 -0.00000000000E+00 -0.00000000000E+00 -0.96377560221E+03  0.96377560221E+03  0.00000000000E+00 0. -1.
         23    2    1    2    0    0  0.10655286094E+04 -0.46622878225E+03 -0.45021978431E+03  0.12504991157E+04  0.91267130973E+02 0.  0.
         13    1    3    3    0    0  0.56294867914E+03 -0.27124690970E+03 -0.28382570614E+03  0.68632582119E+03  0.00000000000E+00 0. -1.
        -13    1    3    3    0    0  0.50257993030E+03 -0.19498187255E+03 -0.16639407817E+03  0.56417329449E+03  0.00000000000E+00 0.  1.
         22    1    1    2    0    0 -0.10655286094E+04  0.46622878225E+03  0.28683471783E+04  0.30951794827E+04  0.00000000000E+00 0.  1.
<mgrwt>
<rscale>  0 0.36107593E+04</rscale>
<asrwt>0</asrwt>
<pdfrwt beam="1">  1        2 0.52029276E+00 0.36107593E+04</pdfrwt>
<pdfrwt beam="2">  1       -2 0.14827317E+00 0.36107593E+04</pdfrwt>
<totfact> 0.24642499E-01</totfact>
</mgrwt>
</event>
<event>
 6    1  0.5026615E-004  0.2261321E+04  0.7818608E-02  0.8493330E-01
          2   -1    0    0  501    0  0.00000000000E+00  0.00000000000E+00  0.12122992070E+04  0.12122992070E+04  0.00000000000E+00 0.  1.
         -2   -1    0    0    0  501 -0.00000000000E+00 -0.00000000000E+00 -0.10545197489E+04  0.10545197489E+04  0.00000000000E+00 0. -1.
         23    2    1    2    0    0  0.72335275364E+03  0.81669379409E+03 -0.21170848282E+03  0.11149729167E+04  0.90089753596E+02 0.  0.
         11    1    3    3    0    0  0.55148575129E+03  0.63734251025E+03 -0.12592765800E+03  0.85217356466E+03  0.00000000000E+00 0. -1.
        -11    1    3    3    0    0  0.17186700235E+03  0.17935128384E+03 -0.85780824820E+02  0.26279935201E+03  0.00000000000E+00 0.  1.
         22    1    1    2    0    0 -0.72335275364E+03 -0.81669379409E+03  0.36948794098E+03  0.11518460392E+04  0.00000000000E+00 0.  1.
<mgrwt>
<rscale>  0 0.22613213E+04</rscale>
<asrwt>0</asrwt>
<pdfrwt beam="1">  1        2 0.18650757E+00 0.22613213E+04</pdfrwt>
<pdfrwt beam="2">  1       -2 0.16223381E+00 0.22613213E+04</pdfrwt>
<totfact> 0.41079578E+00</totfact>
</mgrwt>
</event>
<event>
 6    1  0.5026615E-004  0.1981861E+04  0.7818608E-02  0.8615148E-01
          1   -1    0    0  501    0  0.00000000000E+00  0.00000000000E+00  0.14893711794E+04  0.14893711794E+04  0.00000000000E+00 0.  1.
         -1   -1    0    0    0  501 -0.00000000000E+00 -0.00000000000E+00 -0.65930086622E+03  0.65930086622E+03  0.00000000000E+00 0. -1.
         23    2    1    2    0    0  0.39812366231E+03 -0.90397820420E+03  0.46466913074E+03  0.10954877938E+04  0.92179505235E+02 0.  0.
         11    1    3    3    0    0  0.31457598348E+03 -0.61047639289E+03  0.31335332791E+03  0.75487070665E+03  0.00000000000E+00 0.  1.
        -11    1    3    3    0    0  0.83547678829E+02 -0.29350181132E+03  0.15131580283E+03  0.34061708717E+03  0.00000000000E+00 0. -1.
         22    1    1    2    0    0 -0.39812366231E+03  0.90397820420E+03  0.36540118247E+03  0.10531842518E+04  0.00000000000E+00 0. -1.
<mgrwt>
<rscale>  0 0.19818615E+04</rscale>
<asrwt>0</asrwt>
<pdfrwt beam="1">  1        1 0.22913403E+00 0.19818615E+04</pdfrwt>
<pdfrwt beam="2">  1       -1 0.10143090E+00 0.19818615E+04</pdfrwt>
<totfact> 0.57025556E+00</totfact>
</mgrwt>
</event>
<event>
 6    1  0.5026615E-004  0.2691423E+04  0.7818608E-02  0.8337793E-01
         -2   -1    0    0    0  501 -0.00000000000E+00  0.00000000000E+00  0.10492064471E+04  0.10492064471E+04  0.00000000000E+00 0. -1.
          2   -1    0    0  501    0  0.00000000000E+00 -0.00000000000E+00 -0.17260083555E+04  0.17260083555E+04  0.00000000000E+00 0.  1.
         23    2    1    2    0    0  0.98116782063E+03  0.72777854776E+03  0.23948667892E+03  0.12481468007E+04  0.90358508247E+02 0.  0.
         11    1    3    3    0    0  0.77844825420E+03  0.53122181782E+03  0.17578811713E+03  0.95868647968E+03  0.00000000000E+00 0. -1.
        -11    1    3    3    0    0  0.20271956643E+03  0.19655672994E+03  0.63698561798E+02  0.28946032107E+03  0.00000000000E+00 0.  1.
         22    1    1    2    0    0 -0.98116782063E+03 -0.72777854776E+03 -0.91628858739E+03  0.15270680018E+04  0.00000000000E+00 0.  1.
<mgrwt>
<rscale>  0 0.26914227E+04</rscale>
<asrwt>0</asrwt>
<pdfrwt beam="1">  1        2 0.26553975E+00 0.26914227E+04</pdfrwt>
<pdfrwt beam="2">  1       -2 0.16141638E+00 0.26914227E+04</pdfrwt>
<totfact> 0.20480718E+00</totfact>
</mgrwt>
</event>
<event>
 6    1  0.5026615E-004  0.2476441E+04  0.7818608E-02  0.8411427E-01
          2   -1    0    0  501    0  0.00000000000E+00  0.00000000000E+00  0.15170440165E+04  0.15170440165E+04  0.00000000000E+00 0.  1.
         -2   -1    0    0    0  501 -0.00000000000E+00 -0.00000000000E+00 -0.10106426671E+04  0.10106426671E+04  0.00000000000E+00 0. -1.
         23    2    1    2    0    0 -0.11779102208E+04 -0.11786339281E+03  0.61818883352E+03  0.13386279343E+04  0.91668123801E+02 0.  0.
         13    1    3    3    0    0 -0.58461341780E+03 -0.80941476424E+02  0.26286458618E+03  0.64608216315E+03  0.00000000000E+00 0. -1.
        -13    1    3    3    0    0 -0.59329680301E+03 -0.36921916387E+02  0.35532424735E+03  0.69254577114E+03  0.00000000000E+00 0.  1.
         22    1    1    2    0    0  0.11779102208E+04  0.11786339281E+03 -0.11178748417E+03  0.11890587493E+04  0.00000000000E+00 0. -1.
<mgrwt>
<rscale>  0 0.24764405E+04</rscale>
<asrwt>0</asrwt>
<pdfrwt beam="1">  1        2 0.23339139E+00 0.24764405E+04</pdfrwt>
<pdfrwt beam="2">  1       -2 0.15548349E+00 0.24764405E+04</pdfrwt>
<totfact> 0.30208146E+00</totfact>
</mgrwt>
</event>
<event>
 6    1  0.5026615E-004  0.8610216E+03  0.7818608E-02  0.9475662E-01
         -2   -1    0    0    0  501 -0.00000000000E+00  0.00000000000E+00  0.19121817082E+03  0.19121817082E+03  0.00000000000E+00 0. -1.
          2   -1    0    0  501    0  0.00000000000E+00 -0.00000000000E+00 -0.96925703948E+03  0.96925703948E+03  0.00000000000E+00 0.  1.
         23    2    1    2    0    0  0.23104939898E+03  0.23627644338E+03 -0.75504027541E+03  0.82920595765E+03  0.91029227422E+02 0.  0.
         11    1    3    3    0    0  0.11674575895E+03  0.58094909567E+02 -0.31358392517E+03  0.33961664988E+03  0.00000000000E+00 0.  1.
        -11    1    3    3    0    0  0.11430364003E+03  0.17818153381E+03 -0.44145635024E+03  0.48958930777E+03  0.00000000000E+00 0. -1.
         22    1    1    2    0    0 -0.23104939898E+03 -0.23627644338E+03 -0.22998593250E+02  0.33126925266E+03  0.00000000000E+00 0. -1.
<mgrwt>
<rscale>  0 0.86102162E+03</rscale>
<asrwt>0</asrwt>
<pdfrwt beam="1">  1        2 0.14911647E+00 0.86102162E+03</pdfrwt>
<pdfrwt beam="2">  1       -2 0.29418180E-01 0.86102162E+03</pdfrwt>
<totfact> 0.28116797E+02</totfact>
</mgrwt>
</event>
<event>
 6    1  0.5026615E-004  0.2389097E+04  0.7818608E-02  0.8443597E-01
          2   -1    0    0  501    0  0.00000000000E+00  0.00000000000E+00  0.16220329426E+04  0.16220329426E+04  0.00000000000E+00 0. -1.
         -2   -1    0    0    0  501 -0.00000000000E+00 -0.00000000000E+00 -0.87972677003E+03  0.87972677003E+03  0.00000000000E+00 0.  1.
         23    2    1    2    0    0 -0.66247218747E+03 -0.55999561217E+03  0.12289137632E+04  0.15071485162E+04  0.93824984063E+02 0.  0.
         11    1    3    3    0    0 -0.22957143059E+03 -0.20006119212E+03  0.35647949681E+03  0.46883382342E+03  0.00000000000E+00 0.  1.
        -11    1    3    3    0    0 -0.43290075688E+03 -0.35993442005E+03  0.87243426635E+03  0.10383146927E+04  0.00000000000E+00 0. -1.
         22    1    1    2    0    0  0.66247218747E+03  0.55999561217E+03 -0.48660759062E+03  0.99461119644E+03  0.00000000000E+00 0.  1.
<mgrwt>
<rscale>  0 0.23890967E+04</rscale>
<asrwt>0</asrwt>
<pdfrwt beam="1">  1        2 0.24954353E+00 0.23890967E+04</pdfrwt>
<pdfrwt beam="2">  1       -2 0.13534258E+00 0.23890967E+04</pdfrwt>
<totfact> 0.38246987E+00</totfact>
</mgrwt>
</event>
<event>
 6    1  0.5026615E-004  0.4209502E+04  0.7818608E-02  0.7963567E-01
          2   -1    0    0  501    0  0.00000000000E+00  0.00000000000E+00  0.23060399320E+04  0.23060399320E+04  0.00000000000E+00 0.  1.
         -2   -1    0    0    0  501 -0.00000000000E+00 -0.00000000000E+00 -0.19210319158E+04  0.19210319158E+04  0.00000000000E+00 0. -1.
         23    2    1    2    0    0 -0.14521989149E+04  0.15030285700E+04  0.43454686425E+03  0.21365143460E+04  0.88803169006E+02 0.  0.
         11    1    3    3    0    0 -0.25333033371E+03  0.27982483018E+03  0.46103971233E+02  0.38026802354E+03  0.00000000000E+00 0. -1.
        -11    1    3    3    0    0 -0.11988685812E+04  0.12232037398E+04  0.38844289302E+03  0.17562463225E+04  0.00000000000E+00 0.  1.
         22    1    1    2    0    0  0.14521989149E+04 -0.15030285700E+04 -0.49538848031E+02  0.20905575017E+04  0.00000000000E+00 0. -1.
<mgrwt>
<rscale>  0 0.42095018E+04</rscale>
<asrwt>0</asrwt>
<pdfrwt beam="1">  1        2 0.35477538E+00 0.42095018E+04</pdfrwt>
<pdfrwt beam="2">  1       -2 0.29554337E+00 0.42095018E+04</pdfrwt>
<totfact> 0.11808194E-01</totfact>
</mgrwt>
</event>
<event>
 6    1  0.5239618E-004  0.2494921E+04  0.7818608E-02  0.8404797E-01
         -2   -1    0    0    0  501 -0.00000000000E+00  0.00000000000E+00  0.13058809686E+04  0.13058809686E+04  0.00000000000E+00 0.  1.
          2   -1    0    0  501    0  0.00000000000E+00 -0.00000000000E+00 -0.11916535460E+04  0.11916535460E+04  0.00000000000E+00 0. -1.
         23    2    1    2    0    0 -0.69501256800E+03  0.46557395811E+03  0.98143178774E+03  0.12926092094E+04  0.88479569404E+02 0.  0.
         11    1    3    3    0    0 -0.43478057112E+03  0.25618753919E+03  0.54069385501E+03  0.73960533064E+03  0.00000000000E+00 0.  1.
        -11    1    3    3    0    0 -0.26023199688E+03  0.20938641891E+03  0.44073793273E+03  0.55300387880E+03  0.00000000000E+00 0. -1.
         22    1    1    2    0    0  0.69501256800E+03 -0.46557395811E+03 -0.86720436514E+03  0.12049253052E+04  0.00000000000E+00 0. -1.
<mgrwt>
<rscale>  0 0.24949210E+04</rscale>
<asrwt>0</asrwt>
<pdfrwt beam="1">  1        2 0.18333132E+00 0.24949210E+04</pdfrwt>
<pdfrwt beam="2">  1       -2 0.20090476E+00 0.24949210E+04</pdfrwt>
<totfact> 0.22427638E+00</totfact>
</mgrwt>
</event>
<event>
 6    1  0.5026615E-004  0.1926831E+04  0.7818608E-02  0.8641615E-01
         -2   -1    0    0    0  501 -0.00000000000E+00  0.00000000000E+00  0.31465622151E+03  0.31465622151E+03  0.00000000000E+00 0.  1.
          2   -1    0    0  501    0  0.00000000000E+00 -0.00000000000E+00 -0.29497898168E+04  0.29497898168E+04  0.00000000000E+00 0. -1.
         23    2    1    2    0    0  0.12269901015E+03  0.81420697183E+02 -0.29300131459E+04  0.29348427519E+04  0.81489670477E+02 0.  0.
         11    1    3    3    0    0 -0.62871312981E+01  0.25677859293E+02 -0.61620585432E+03  0.61677267723E+03  0.00000000000E+00 0. -1.
        -11    1    3    3    0    0  0.12898614144E+03  0.55742837890E+02 -0.23138072915E+04  0.23180700747E+04  0.00000000000E+00 0.  1.
         22    1    1    2    0    0 -0.12269901015E+03 -0.81420697183E+02  0.29487955061E+03  0.32960328637E+03  0.00000000000E+00 0.  1.
<mgrwt>
<rscale>  0 0.19268313E+04</rscale>
<asrwt>0</asrwt>
<pdfrwt beam="1">  1        2 0.45381380E+00 0.19268313E+04</pdfrwt>
<pdfrwt beam="2">  1       -2 0.48408651E-01 0.19268313E+04</pdfrwt>
<totfact> 0.70878345E+00</totfact>
</mgrwt>
</event>
<event>
 6    1  0.7139227E-004  0.4597603E+04  0.7818608E-02  0.7893769E-01
         -2   -1    0    0    0  501 -0.00000000000E+00  0.00000000000E+00  0.16674277255E+04  0.16674277255E+04  0.00000000000E+00 0. -1.
          2   -1    0    0  501    0  0.00000000000E+00 -0.00000000000E+00 -0.31692453685E+04  0.31692453685E+04  0.00000000000E+00 0.  1.
         23    2    1    2    0    0  0.18355323533E+03  0.10616452254E+04  0.13840477010E+04  0.17562508570E+04  0.89703173062E+02 0.  0.
         13    1    3    3    0    0  0.89975017603E+02  0.72243374877E+03  0.97171295987E+03  0.12141796002E+04  0.00000000000E+00 0. -1.
        -13    1    3    3    0    0  0.93578217730E+02  0.33921147658E+03  0.41233474111E+03  0.54207125676E+03  0.00000000000E+00 0.  1.
         22    1    1    2    0    0 -0.18355323533E+03 -0.10616452254E+04 -0.28858653440E+04  0.30804222371E+04  0.00000000000E+00 0.  1.
<mgrwt>
<rscale>  0 0.45976027E+04</rscale>
<asrwt>0</asrwt>
<pdfrwt beam="1">  1        2 0.48757620E+00 0.45976027E+04</pdfrwt>
<pdfrwt beam="2">  1       -2 0.25652735E+00 0.45976027E+04</pdfrwt>
<totfact> 0.59762065E-02</totfact>
</mgrwt>
</event>
<event>
 6    1  0.5026615E-004  0.2066423E+04  0.7818608E-02  0.8576180E-01
         -2   -1    0    0    0  501 -0.00000000000E+00  0.00000000000E+00  0.64401326297E+03  0.64401326297E+03  0.00000000000E+00 0. -1.
          2   -1    0    0  501    0  0.00000000000E+00 -0.00000000000E+00 -0.16576146695E+04  0.16576146695E+04  0.00000000000E+00 0.  1.
         23    2    1    2    0    0 -0.64778070475E+03 -0.73357675574E+03 -0.14642825000E+03  0.99405614424E+03  0.94613357907E+02 0.  0.
         11    1    3    3    0    0 -0.29538877602E+03 -0.26573030548E+03 -0.50017621275E+02  0.40046084289E+03  0.00000000000E+00 0. -1.
        -11    1    3    3    0    0 -0.35239192873E+03 -0.46784645026E+03 -0.96410628725E+02  0.59359530135E+03  0.00000000000E+00 0.  1.
         22    1    1    2    0    0  0.64778070475E+03  0.73357675574E+03 -0.86717315657E+03  0.13075717883E+04  0.00000000000E+00 0.  1.
<mgrwt>
<rscale>  0 0.20664228E+04</rscale>
<asrwt>0</asrwt>
<pdfrwt beam="1">  1        2 0.25501764E+00 0.20664228E+04</pdfrwt>
<pdfrwt beam="2">  1       -2 0.99078964E-01 0.20664228E+04</pdfrwt>
<totfact> 0.80793529E+00</totfact>
</mgrwt>
</event>
<event>
 6    1  0.5026615E-004  0.2588682E+04  0.7818608E-02  0.8372056E-01
          2   -1    0    0  501    0  0.00000000000E+00  0.00000000000E+00  0.19020748019E+04  0.19020748019E+04  0.00000000000E+00 0.  1.
         -2   -1    0    0    0  501 -0.00000000000E+00 -0.00000000000E+00 -0.88078504210E+03  0.88078504210E+03  0.00000000000E+00 0. -1.
         23    2    1    2    0    0 -0.10329229318E+04  0.36723608469E+03  0.12476776969E+04  0.16634655332E+04  0.92875291364E+02 0.  0.
         11    1    3    3    0    0 -0.16661358149E+03  0.40468437377E+02  0.15366108136E+03  0.23023793754E+03  0.00000000000E+00 0.  1.
        -11    1    3    3    0    0 -0.86630935035E+03  0.32676764731E+03  0.10940166156E+04  0.14332275957E+04  0.00000000000E+00 0. -1.
         22    1    1    2    0    0  0.10329229318E+04 -0.36723608469E+03 -0.22638793711E+03  0.11193943108E+04  0.00000000000E+00 0. -1.
<mgrwt>
<rscale>  0 0.25886823E+04</rscale>
<asrwt>0</asrwt>
<pdfrwt beam="1">  1        2 0.29262689E+00 0.25886823E+04</pdfrwt>
<pdfrwt beam="2">  1       -2 0.13550539E+00 0.25886823E+04</pdfrwt>
<totfact> 0.26203992E+00</totfact>
</mgrwt>
</event>
<event>
 6    1  0.5026615E-004  0.7118271E+03  0.7818608E-02  0.9697217E-01
         -2   -1    0    0    0  501 -0.00000000000E+00  0.00000000000E+00  0.15004611802E+03  0.15004611802E+03  0.00000000000E+00 0. -1.
          2   -1    0    0  501    0  0.00000000000E+00 -0.00000000000E+00 -0.84423684886E+03  0.84423684886E+03  0.00000000000E+00 0.  1.
         23    2    1    2    0    0  0.27147406448E+03 -0.21899908159E+03 -0.31351558467E+03  0.47797653429E+03  0.92253889255E+02 0.  0.
         13    1    3    3    0    0  0.20233511379E+03 -0.12168059293E+03 -0.24537176797E+03  0.34051867714E+03  0.00000000000E+00 0.  1.
        -13    1    3    3    0    0  0.69138950689E+02 -0.97318488659E+02 -0.68143816700E+02  0.13745785715E+03  0.00000000000E+00 0. -1.
         22    1    1    2    0    0 -0.27147406448E+03  0.21899908159E+03 -0.38067514617E+03  0.51630643259E+03  0.00000000000E+00 0.  1.
<mgrwt>
<rscale>  0 0.71182712E+03</rscale>
<asrwt>0</asrwt>
<pdfrwt beam="1">  1        2 0.12988259E+00 0.71182712E+03</pdfrwt>
<pdfrwt beam="2">  1       -2 0.23084018E-01 0.71182712E+03</pdfrwt>
<totfact> 0.53325371E+02</totfact>
</mgrwt>
</event>
<event>
 6    1  0.5026615E-004  0.7260792E+03  0.7818608E-02  0.9673644E-01
          1   -1    0    0  501    0  0.00000000000E+00  0.00000000000E+00  0.99314527928E+02  0.99314527928E+02  0.00000000000E+00 0.  1.
         -1   -1    0    0    0  501 -0.00000000000E+00 -0.00000000000E+00 -0.13270740761E+04  0.13270740761E+04  0.00000000000E+00 0. -1.
         23    2    1    2    0    0  0.43664943674E+02 -0.13557695171E+03 -0.12672626367E+04  0.12785771324E+04  0.92288439652E+02 0.  0.
         13    1    3    3    0    0  0.22235232818E+02 -0.85819089987E+02 -0.10800747267E+04  0.10837069425E+04  0.00000000000E+00 0.  1.
        -13    1    3    3    0    0  0.21429710856E+02 -0.49757861724E+02 -0.18718790993E+03  0.19487018996E+03  0.00000000000E+00 0. -1.
         22    1    1    2    0    0 -0.43664943674E+02  0.13557695171E+03  0.39503088493E+02  0.14781147162E+03  0.00000000000E+00 0.  1.
<mgrwt>
<rscale>  0 0.72607916E+03</rscale>
<asrwt>0</asrwt>
<pdfrwt beam="1">  1        1 0.15279158E-01 0.72607916E+03</pdfrwt>
<pdfrwt beam="2">  1       -1 0.20416524E+00 0.72607916E+03</pdfrwt>
<totfact> 0.54335049E+01</totfact>
</mgrwt>
</event>
<event>
 6    1  0.5026615E-004  0.1874121E+04  0.7818608E-02  0.8667846E-01
          2   -1    0    0  501    0  0.00000000000E+00  0.00000000000E+00  0.23066481843E+04  0.23066481843E+04  0.00000000000E+00 0.  1.
         -2   -1    0    0    0  501 -0.00000000000E+00 -0.00000000000E+00 -0.38067444943E+03  0.38067444943E+03  0.00000000000E+00 0. -1.
         23    2    1    2    0    0  0.52834545340E+03 -0.65932825817E+03  0.39166817587E+03  0.93576440788E+03  0.91588192090E+02 0.  0.
         13    1    3    3    0    0  0.45754606687E+03 -0.57728613417E+03  0.37344854130E+03  0.82587619957E+03  0.00000000000E+00 0. -1.
        -13    1    3    3    0    0  0.70799386537E+02 -0.82042123992E+02  0.18219634563E+02  0.10988820832E+03  0.00000000000E+00 0.  1.
         22    1    1    2    0    0 -0.52834545340E+03  0.65932825817E+03  0.15343055590E+04  0.17515582259E+04  0.00000000000E+00 0. -1.
<mgrwt>
<rscale>  0 0.18741206E+04</rscale>
<asrwt>0</asrwt>
<pdfrwt beam="1">  1        2 0.35486894E+00 0.18741206E+04</pdfrwt>
<pdfrwt beam="2">  1       -2 0.58565301E-01 0.18741206E+04</pdfrwt>
<totfact> 0.11501499E+01</totfact>
</mgrwt>
</event>
<event>
 6    1  0.5026615E-004  0.3103451E+04  0.7818608E-02  0.8214791E-01
         -2   -1    0    0    0  501 -0.00000000000E+00  0.00000000000E+00  0.44875967683E+03  0.44875967683E+03  0.00000000000E+00 0. -1.
          2   -1    0    0  501    0  0.00000000000E+00 -0.00000000000E+00 -0.53655715586E+04  0.53655715586E+04  0.00000000000E+00 0.  1.
         23    2    1    2    0    0  0.69629271305E+02  0.11664058803E+04 -0.55114707219E+03  0.12949971979E+04  0.88902950148E+02 0.  0.
         13    1    3    3    0    0 -0.86823839387E+01  0.57548392219E+03 -0.28333382215E+03  0.64151008041E+03  0.00000000000E+00 0.  1.
        -13    1    3    3    0    0  0.78311655244E+02  0.59092195806E+03 -0.26781325005E+03  0.65348711752E+03  0.00000000000E+00 0. -1.
         22    1    1    2    0    0 -0.69629271305E+02 -0.11664058803E+04 -0.43656648096E+04  0.45193340375E+04  0.00000000000E+00 0.  1.
<mgrwt>
<rscale>  0 0.31034511E+04</rscale>
<asrwt>0</asrwt>
<pdfrwt beam="1">  1        2 0.82547251E+00 0.31034511E+04</pdfrwt>
<pdfrwt beam="2">  1       -2 0.69039953E-01 0.31034511E+04</pdfrwt>
<totfact> 0.16626197E-02</totfact>
</mgrwt>
</event>
<event>
 6    1  0.5026615E-004  0.1894767E+04  0.7818608E-02  0.8657466E-01
          2   -1    0    0  501    0  0.00000000000E+00  0.00000000000E+00  0.10837196674E+04  0.10837196674E+04  0.00000000000E+00 0.  1.
         -2   -1    0    0    0  501 -0.00000000000E+00 -0.00000000000E+00 -0.82819861195E+03  0.82819861195E+03  0.00000000000E+00 0. -1.
         23    2    1    2    0    0  0.22742104560E+03 -0.15962630957E+03  0.10394703266E+04  0.10801867418E+04  0.95414603270E+02 0.  0.
         11    1    3    3    0    0  0.10718925346E+03 -0.31233980931E+02  0.51644560174E+03  0.52837596196E+03  0.00000000000E+00 0.  1.
        -11    1    3    3    0    0  0.12023179214E+03 -0.12839232864E+03  0.52302472488E+03  0.55181077982E+03  0.00000000000E+00 0. -1.
         22    1    1    2    0    0 -0.22742104560E+03  0.15962630957E+03 -0.78394927121E+03  0.83173153753E+03  0.00000000000E+00 0. -1.
<mgrwt>
<rscale>  0 0.18947666E+04</rscale>
<asrwt>0</asrwt>
<pdfrwt beam="1">  1        2 0.16672610E+00 0.18947666E+04</pdfrwt>
<pdfrwt beam="2">  1       -2 0.12741517E+00 0.18947666E+04</pdfrwt>
<totfact> 0.95471819E+00</totfact>
</mgrwt>
</event>
<event>
 6    1  0.5026615E-004  0.8114161E+03  0.7818608E-02  0.9543638E-01
          2   -1    0    0  501    0  0.00000000000E+00  0.00000000000E+00  0.88596774493E+03  0.88596774493E+03  0.00000000000E+00 0.  1.
         -2   -1    0    0    0  501 -0.00000000000E+00 -0.00000000000E+00 -0.18578442349E+03  0.18578442349E+03  0.00000000000E+00 0. -1.
         23    2    1    2    0    0 -0.34703917022E+03 -0.16580664781E+03  0.20823258691E+03  0.44729756213E+03  0.93735098608E+02 0.  0.
         13    1    3    3    0    0 -0.32066739886E+03 -0.12048465518E+03  0.17010862866E+03  0.38246709449E+03  0.00000000000E+00 0.  1.
        -13    1    3    3    0    0 -0.26371771352E+02 -0.45321992633E+02  0.38123958259E+02  0.64830467635E+02  0.00000000000E+00 0. -1.
         22    1    1    2    0    0  0.34703917022E+03  0.16580664781E+03  0.49195073452E+03  0.62445460629E+03  0.00000000000E+00 0.  1.
<mgrwt>
<rscale>  0 0.81141606E+03</rscale>
<asrwt>0</asrwt>
<pdfrwt beam="1">  1        2 0.13630273E+00 0.81141606E+03</pdfrwt>
<pdfrwt beam="2">  1       -2 0.28582220E-01 0.81141606E+03</pdfrwt>
<totfact> 0.33761899E+02</totfact>
</mgrwt>
</event>
<event>
 6    1  0.5026615E-004  0.7304639E+03  0.7818608E-02  0.9666508E-01
          2   -1    0    0  501    0  0.00000000000E+00  0.00000000000E+00  0.19944613222E+04  0.19944613222E+04  0.00000000000E+00 0.  1.
         -2   -1    0    0    0  501 -0.00000000000E+00 -0.00000000000E+00 -0.66882408432E+02  0.66882408432E+02  0.00000000000E+00 0. -1.
         23    2    1    2    0    0  0.21022525261E+03  0.58538932971E+02  0.17851102817E+04  0.18007314235E+04  0.91615928122E+02 0.  0.
         13    1    3    3    0    0  0.42713852520E+01  0.27320855278E+02  0.25852732516E+03  0.26000202253E+03  0.00000000000E+00 0.  1.
        -13    1    3    3    0    0  0.20595386735E+03  0.31218077693E+02  0.15265829565E+04  0.15407294010E+04  0.00000000000E+00 0. -1.
         22    1    1    2    0    0 -0.21022525261E+03 -0.58538932971E+02  0.14246863210E+03  0.26061230715E+03  0.00000000000E+00 0. -1.
<mgrwt>
<rscale>  0 0.73046390E+03</rscale>
<asrwt>0</asrwt>
<pdfrwt beam="1">  1        2 0.30684016E+00 0.73046390E+03</pdfrwt>
<pdfrwt beam="2">  1       -2 0.10289603E-01 0.73046390E+03</pdfrwt>
<totfact> 0.45182417E+02</totfact>
</mgrwt>
</event>
<event>
 6    1  0.5026615E-004  0.1049864E+04  0.7818608E-02  0.9255484E-01
         -2   -1    0    0    0  501 -0.00000000000E+00  0.00000000000E+00  0.25611618560E+03  0.25611618560E+03  0.00000000000E+00 0. -1.
          2   -1    0    0  501    0  0.00000000000E+00 -0.00000000000E+00 -0.10758934598E+04  0.10758934598E+04  0.00000000000E+00 0.  1.
         23    2    1    2    0    0 -0.41295419541E+03  0.22719820591E+03 -0.69424922230E+03  0.84425203747E+03  0.92894175522E+02 0.  0.
         13    1    3    3    0    0 -0.19776729435E+03  0.12555218866E+03 -0.42191923877E+03  0.48258791824E+03  0.00000000000E+00 0.  1.
        -13    1    3    3    0    0 -0.21518690106E+03  0.10164601725E+03 -0.27232998353E+03  0.36166411923E+03  0.00000000000E+00 0. -1.
         22    1    1    2    0    0  0.41295419541E+03 -0.22719820591E+03 -0.12552805190E+03  0.48775760792E+03  0.00000000000E+00 0.  1.
<mgrwt>
<rscale>  0 0.10498642E+04</rscale>
<asrwt>0</asrwt>
<pdfrwt beam="1">  1        2 0.16552208E+00 0.10498642E+04</pdfrwt>
<pdfrwt beam="2">  1       -2 0.39402489E-01 0.10498642E+04</pdfrwt>
<totfact> 0.13664523E+02</totfact>
</mgrwt>
</event>
<event>
 6    1  0.5026615E-004  0.7460716E+03  0.7818608E-02  0.9641534E-01
          2   -1    0    0  501    0  0.00000000000E+00  0.00000000000E+00  0.43171826158E+03  0.43171826158E+03  0.00000000000E+00 0.  1.
         -2   -1    0    0    0  501 -0.00000000000E+00 -0.00000000000E+00 -0.32232986962E+03  0.32232986962E+03  0.00000000000E+00 0. -1.
         23    2    1    2    0    0 -0.22318391383E+03 -0.27062556832E+03  0.16677338987E+03  0.39860151692E+03  0.89557512811E+02 0.  0.
         11    1    3    3    0    0 -0.86714760420E+02 -0.14135454635E+03  0.12056993971E+03  0.20503089477E+03  0.00000000000E+00 0.  1.
        -11    1    3    3    0    0 -0.13646915341E+03 -0.12927102197E+03  0.46203450167E+02  0.19357062215E+03  0.00000000000E+00 0. -1.
         22    1    1    2    0    0  0.22318391383E+03  0.27062556832E+03 -0.57384997906E+02  0.35544661428E+03  0.00000000000E+00 0.  1.
<mgrwt>
<rscale>  0 0.74607155E+03</rscale>
<asrwt>0</asrwt>
<pdfrwt beam="1">  1        2 0.66418194E-01 0.74607155E+03</pdfrwt>
<pdfrwt beam="2">  1       -2 0.49589210E-01 0.74607155E+03</pdfrwt>
<totfact> 0.28301566E+02</totfact>
</mgrwt>
</event>
<event>
 6    1  0.5026615E-004  0.6751109E+04  0.7818608E-02  0.7603663E-01
         -2   -1    0    0    0  501 -0.00000000000E+00  0.00000000000E+00  0.24087059355E+04  0.24087059355E+04  0.00000000000E+00 0. -1.
          2   -1    0    0  501    0  0.00000000000E+00 -0.00000000000E+00 -0.47304935598E+04  0.47304935598E+04  0.00000000000E+00 0.  1.
         23    2    1    2    0    0 -0.67479112428E+03 -0.97672163687E+03 -0.45019687577E+04  0.46567575540E+04  0.91323621436E+02 0.  0.
         13    1    3    3    0    0 -0.37603706529E+03 -0.47131162580E+03 -0.23555039102E+04  0.24314475512E+04  0.00000000000E+00 0. -1.
        -13    1    3    3    0    0 -0.29875405900E+03 -0.50541001106E+03 -0.21464648475E+04  0.22253100028E+04  0.00000000000E+00 0.  1.
         22    1    1    2    0    0  0.67479112428E+03  0.97672163687E+03  0.21801811334E+04  0.24824419413E+04  0.00000000000E+00 0. -1.
<mgrwt>
<rscale>  0 0.67511089E+04</rscale>
<asrwt>0</asrwt>
<pdfrwt beam="1">  1        2 0.72776823E+00 0.67511089E+04</pdfrwt>
<pdfrwt beam="2">  1       -2 0.37057015E+00 0.67511089E+04</pdfrwt>
<totfact> 0.51152453E-04</totfact>
</mgrwt>
</event>
<event>
 6    1  0.5026615E-004  0.3759627E+04  0.7818608E-02  0.8054875E-01
          2   -1    0    0  501    0  0.00000000000E+00  0.00000000000E+00  0.33914937863E+04  0.33914937863E+04  0.00000000000E+00 0. -1.
         -2   -1    0    0    0  501 -0.00000000000E+00 -0.00000000000E+00 -0.10419300519E+04  0.10419300519E+04  0.00000000000E+00 0.  1.
         23    2    1    2    0    0  0.12840734777E+04  0.13711824892E+04  0.11510967339E+04  0.22051264465E+04  0.92589629085E+02 0.  0.
         11    1    3    3    0    0  0.67913810763E+03  0.65952455172E+03  0.59264543637E+03  0.11168839764E+04  0.00000000000E+00 0. -1.
        -11    1    3    3    0    0  0.60493537004E+03  0.71165793745E+03  0.55845129756E+03  0.10882424700E+04  0.00000000000E+00 0.  1.
         22    1    1    2    0    0 -0.12840734777E+04 -0.13711824892E+04  0.11984670005E+04  0.22282973917E+04  0.00000000000E+00 0.  1.
<mgrwt>
<rscale>  0 0.37596273E+04</rscale>
<asrwt>0</asrwt>
<pdfrwt beam="1">  1        2 0.52176827E+00 0.37596273E+04</pdfrwt>
<pdfrwt beam="2">  1       -2 0.16029693E+00 0.37596273E+04</pdfrwt>
<totfact> 0.19452115E-01</totfact>
</mgrwt>
</event>
<event>
 6    1  0.5026615E-004  0.1254857E+04  0.7818608E-02  0.9066151E-01
         -2   -1    0    0    0  501 -0.00000000000E+00  0.00000000000E+00  0.68638043880E+03  0.68638043880E+03  0.00000000000E+00 0. -1.
          2   -1    0    0  501    0  0.00000000000E+00 -0.00000000000E+00 -0.57353939870E+03  0.57353939870E+03  0.00000000000E+00 0.  1.
         23    2    1    2    0    0  0.25459393749E+03 -0.42722649709E+03 -0.32201224935E+03  0.59928534235E+03  0.90058203433E+02 0.  0.
         11    1    3    3    0    0  0.99531560866E+02 -0.23831665659E+03 -0.19663530268E+03  0.32460253029E+03  0.00000000000E+00 0. -1.
        -11    1    3    3    0    0  0.15506237662E+03 -0.18890984051E+03 -0.12537694667E+03  0.27468281206E+03  0.00000000000E+00 0.  1.
         22    1    1    2    0    0 -0.25459393749E+03  0.42722649709E+03  0.43485328945E+03  0.66063449514E+03  0.00000000000E+00 0. -1.
<mgrwt>
<rscale>  0 0.12548565E+04</rscale>
<asrwt>0</asrwt>
<pdfrwt beam="1">  1        2 0.88236830E-01 0.12548565E+04</pdfrwt>
<pdfrwt beam="2">  1       -2 0.10559699E+00 0.12548565E+04</pdfrwt>
<totfact> 0.37339037E+01</totfact>
</mgrwt>
</event>
<event>
 6    1  0.5026615E-004  0.1892359E+04  0.7818608E-02  0.8658669E-01
         -2   -1    0    0    0  501 -0.00000000000E+00  0.00000000000E+00  0.72542703166E+03  0.72542703166E+03  0.00000000000E+00 0. -1.
          2   -1    0    0  501    0  0.00000000000E+00 -0.00000000000E+00 -0.12341088469E+04  0.12341088469E+04  0.00000000000E+00 0.  1.
         23    2    1    2    0    0 -0.12627772974E+03 -0.25976955561E+03 -0.11855647123E+04  0.12236033114E+04  0.90637130970E+02 0.  0.
         11    1    3    3    0    0 -0.82807458511E+02 -0.15507499534E+03 -0.53238300117E+03  0.56065764001E+03  0.00000000000E+00 0. -1.
        -11    1    3    3    0    0 -0.43470271229E+02 -0.10469456027E+03 -0.65318171114E+03  0.66294567138E+03  0.00000000000E+00 0.  1.
         22    1    1    2    0    0  0.12627772974E+03  0.25976955561E+03  0.67688289708E+03  0.73593256716E+03  0.00000000000E+00 0. -1.
<mgrwt>
<rscale>  0 0.18923593E+04</rscale>
<asrwt>0</asrwt>
<pdfrwt beam="1">  1        2 0.18986290E+00 0.18923593E+04</pdfrwt>
<pdfrwt beam="2">  1       -2 0.11160416E+00 0.18923593E+04</pdfrwt>
<totfact> 0.10746675E+01</totfact>
</mgrwt>
</event>
<event>
 6    1  0.5026615E-004  0.5472068E+04  0.7818608E-02  0.7759544E-01
          2   -1    0    0  501    0  0.00000000000E+00  0.00000000000E+00  0.21376418264E+04  0.21376418264E+04  0.00000000000E+00 0.  1.
         -2   -1    0    0    0  501 -0.00000000000E+00 -0.00000000000E+00 -0.35019340425E+04  0.35019340425E+04  0.00000000000E+00 0. -1.
         23    2    1    2    0    0 -0.24000454418E+04  0.32951814246E+03  0.62655207173E+03  0.25039321858E+04  0.91151324285E+02 0.  0.
         13    1    3    3    0    0 -0.18121994305E+04  0.28767433512E+03  0.46726260186E+03  0.18934512505E+04  0.00000000000E+00 0. -1.
        -13    1    3    3    0    0 -0.58784601125E+03  0.41843807341E+02  0.15928946987E+03  0.61048093530E+03  0.00000000000E+00 0.  1.
         22    1    1    2    0    0  0.24000454418E+04 -0.32951814246E+03 -0.19908442879E+04  0.31356436831E+04  0.00000000000E+00 0. -1.
<mgrwt>
<rscale>  0 0.54720675E+04</rscale>
<asrwt>0</asrwt>
<pdfrwt beam="1">  1        2 0.32886798E+00 0.54720675E+04</pdfrwt>
<pdfrwt beam="2">  1       -2 0.53875908E+00 0.54720675E+04</pdfrwt>
<totfact> 0.38947409E-03</totfact>
</mgrwt>
</event>
<event>
 6    1  0.5026615E-004  0.4054531E+04  0.7818608E-02  0.7993635E-01
         -2   -1    0    0    0  501 -0.00000000000E+00  0.00000000000E+00  0.17671386564E+04  0.17671386564E+04  0.00000000000E+00 0. -1.
          2   -1    0    0  501    0  0.00000000000E+00 -0.00000000000E+00 -0.23256833403E+04  0.23256833403E+04  0.00000000000E+00 0.  1.
         23    2    1    2    0    0  0.80543835473E+03 -0.18016734280E+04 -0.74287253544E+03  0.21107183562E+04  0.92272915817E+02 0.  0.
         13    1    3    3    0    0  0.25908973594E+03 -0.68637029653E+03 -0.28584045025E+03  0.78736042460E+03  0.00000000000E+00 0. -1.
        -13    1    3    3    0    0  0.54634861878E+03 -0.11153031315E+04 -0.45703208519E+03  0.13233579316E+04  0.00000000000E+00 0.  1.
         22    1    1    2    0    0 -0.80543835473E+03  0.18016734280E+04  0.18432785156E+03  0.19821036404E+04  0.00000000000E+00 0. -1.
<mgrwt>
<rscale>  0 0.40545308E+04</rscale>
<asrwt>0</asrwt>
<pdfrwt beam="1">  1        2 0.35779743E+00 0.40545308E+04</pdfrwt>
<pdfrwt beam="2">  1       -2 0.27186749E+00 0.40545308E+04</pdfrwt>
<totfact> 0.16255984E-01</totfact>
</mgrwt>
</event>
<event>
 6    1  0.5026615E-004  0.4516749E+04  0.7818608E-02  0.7907711E-01
         -2   -1    0    0    0  501 -0.00000000000E+00  0.00000000000E+00  0.31469930720E+04  0.31469930720E+04  0.00000000000E+00 0. -1.
          2   -1    0    0  501    0  0.00000000000E+00 -0.00000000000E+00 -0.16206759676E+04  0.16206759676E+04  0.00000000000E+00 0.  1.
         23    2    1    2    0    0 -0.24786532281E+02 -0.18246643841E+04 -0.63977407086E+03  0.19353615940E+04  0.79367189194E+02 0.  0.
         11    1    3    3    0    0 -0.30047220158E+02 -0.15790461063E+04 -0.58049872065E+03  0.16826372770E+04  0.00000000000E+00 0.  1.
        -11    1    3    3    0    0  0.52606878769E+01 -0.24561827780E+03 -0.59275350214E+02  0.25272431694E+03  0.00000000000E+00 0. -1.
         22    1    1    2    0    0  0.24786532281E+02  0.18246643841E+04  0.21660911753E+04  0.28323074457E+04  0.00000000000E+00 0. -1.
<mgrwt>
<rscale>  0 0.45167493E+04</rscale>
<asrwt>0</asrwt>
<pdfrwt beam="1">  1        2 0.24933476E+00 0.45167493E+04</pdfrwt>
<pdfrwt beam="2">  1       -2 0.48415278E+00 0.45167493E+04</pdfrwt>
<totfact> 0.17116739E-02</totfact>
</mgrwt>
</event>
<event>
 6    1  0.5026615E-004  0.1857507E+04  0.7818608E-02  0.8676302E-01
          2   -1    0    0  501    0  0.00000000000E+00  0.00000000000E+00  0.14461398327E+04  0.14461398327E+04  0.00000000000E+00 0.  1.
         -2   -1    0    0    0  501 -0.00000000000E+00 -0.00000000000E+00 -0.59647285490E+03  0.59647285490E+03  0.00000000000E+00 0. -1.
         23    2    1    2    0    0 -0.83104994775E+03  0.40743542429E+03  0.47141359749E+03  0.10427510670E+04  0.91931317578E+02 0.  0.
         11    1    3    3    0    0 -0.54502453629E+03  0.21798751802E+03  0.29347794271E+03  0.65627708022E+03  0.00000000000E+00 0. -1.
        -11    1    3    3    0    0 -0.28602541146E+03  0.18944790627E+03  0.17793565478E+03  0.38647398675E+03  0.00000000000E+00 0.  1.
         22    1    1    2    0    0  0.83104994775E+03 -0.40743542429E+03  0.37825338027E+03  0.99986162058E+03  0.00000000000E+00 0.  1.
<mgrwt>
<rscale>  0 0.18575071E+04</rscale>
<asrwt>0</asrwt>
<pdfrwt beam="1">  1        2 0.22248305E+00 0.18575071E+04</pdfrwt>
<pdfrwt beam="2">  1       -2 0.91765055E-01 0.18575071E+04</pdfrwt>
<totfact> 0.12931687E+01</totfact>
</mgrwt>
</event>
<event>
 6    1  0.5026615E-004  0.2975022E+04  0.7818608E-02  0.8250900E-01
         -2   -1    0    0    0  501 -0.00000000000E+00  0.00000000000E+00  0.68395298694E+03  0.68395298694E+03  0.00000000000E+00 0. -1.
          2   -1    0    0  501    0  0.00000000000E+00 -0.00000000000E+00 -0.32351477299E+04  0.32351477299E+04  0.00000000000E+00 0.  1.
         23    2    1    2    0    0 -0.36185481063E+03 -0.12060285204E+04 -0.23168067061E+04  0.26383269477E+04  0.87932209380E+02 0.  0.
         13    1    3    3    0    0 -0.18874605825E+03 -0.56265603448E+03 -0.11743547900E+04  0.13157948398E+04  0.00000000000E+00 0. -1.
        -13    1    3    3    0    0 -0.17310875238E+03 -0.64337248591E+03 -0.11424519161E+04  0.13225321079E+04  0.00000000000E+00 0.  1.
         22    1    1    2    0    0  0.36185481063E+03  0.12060285204E+04 -0.23438803685E+03  0.12807737692E+04  0.00000000000E+00 0. -1.
<mgrwt>
<rscale>  0 0.29750220E+04</rscale>
<asrwt>0</asrwt>
<pdfrwt beam="1">  1        2 0.49771503E+00 0.29750220E+04</pdfrwt>
<pdfrwt beam="2">  1       -2 0.10522354E+00 0.29750220E+04</pdfrwt>
<totfact> 0.77091043E-01</totfact>
</mgrwt>
</event>
<event>
 6    1  0.5026615E-004  0.1890330E+04  0.7818608E-02  0.8659685E-01
          2   -1    0    0  501    0  0.00000000000E+00  0.00000000000E+00  0.10815771131E+04  0.10815771131E+04  0.00000000000E+00 0.  1.
         -2   -1    0    0    0  501 -0.00000000000E+00 -0.00000000000E+00 -0.82595781592E+03  0.82595781592E+03  0.00000000000E+00 0. -1.
         23    2    1    2    0    0 -0.40784546002E+03 -0.31718228387E+02 -0.72902310749E+03  0.84129638612E+03  0.94662309120E+02 0.  0.
         11    1    3    3    0    0 -0.21959923183E+03  0.24557725238E+02 -0.43085955345E+03  0.48421778085E+03  0.00000000000E+00 0. -1.
        -11    1    3    3    0    0 -0.18824622819E+03 -0.56275953625E+02 -0.29816355405E+03  0.35707860527E+03  0.00000000000E+00 0.  1.
         22    1    1    2    0    0  0.40784546002E+03  0.31718228387E+02  0.98464240464E+03  0.10662385429E+04  0.00000000000E+00 0.  1.
<mgrwt>
<rscale>  0 0.18903302E+04</rscale>
<asrwt>0</asrwt>
<pdfrwt beam="1">  1        2 0.16639648E+00 0.18903302E+04</pdfrwt>
<pdfrwt beam="2">  1       -2 0.12707043E+00 0.18903302E+04</pdfrwt>
<totfact> 0.96456074E+00</totfact>
</mgrwt>
</event>
<event>
 6    1  0.5026615E-004  0.2815372E+04  0.7818608E-02  0.8298512E-01
          2   -1    0    0  501    0  0.00000000000E+00  0.00000000000E+00  0.17058317304E+04  0.17058317304E+04  0.00000000000E+00 0.  1.
         -2   -1    0    0    0  501 -0.00000000000E+00 -0.00000000000E+00 -0.11616505965E+04  0.11616505965E+04  0.00000000000E+00 0. -1.
         23    2    1    2    0    0  0.67016736293E+03  0.56377262839E+03 -0.84819785537E+03  0.12225862450E+04  0.91179239125E+02 0.  0.
         11    1    3    3    0    0  0.39253775617E+03  0.32966295912E+03 -0.55807362127E+03  0.75776627227E+03  0.00000000000E+00 0.  1.
        -11    1    3    3    0    0  0.27762960676E+03  0.23410966927E+03 -0.29012423409E+03  0.46481997268E+03  0.00000000000E+00 0. -1.
         22    1    1    2    0    0 -0.67016736293E+03 -0.56377262839E+03  0.13923789892E+04  0.16448960819E+04  0.00000000000E+00 0.  1.
<mgrwt>
<rscale>  0 0.28153724E+04</rscale>
<asrwt>0</asrwt>
<pdfrwt beam="1">  1        2 0.26243565E+00 0.28153724E+04</pdfrwt>
<pdfrwt beam="2">  1       -2 0.17871548E+00 0.28153724E+04</pdfrwt>
<totfact> 0.15659094E+00</totfact>
</mgrwt>
</event>
<event>
 6    1  0.5026615E-004  0.4954480E+04  0.7818608E-02  0.7835568E-01
          2   -1    0    0  501    0  0.00000000000E+00  0.00000000000E+00  0.28071597402E+04  0.28071597402E+04  0.00000000000E+00 0.  1.
         -2   -1    0    0    0  501 -0.00000000000E+00 -0.00000000000E+00 -0.21860953487E+04  0.21860953487E+04  0.00000000000E+00 0. -1.
         23    2    1    2    0    0  0.14787793725E+04  0.17421937859E+03  0.23048715191E+04  0.27455123839E+04  0.90910428908E+02 0.  0.
         11    1    3    3    0    0  0.10048010520E+04  0.93561168882E+02  0.16238326514E+04  0.19118606974E+04  0.00000000000E+00 0. -1.
        -11    1    3    3    0    0  0.47397832051E+03  0.80658209712E+02  0.68103886777E+03  0.83365168657E+03  0.00000000000E+00 0.  1.
         22    1    1    2    0    0 -0.14787793725E+04 -0.17421937859E+03 -0.16838071277E+04  0.22477427050E+04  0.00000000000E+00 0. -1.
<mgrwt>
<rscale>  0 0.49544803E+04</rscale>
<asrwt>0</asrwt>
<pdfrwt beam="1">  1        2 0.43187073E+00 0.49544803E+04</pdfrwt>
<pdfrwt beam="2">  1       -2 0.33632236E+00 0.49544803E+04</pdfrwt>
<totfact> 0.31708428E-02</totfact>
</mgrwt>
</event>
<event>
 6    1  0.5026615E-004  0.1972710E+04  0.7818608E-02  0.8619487E-01
          2   -1    0    0  501    0  0.00000000000E+00  0.00000000000E+00  0.87331986954E+03  0.87331986954E+03  0.00000000000E+00 0.  1.
         -2   -1    0    0    0  501 -0.00000000000E+00 -0.00000000000E+00 -0.11140202558E+04  0.11140202558E+04  0.00000000000E+00 0. -1.
         23    2    1    2    0    0  0.55648363667E+03  0.28876548835E+03  0.64372257633E+03  0.90324440914E+03  0.91717840259E+02 0.  0.
         11    1    3    3    0    0  0.24996864986E+03  0.11051831484E+03  0.34106598821E+03  0.43706364770E+03  0.00000000000E+00 0.  1.
        -11    1    3    3    0    0  0.30651498681E+03  0.17824717351E+03  0.30265658812E+03  0.46618076144E+03  0.00000000000E+00 0. -1.
         22    1    1    2    0    0 -0.55648363667E+03 -0.28876548835E+03 -0.88442296263E+03  0.10840957162E+04  0.00000000000E+00 0. -1.
<mgrwt>
<rscale>  0 0.19727098E+04</rscale>
<asrwt>0</asrwt>
<pdfrwt beam="1">  1        2 0.13435690E+00 0.19727098E+04</pdfrwt>
<pdfrwt beam="2">  1       -2 0.17138773E+00 0.19727098E+04</pdfrwt>
<totfact> 0.59298476E+00</totfact>
</mgrwt>
</event>
<event>
 6    1  0.5026615E-004  0.1392381E+04  0.7818608E-02  0.8959352E-01
          2   -1    0    0  501    0  0.00000000000E+00  0.00000000000E+00  0.91589443253E+03  0.91589443253E+03  0.00000000000E+00 0.  1.
         -2   -1    0    0    0  501 -0.00000000000E+00 -0.00000000000E+00 -0.52918922313E+03  0.52918922313E+03  0.00000000000E+00 0. -1.
         23    2    1    2    0    0 -0.19588718398E+03 -0.22678839801E+03  0.84280760834E+03  0.89934180768E+03  0.93200086092E+02 0.  0.
         13    1    3    3    0    0 -0.64613278415E+02 -0.14585452111E+03  0.43925924948E+03  0.46732976080E+03  0.00000000000E+00 0. -1.
        -13    1    3    3    0    0 -0.13127390556E+03 -0.80933876905E+02  0.40354835886E+03  0.43201204688E+03  0.00000000000E+00 0.  1.
         22    1    1    2    0    0  0.19588718398E+03  0.22678839801E+03 -0.45610239894E+03  0.54574184798E+03  0.00000000000E+00 0. -1.
<mgrwt>
<rscale>  0 0.13923814E+04</rscale>
<asrwt>0</asrwt>
<pdfrwt beam="1">  1        2 0.14090684E+00 0.13923814E+04</pdfrwt>
<pdfrwt beam="2">  1       -2 0.81413727E-01 0.13923814E+04</pdfrwt>
<totfact> 0.37028057E+01</totfact>
</mgrwt>
</event>
<event>
 6    1  0.5026615E-004  0.1189070E+04  0.7818608E-02  0.9122478E-01
         -2   -1    0    0    0  501 -0.00000000000E+00  0.00000000000E+00  0.41679241332E+03  0.41679241332E+03  0.00000000000E+00 0. -1.
          2   -1    0    0  501    0  0.00000000000E+00 -0.00000000000E+00 -0.84807618686E+03  0.84807618686E+03  0.00000000000E+00 0.  1.
         23    2    1    2    0    0  0.15446583086E+03  0.41580959992E+03 -0.63245541389E+03  0.77780870122E+03  0.90714986851E+02 0.  0.
         13    1    3    3    0    0  0.12901618187E+03  0.28772716077E+03 -0.50479380666E+03  0.59518810595E+03  0.00000000000E+00 0. -1.
        -13    1    3    3    0    0  0.25449648993E+02  0.12808243916E+03 -0.12766160723E+03  0.18262059527E+03  0.00000000000E+00 0.  1.
         22    1    1    2    0    0 -0.15446583086E+03 -0.41580959992E+03  0.20117164035E+03  0.48705989896E+03  0.00000000000E+00 0. -1.
<mgrwt>
<rscale>  0 0.11890698E+04</rscale>
<asrwt>0</asrwt>
<pdfrwt beam="1">  1        2 0.13047326E+00 0.11890698E+04</pdfrwt>
<pdfrwt beam="2">  1       -2 0.64121910E-01 0.11890698E+04</pdfrwt>
<totfact> 0.70692380E+01</totfact>
</mgrwt>
</event>
<event>
 6    1  0.5026615E-004  0.2855780E+04  0.7818608E-02  0.8286157E-01
         -2   -1    0    0    0  501 -0.00000000000E+00  0.00000000000E+00  0.82005592253E+03  0.82005592253E+03  0.00000000000E+00 0. -1.
          2   -1    0    0  501    0  0.00000000000E+00 -0.00000000000E+00 -0.24862573450E+04  0.24862573450E+04  0.00000000000E+00 0.  1.
         23    2    1    2    0    0 -0.28589823409E+03 -0.13824211409E+04 -0.10718979536E+04  0.17746401222E+04  0.86927149107E+02 0.  0.
         13    1    3    3    0    0 -0.15694094392E+03 -0.55094404692E+03 -0.42553714941E+03  0.71361871349E+03  0.00000000000E+00 0.  1.
        -13    1    3    3    0    0 -0.12895729016E+03 -0.83147709397E+03 -0.64636080423E+03  0.10610214087E+04  0.00000000000E+00 0. -1.
         22    1    1    2    0    0  0.28589823409E+03  0.13824211409E+04 -0.59430346883E+03  0.15316731453E+04  0.00000000000E+00 0.  1.
<mgrwt>
<rscale>  0 0.28557801E+04</rscale>
<asrwt>0</asrwt>
<pdfrwt beam="1">  1        2 0.38250114E+00 0.28557801E+04</pdfrwt>
<pdfrwt beam="2">  1       -2 0.12616245E+00 0.28557801E+04</pdfrwt>
<totfact> 0.14383585E+00</totfact>
</mgrwt>
</event>
<event>
 6    1  0.5026615E-004  0.1234579E+04  0.7818608E-02  0.9083116E-01
         -2   -1    0    0    0  501 -0.00000000000E+00  0.00000000000E+00  0.48315159670E+03  0.48315159670E+03  0.00000000000E+00 0. -1.
          2   -1    0    0  501    0  0.00000000000E+00 -0.00000000000E+00 -0.78866875016E+03  0.78866875016E+03  0.00000000000E+00 0.  1.
         23    2    1    2    0    0 -0.18471237527E+03  0.59121216919E+02 -0.75361547526E+03  0.78355189010E+03  0.91669515413E+02 0.  0.
         13    1    3    3    0    0 -0.66765747190E+02 -0.10968005490E+02 -0.37009686661E+03  0.37623085043E+03  0.00000000000E+00 0.  1.
        -13    1    3    3    0    0 -0.11794662808E+03  0.70089222409E+02 -0.38351860865E+03  0.40732103967E+03  0.00000000000E+00 0. -1.
         22    1    1    2    0    0  0.18471237527E+03 -0.59121216919E+02  0.44809832180E+03  0.48826845676E+03  0.00000000000E+00 0. -1.
<mgrwt>
<rscale>  0 0.12345794E+04</rscale>
<asrwt>0</asrwt>
<pdfrwt beam="1">  1        2 0.12133365E+00 0.12345794E+04</pdfrwt>
<pdfrwt beam="2">  1       -2 0.74331015E-01 0.12345794E+04</pdfrwt>
<totfact> 0.56321767E+01</totfact>
</mgrwt>
</event>
<event>
 6    1  0.5026615E-004  0.9867743E+03  0.7818608E-02  0.9323171E-01
          2   -1    0    0  501    0  0.00000000000E+00  0.00000000000E+00  0.32776598583E+04  0.32776598583E+04  0.00000000000E+00 0.  1.
         -2   -1    0    0    0  501 -0.00000000000E+00 -0.00000000000E+00 -0.74269721703E+02  0.74269721703E+02  0.00000000000E+00 0. -1.
         23    2    1    2    0    0  0.30823106252E+03  0.28767772921E+03  0.77841169942E+03  0.89057115739E+03  0.97094535374E+02 0.  0.
         13    1    3    3    0    0  0.46939000976E+02  0.85615427057E+02  0.23743680545E+03  0.25672847085E+03  0.00000000000E+00 0. -1.
        -13    1    3    3    0    0  0.26129206155E+03  0.20206230215E+03  0.54097489397E+03  0.63384268655E+03  0.00000000000E+00 0.  1.
         22    1    1    2    0    0 -0.30823106252E+03 -0.28767772921E+03  0.24249784372E+04  0.24613584226E+04  0.00000000000E+00 0.  1.
<mgrwt>
<rscale>  0 0.98677431E+03</rscale>
<asrwt>0</asrwt>
<pdfrwt beam="1">  1        2 0.50425525E+00 0.98677431E+03</pdfrwt>
<pdfrwt beam="2">  1       -2 0.11426114E-01 0.98677431E+03</pdfrwt>
<totfact> 0.65848834E+01</totfact>
</mgrwt>
</event>
<event>
 6    1  0.5026615E-004  0.1788808E+04  0.7818608E-02  0.8712274E-01
         -2   -1    0    0    0  501 -0.00000000000E+00  0.00000000000E+00  0.92154046373E+03  0.92154046373E+03  0.00000000000E+00 0. -1.
          2   -1    0    0  501    0  0.00000000000E+00 -0.00000000000E+00 -0.86806709942E+03  0.86806709942E+03  0.00000000000E+00 0.  1.
         23    2    1    2    0    0 -0.38684394705E+03  0.77670397154E+03  0.23357987836E+03  0.90340462072E+03  0.93075509060E+02 0.  0.
         13    1    3    3    0    0 -0.17836833261E+03  0.38975425561E+03  0.16124546013E+03  0.45795604620E+03  0.00000000000E+00 0. -1.
        -13    1    3    3    0    0 -0.20847561444E+03  0.38694971593E+03  0.72334418227E+02  0.44544857451E+03  0.00000000000E+00 0.  1.
         22    1    1    2    0    0  0.38684394705E+03 -0.77670397154E+03 -0.18010651405E+03  0.88620294243E+03  0.00000000000E+00 0. -1.
<mgrwt>
<rscale>  0 0.17888085E+04</rscale>
<asrwt>0</asrwt>
<pdfrwt beam="1">  1        2 0.13354879E+00 0.17888085E+04</pdfrwt>
<pdfrwt beam="2">  1       -2 0.14177545E+00 0.17888085E+04</pdfrwt>
<totfact> 0.10124080E+01</totfact>
</mgrwt>
</event>
<event>
 6    1  0.5026615E-004  0.1893162E+04  0.7818608E-02  0.8658268E-01
          2   -1    0    0  501    0  0.00000000000E+00  0.00000000000E+00  0.80606560485E+03  0.80606560485E+03  0.00000000000E+00 0.  1.
         -2   -1    0    0    0  501 -0.00000000000E+00 -0.00000000000E+00 -0.11115909287E+04  0.11115909287E+04  0.00000000000E+00 0. -1.
         23    2    1    2    0    0 -0.86269451780E+03  0.12064546465E+03 -0.52250790065E+03  0.10199491215E+04  0.92111589675E+02 0.  0.
         11    1    3    3    0    0 -0.46423733039E+03  0.32229342392E+02 -0.31624452738E+03  0.56264165376E+03  0.00000000000E+00 0. -1.
        -11    1    3    3    0    0 -0.39845718741E+03  0.88416122254E+02 -0.20626337327E+03  0.45730746771E+03  0.00000000000E+00 0.  1.
         22    1    1    2    0    0  0.86269451780E+03 -0.12064546465E+03  0.21698257676E+03  0.89770741213E+03  0.00000000000E+00 0. -1.
<mgrwt>
<rscale>  0 0.18931616E+04</rscale>
<asrwt>0</asrwt>
<pdfrwt beam="1">  1        2 0.12401009E+00 0.18931616E+04</pdfrwt>
<pdfrwt beam="2">  1       -2 0.17101399E+00 0.18931616E+04</pdfrwt>
<totfact> 0.66952375E+00</totfact>
</mgrwt>
</event>
<event>
 6    1  0.5026615E-004  0.2090116E+04  0.7818608E-02  0.8565610E-01
          4   -1    0    0  501    0  0.00000000000E+00  0.00000000000E+00  0.17516529805E+04  0.17516529805E+04  0.00000000000E+00 0.  1.
         -4   -1    0    0    0  501 -0.00000000000E+00 -0.00000000000E+00 -0.62349472610E+03  0.62349472610E+03  0.00000000000E+00 0. -1.
         23    2    1    2    0    0  0.48299059887E+03  0.92099492924E+03  0.47400576725E+03  0.11465602841E+04  0.91692089841E+02 0.  0.
         11    1    3    3    0    0  0.24416841752E+03  0.36826963555E+03  0.20388546517E+03  0.48663130139E+03  0.00000000000E+00 0.  1.
        -11    1    3    3    0    0  0.23882218134E+03  0.55272529369E+03  0.27012030208E+03  0.65992898268E+03  0.00000000000E+00 0. -1.
         22    1    1    2    0    0 -0.48299059887E+03 -0.92099492924E+03  0.65415248710E+03  0.12285874225E+04  0.00000000000E+00 0.  1.
<mgrwt>
<rscale>  0 0.20901162E+04</rscale>
<asrwt>0</asrwt>
<pdfrwt beam="1">  1        4 0.26948507E+00 0.20901162E+04</pdfrwt>
<pdfrwt beam="2">  1       -4 0.95922266E-01 0.20901162E+04</pdfrwt>
<totfact> 0.80393642E-02</totfact>
</mgrwt>
</event>
<event>
 6    1  0.5026615E-004  0.1083862E+04  0.7818608E-02  0.9221065E-01
          2   -1    0    0  501    0  0.00000000000E+00  0.00000000000E+00  0.63172858744E+03  0.63172858744E+03  0.00000000000E+00 0.  1.
         -2   -1    0    0    0  501 -0.00000000000E+00 -0.00000000000E+00 -0.46489764072E+03  0.46489764072E+03  0.00000000000E+00 0. -1.
         23    2    1    2    0    0 -0.21166342354E+03  0.42296410646E+03  0.34366975338E+03  0.59167870242E+03  0.90965637953E+02 0.  0.
         13    1    3    3    0    0 -0.12319326500E+03  0.31204436366E+03  0.20428293781E+03  0.39278465361E+03  0.00000000000E+00 0.  1.
        -13    1    3    3    0    0 -0.88470158545E+02  0.11091974280E+03  0.13938681557E+03  0.19889404880E+03  0.00000000000E+00 0. -1.
         22    1    1    2    0    0  0.21166342354E+03 -0.42296410646E+03 -0.17683880665E+03  0.50494752574E+03  0.00000000000E+00 0.  1.
<mgrwt>
<rscale>  0 0.10838619E+04</rscale>
<asrwt>0</asrwt>
<pdfrwt beam="1">  1        2 0.97189013E-01 0.10838619E+04</pdfrwt>
<pdfrwt beam="2">  1       -2 0.71522714E-01 0.10838619E+04</pdfrwt>
<totfact> 0.82129026E+01</totfact>
</mgrwt>
</event>
<event>
 6    1  0.5026615E-004  0.3027150E+04  0.7818608E-02  0.8236020E-01
         -2   -1    0    0    0  501 -0.00000000000E+00  0.00000000000E+00  0.17813753545E+04  0.17813753545E+04  0.00000000000E+00 0. -1.
          2   -1    0    0  501    0  0.00000000000E+00 -0.00000000000E+00 -0.12860340293E+04  0.12860340293E+04  0.00000000000E+00 0.  1.
         23    2    1    2    0    0 -0.17864055580E+03  0.10044854950E+04  0.13789138175E+04  0.17177413109E+04  0.91259724506E+02 0.  0.
         13    1    3    3    0    0 -0.61362663306E+02  0.50496995042E+03  0.62607957626E+03  0.80668188469E+03  0.00000000000E+00 0. -1.
        -13    1    3    3    0    0 -0.11727789249E+03  0.49951554454E+03  0.75283424122E+03  0.91105942620E+03  0.00000000000E+00 0.  1.
         22    1    1    2    0    0  0.17864055580E+03 -0.10044854950E+04 -0.88357249236E+03  0.13496680729E+04  0.00000000000E+00 0.  1.
<mgrwt>
<rscale>  0 0.30271500E+04</rscale>
<asrwt>0</asrwt>
<pdfrwt beam="1">  1        2 0.19785139E+00 0.30271500E+04</pdfrwt>
<pdfrwt beam="2">  1       -2 0.27405775E+00 0.30271500E+04</pdfrwt>
<totfact> 0.65864126E-01</totfact>
</mgrwt>
</event>
<event>
 6    1  0.5026615E-004  0.9276438E+03  0.7818608E-02  0.9391670E-01
          2   -1    0    0  501    0  0.00000000000E+00  0.00000000000E+00  0.11687285409E+04  0.11687285409E+04  0.00000000000E+00 0.  1.
         -2   -1    0    0    0  501 -0.00000000000E+00 -0.00000000000E+00 -0.18407248708E+03  0.18407248708E+03  0.00000000000E+00 0. -1.
         23    2    1    2    0    0  0.13862075494E+03 -0.37424374952E+03  0.16527068323E+03  0.44139196323E+03  0.90765459915E+02 0.  0.
         11    1    3    3    0    0 -0.85236403188E+00 -0.88115586739E+02  0.14978341220E+02  0.89383633046E+02  0.00000000000E+00 0.  1.
        -11    1    3    3    0    0  0.13947311897E+03 -0.28612816279E+03  0.15029234201E+03  0.35200833019E+03  0.00000000000E+00 0. -1.
         22    1    1    2    0    0 -0.13862075494E+03  0.37424374952E+03  0.81938537060E+03  0.91140906475E+03  0.00000000000E+00 0.  1.
<mgrwt>
<rscale>  0 0.92764383E+03</rscale>
<asrwt>0</asrwt>
<pdfrwt beam="1">  1        2 0.17980439E+00 0.92764383E+03</pdfrwt>
<pdfrwt beam="2">  1       -2 0.28318845E-01 0.92764383E+03</pdfrwt>
<totfact> 0.22578838E+02</totfact>
</mgrwt>
</event>
<event>
 6    1  0.5026615E-004  0.3737324E+04  0.7818608E-02  0.8059740E-01
         -2   -1    0    0    0  501 -0.00000000000E+00  0.00000000000E+00  0.15486428619E+04  0.15486428619E+04  0.00000000000E+00 0. -1.
          2   -1    0    0  501    0  0.00000000000E+00 -0.00000000000E+00 -0.22548118179E+04  0.22548118179E+04  0.00000000000E+00 0.  1.
         23    2    1    2    0    0 -0.38327645068E+03  0.17627226153E+04  0.13871326995E+03  0.18114913690E+04  0.90375620170E+02 0.  0.
         13    1    3    3    0    0 -0.14213034728E+03  0.58523052811E+03  0.86538633764E+02  0.60842809089E+03  0.00000000000E+00 0.  1.
        -13    1    3    3    0    0 -0.24114610340E+03  0.11774920872E+04  0.52174636182E+02  0.12030632781E+04  0.00000000000E+00 0. -1.
         22    1    1    2    0    0  0.38327645068E+03 -0.17627226153E+04 -0.84488222597E+03  0.19919633108E+04  0.00000000000E+00 0.  1.
<mgrwt>
<rscale>  0 0.37373243E+04</rscale>
<asrwt>0</asrwt>
<pdfrwt beam="1">  1        2 0.34689412E+00 0.37373243E+04</pdfrwt>
<pdfrwt beam="2">  1       -2 0.23825275E+00 0.37373243E+04</pdfrwt>
<totfact> 0.29436024E-01</totfact>
</mgrwt>
</event>
<event>
 6    1  0.5026615E-004  0.4619518E+04  0.7818608E-02  0.7890040E-01
          2   -1    0    0  501    0  0.00000000000E+00  0.00000000000E+00  0.30883439640E+04  0.30883439640E+04  0.00000000000E+00 0.  1.
         -2   -1    0    0    0  501 -0.00000000000E+00 -0.00000000000E+00 -0.17274588924E+04  0.17274588924E+04  0.00000000000E+00 0. -1.
         23    2    1    2    0    0  0.84047982871E+03  0.13201718420E+04  0.24503769335E+04  0.29089068047E+04  0.90175648062E+02 0.  0.
         11    1    3    3    0    0  0.74948282367E+03  0.11652607919E+04  0.22182405656E+04  0.26153677414E+04  0.00000000000E+00 0.  1.
        -11    1    3    3    0    0  0.90997005038E+02  0.15491105018E+03  0.23213636789E+03  0.29353906332E+03  0.00000000000E+00 0. -1.
         22    1    1    2    0    0 -0.84047982871E+03 -0.13201718420E+04 -0.10894918619E+04  0.19068960517E+04  0.00000000000E+00 0.  1.
<mgrwt>
<rscale>  0 0.46195183E+04</rscale>
<asrwt>0</asrwt>
<pdfrwt beam="1">  1        2 0.47512984E+00 0.46195183E+04</pdfrwt>
<pdfrwt beam="2">  1       -2 0.26576291E+00 0.46195183E+04</pdfrwt>
<totfact> 0.59059454E-02</totfact>
</mgrwt>
</event>
<event>
 6    1  0.5026615E-004  0.3035748E+04  0.7818608E-02  0.8233596E-01
         -2   -1    0    0    0  501 -0.00000000000E+00  0.00000000000E+00  0.72919872621E+03  0.72919872621E+03  0.00000000000E+00 0.  1.
          2   -1    0    0  501    0  0.00000000000E+00 -0.00000000000E+00 -0.31595532636E+04  0.31595532636E+04  0.00000000000E+00 0. -1.
         23    2    1    2    0    0  0.14649855251E+04 -0.37945052573E+03 -0.13413873211E+04  0.20243446071E+04  0.92118689112E+02 0.  0.
         13    1    3    3    0    0  0.10164478083E+04 -0.30544515493E+03 -0.92482218739E+03  0.14077496113E+04  0.00000000000E+00 0.  1.
        -13    1    3    3    0    0  0.44853771681E+03 -0.74005370793E+02 -0.41656513371E+03  0.61659499586E+03  0.00000000000E+00 0. -1.
         22    1    1    2    0    0 -0.14649855251E+04  0.37945052573E+03 -0.10889672163E+04  0.18644073826E+04  0.00000000000E+00 0.  1.
<mgrwt>
<rscale>  0 0.30357485E+04</rscale>
<asrwt>0</asrwt>
<pdfrwt beam="1">  1        2 0.48608512E+00 0.30357485E+04</pdfrwt>
<pdfrwt beam="2">  1       -2 0.11218442E+00 0.30357485E+04</pdfrwt>
<totfact> 0.73602197E-01</totfact>
</mgrwt>
</event>
<event>
 6    1  0.5026615E-004  0.2171649E+04  0.7818608E-02  0.8530322E-01
         -2   -1    0    0    0  501 -0.00000000000E+00  0.00000000000E+00  0.52579519571E+03  0.52579519571E+03  0.00000000000E+00 0. -1.
          2   -1    0    0  501    0  0.00000000000E+00 -0.00000000000E+00 -0.22423456681E+04  0.22423456681E+04  0.00000000000E+00 0.  1.
         23    2    1    2    0    0  0.17738673966E+03  0.20543609944E+03 -0.21974182023E+04  0.22159598971E+04  0.90340818880E+02 0.  0.
         11    1    3    3    0    0  0.99808893814E+02  0.16056895099E+03 -0.12362978591E+04  0.12506704601E+04  0.00000000000E+00 0. -1.
        -11    1    3    3    0    0  0.77577845844E+02  0.44867148454E+02 -0.96112034320E+03  0.96528943705E+03  0.00000000000E+00 0.  1.
         22    1    1    2    0    0 -0.17738673966E+03 -0.20543609944E+03  0.48086772987E+03  0.55218096670E+03  0.00000000000E+00 0. -1.
<mgrwt>
<rscale>  0 0.21716488E+04</rscale>
<asrwt>0</asrwt>
<pdfrwt beam="1">  1        2 0.34497626E+00 0.21716488E+04</pdfrwt>
<pdfrwt beam="2">  1       -2 0.80891568E-01 0.21716488E+04</pdfrwt>
<totfact> 0.60364745E+00</totfact>
</mgrwt>
</event>
<event>
 6    1  0.5026615E-004  0.6911644E+03  0.7818608E-02  0.9732463E-01
         -2   -1    0    0    0  501 -0.00000000000E+00  0.00000000000E+00  0.15761536865E+03  0.15761536865E+03  0.00000000000E+00 0. -1.
          2   -1    0    0  501    0  0.00000000000E+00 -0.00000000000E+00 -0.75771199398E+03  0.75771199398E+03  0.00000000000E+00 0.  1.
         23    2    1    2    0    0  0.80954394098E+02 -0.26563735562E+03 -0.39214271367E+02  0.28946329304E+03  0.71654869449E+02 0.  0.
         11    1    3    3    0    0  0.38301027288E+01 -0.12796329718E+03 -0.57514256899E+01  0.12814973277E+03  0.00000000000E+00 0.  1.
        -11    1    3    3    0    0  0.77124291369E+02 -0.13767405844E+03 -0.33462845677E+02  0.16131356027E+03  0.00000000000E+00 0. -1.
         22    1    1    2    0    0 -0.80954394098E+02  0.26563735562E+03 -0.56088235396E+03  0.62586406959E+03  0.00000000000E+00 0.  1.
<mgrwt>
<rscale>  0 0.69116440E+03</rscale>
<asrwt>0</asrwt>
<pdfrwt beam="1">  1        2 0.11657107E+00 0.69116440E+03</pdfrwt>
<pdfrwt beam="2">  1       -2 0.24248519E-01 0.69116440E+03</pdfrwt>
<totfact> 0.56378627E+02</totfact>
</mgrwt>
</event>
<event>
 6    1  0.5026615E-004  0.1677974E+04  0.7818608E-02  0.8774027E-01
         -2   -1    0    0    0  501 -0.00000000000E+00  0.00000000000E+00  0.14725959016E+03  0.14725959016E+03  0.00000000000E+00 0. -1.
          2   -1    0    0  501    0  0.00000000000E+00 -0.00000000000E+00 -0.47799868186E+04  0.47799868186E+04  0.00000000000E+00 0.  1.
         23    2    1    2    0    0  0.46576545684E+03  0.67957492256E+03 -0.27491354177E+04  0.28713578793E+04  0.90504087851E+02 0.  0.
         13    1    3    3    0    0  0.28812446886E+03  0.45772618845E+03 -0.19281520393E+04  0.20025731597E+04  0.00000000000E+00 0. -1.
        -13    1    3    3    0    0  0.17764098798E+03  0.22184873411E+03 -0.82098337838E+03  0.86878471960E+03  0.00000000000E+00 0.  1.
         22    1    1    2    0    0 -0.46576545684E+03 -0.67957492256E+03 -0.18835918108E+04  0.20558885295E+04  0.00000000000E+00 0.  1.
<mgrwt>
<rscale>  0 0.16779737E+04</rscale>
<asrwt>0</asrwt>
<pdfrwt beam="1">  1        2 0.73538242E+00 0.16779737E+04</pdfrwt>
<pdfrwt beam="2">  1       -2 0.22655327E-01 0.16779737E+04</pdfrwt>
<totfact> 0.10593554E+00</totfact>
</mgrwt>
</event>
<event>
 6    1  0.5026615E-004  0.3121818E+04  0.7818608E-02  0.8209775E-01
         -2   -1    0    0    0  501 -0.00000000000E+00  0.00000000000E+00  0.96902835043E+03  0.96902835043E+03  0.00000000000E+00 0. -1.
          2   -1    0    0  501    0  0.00000000000E+00 -0.00000000000E+00 -0.25143095987E+04  0.25143095987E+04  0.00000000000E+00 0.  1.
         23    2    1    2    0    0 -0.13869309720E+04  0.53486944924E+03 -0.24655289458E+03  0.15094184509E+04  0.88841890541E+02 0.  0.
         13    1    3    3    0    0 -0.93964787346E+03  0.40510600341E+03 -0.17986910334E+03  0.10389426810E+04  0.00000000000E+00 0.  1.
        -13    1    3    3    0    0 -0.44728309850E+03  0.12976344582E+03 -0.66683791244E+02  0.47047576993E+03  0.00000000000E+00 0. -1.
         22    1    1    2    0    0  0.13869309720E+04 -0.53486944924E+03 -0.12987283537E+04  0.19739194982E+04  0.00000000000E+00 0. -1.
<mgrwt>
<rscale>  0 0.31218182E+04</rscale>
<asrwt>0</asrwt>
<pdfrwt beam="1">  1        2 0.38681686E+00 0.31218182E+04</pdfrwt>
<pdfrwt beam="2">  1       -2 0.14908128E+00 0.31218182E+04</pdfrwt>
<totfact> 0.88124536E-01</totfact>
</mgrwt>
</event>
<event>
 6    1  0.5026615E-004  0.4146854E+04  0.7818608E-02  0.7975559E-01
         -2   -1    0    0    0  501 -0.00000000000E+00  0.00000000000E+00  0.15846647594E+04  0.15846647594E+04  0.00000000000E+00 0. -1.
          2   -1    0    0  501    0  0.00000000000E+00 -0.00000000000E+00 -0.27129389538E+04  0.27129389538E+04  0.00000000000E+00 0.  1.
         23    2    1    2    0    0  0.99824063621E+02 -0.13960010632E+04 -0.21484126377E+04  0.25657069912E+04  0.91606172735E+02 0.  0.
         11    1    3    3    0    0  0.80623347211E+02 -0.76119708876E+03 -0.12422833521E+04  0.14591741016E+04  0.00000000000E+00 0.  1.
        -11    1    3    3    0    0  0.19200716410E+02 -0.63480397447E+03 -0.90612928560E+03  0.11065328896E+04  0.00000000000E+00 0. -1.
         22    1    1    2    0    0 -0.99824063621E+02  0.13960010632E+04  0.10201384433E+04  0.17318967220E+04  0.00000000000E+00 0. -1.
<mgrwt>
<rscale>  0 0.41468536E+04</rscale>
<asrwt>0</asrwt>
<pdfrwt beam="1">  1        2 0.41737522E+00 0.41468536E+04</pdfrwt>
<pdfrwt beam="2">  1       -2 0.24379458E+00 0.41468536E+04</pdfrwt>
<totfact> 0.14270378E-01</totfact>
</mgrwt>
</event>
<event>
 6    1  0.5026615E-004  0.1113203E+04  0.7818608E-02  0.9192418E-01
         -2   -1    0    0    0  501 -0.00000000000E+00  0.00000000000E+00  0.65130159010E+03  0.65130159010E+03  0.00000000000E+00 0. -1.
          2   -1    0    0  501    0  0.00000000000E+00 -0.00000000000E+00 -0.47567131038E+03  0.47567131038E+03  0.00000000000E+00 0.  1.
         23    2    1    2    0    0  0.69217605226E+02  0.43989371396E+03 -0.24338825592E+03  0.51552045779E+03  0.90696983571E+02 0.  0.
         13    1    3    3    0    0  0.39053025498E+01  0.29093811534E+03 -0.17101122638E+03  0.33749826354E+03  0.00000000000E+00 0.  1.
        -13    1    3    3    0    0  0.65312302676E+02  0.14895559862E+03 -0.72377029537E+02  0.17802219425E+03  0.00000000000E+00 0. -1.
         22    1    1    2    0    0 -0.69217605226E+02 -0.43989371396E+03  0.41901853564E+03  0.61145244269E+03  0.00000000000E+00 0. -1.
<mgrwt>
<rscale>  0 0.11132035E+04</rscale>
<asrwt>0</asrwt>
<pdfrwt beam="1">  1        2 0.73180202E-01 0.11132035E+04</pdfrwt>
<pdfrwt beam="2">  1       -2 0.10020024E+00 0.11132035E+04</pdfrwt>
<totfact> 0.53228538E+01</totfact>
</mgrwt>
</event>
<event>
 6    1  0.5026615E-004  0.1924541E+04  0.7818608E-02  0.8642736E-01
          2   -1    0    0  501    0  0.00000000000E+00  0.00000000000E+00  0.22165106653E+04  0.22165106653E+04  0.00000000000E+00 0. -1.
         -2   -1    0    0    0  501 -0.00000000000E+00 -0.00000000000E+00 -0.41775764764E+03  0.41775764764E+03  0.00000000000E+00 0.  1.
         23    2    1    2    0    0 -0.21585569868E+03 -0.12645986145E+03  0.21701768654E+04  0.21864497628E+04  0.91154589329E+02 0.  0.
         11    1    3    3    0    0 -0.17365411142E+03 -0.65633245226E+02  0.13093118939E+04  0.13224073158E+04  0.00000000000E+00 0. -1.
        -11    1    3    3    0    0 -0.42201587258E+02 -0.60826616224E+02  0.86086497146E+03  0.86404244704E+03  0.00000000000E+00 0.  1.
         22    1    1    2    0    0  0.21585569868E+03  0.12645986145E+03 -0.37142384769E+03  0.44781855013E+03  0.00000000000E+00 0.  1.
<mgrwt>
<rscale>  0 0.19245408E+04</rscale>
<asrwt>0</asrwt>
<pdfrwt beam="1">  1        2 0.34100163E+00 0.19245408E+04</pdfrwt>
<pdfrwt beam="2">  1       -2 0.64270409E-01 0.19245408E+04</pdfrwt>
<totfact> 0.10568987E+01</totfact>
</mgrwt>
</event>
<event>
 6    1  0.5026615E-004  0.9854851E+03  0.7818608E-02  0.9324609E-01
         -2   -1    0    0    0  501 -0.00000000000E+00  0.00000000000E+00  0.15221778196E+04  0.15221778196E+04  0.00000000000E+00 0. -1.
          2   -1    0    0  501    0  0.00000000000E+00 -0.00000000000E+00 -0.15950515716E+03  0.15950515716E+03  0.00000000000E+00 0.  1.
         23    2    1    2    0    0 -0.35989672196E+03  0.26096161530E+03  0.10327180117E+04  0.11280615477E+04  0.91595570521E+02 0.  0.
         11    1    3    3    0    0 -0.70087146849E+02  0.57295125614E+02  0.31412456212E+03  0.32690851946E+03  0.00000000000E+00 0. -1.
        -11    1    3    3    0    0 -0.28980957511E+03  0.20366648969E+03  0.71859344963E+03  0.80115302827E+03  0.00000000000E+00 0.  1.
         22    1    1    2    0    0  0.35989672196E+03 -0.26096161530E+03  0.32995465065E+03  0.55362142898E+03  0.00000000000E+00 0.  1.
<mgrwt>
<rscale>  0 0.98548508E+03</rscale>
<asrwt>0</asrwt>
<pdfrwt beam="1">  1        2 0.24539256E-01 0.98548508E+03</pdfrwt>
<pdfrwt beam="2">  1       -2 0.23418119E+00 0.98548508E+03</pdfrwt>
<totfact> 0.18118812E+01</totfact>
</mgrwt>
</event>
<event>
 6    1  0.5026615E-004  0.2692674E+04  0.7818608E-02  0.8337386E-01
          2   -1    0    0  501    0  0.00000000000E+00  0.00000000000E+00  0.21678880773E+04  0.21678880773E+04  0.00000000000E+00 0.  1.
         -2   -1    0    0    0  501 -0.00000000000E+00 -0.00000000000E+00 -0.83612400573E+03  0.83612400573E+03  0.00000000000E+00 0. -1.
         23    2    1    2    0    0  0.11791638355E+04  0.62404754349E+03  0.85559668579E+03  0.15874676726E+04  0.90250958146E+02 0.  0.
         13    1    3    3    0    0  0.93563755550E+03  0.53537518822E+03  0.68678591219E+03  0.12781702221E+04  0.00000000000E+00 0.  1.
        -13    1    3    3    0    0  0.24352627996E+03  0.88672355265E+02  0.16881077360E+03  0.30929745053E+03  0.00000000000E+00 0. -1.
         22    1    1    2    0    0 -0.11791638355E+04 -0.62404754349E+03  0.47616738577E+03  0.14165444104E+04  0.00000000000E+00 0.  1.
<mgrwt>
<rscale>  0 0.26926740E+04</rscale>
<asrwt>0</asrwt>
<pdfrwt beam="1">  1        2 0.33352124E+00 0.26926740E+04</pdfrwt>
<pdfrwt beam="2">  1       -2 0.12863446E+00 0.26926740E+04</pdfrwt>
<totfact> 0.21077087E+00</totfact>
</mgrwt>
</event>
<event>
 6    1  0.5026615E-004  0.1556300E+04  0.7818608E-02  0.8847854E-01
         -2   -1    0    0    0  501 -0.00000000000E+00  0.00000000000E+00  0.21200495812E+03  0.21200495812E+03  0.00000000000E+00 0. -1.
          2   -1    0    0  501    0  0.00000000000E+00 -0.00000000000E+00 -0.28561474927E+04  0.28561474927E+04  0.00000000000E+00 0.  1.
         23    2    1    2    0    0 -0.68333866480E+03 -0.16856906714E+03 -0.19683102927E+04  0.20923878888E+04  0.92056547108E+02 0.  0.
         11    1    3    3    0    0 -0.27545967144E+03 -0.22179184743E+02 -0.74827037415E+03  0.79767067117E+03  0.00000000000E+00 0.  1.
        -11    1    3    3    0    0 -0.40787899336E+03 -0.14638988240E+03 -0.12200399185E+04  0.12947172177E+04  0.00000000000E+00 0. -1.
         22    1    1    2    0    0  0.68333866480E+03  0.16856906714E+03 -0.67583224186E+03  0.97576456195E+03  0.00000000000E+00 0. -1.
<mgrwt>
<rscale>  0 0.15563000E+04</rscale>
<asrwt>0</asrwt>
<pdfrwt beam="1">  1        2 0.43940730E+00 0.15563000E+04</pdfrwt>
<pdfrwt beam="2">  1       -2 0.32616148E-01 0.15563000E+04</pdfrwt>
<totfact> 0.18112498E+01</totfact>
</mgrwt>
</event>
<event>
 6    1  0.5026615E-004  0.2539148E+04  0.7818608E-02  0.8389170E-01
         -2   -1    0    0    0  501 -0.00000000000E+00  0.00000000000E+00  0.10039042284E+04  0.10039042284E+04  0.00000000000E+00 0. -1.
          2   -1    0    0  501    0  0.00000000000E+00 -0.00000000000E+00 -0.16055502784E+04  0.16055502784E+04  0.00000000000E+00 0.  1.
         23    2    1    2    0    0  0.10043400118E+04 -0.75097206459E+03 -0.49324685464E+03  0.13507216969E+04  0.92188621566E+02 0.  0.
         11    1    3    3    0    0  0.64787493239E+03 -0.50734334358E+03 -0.28043492458E+03  0.86935777630E+03  0.00000000000E+00 0. -1.
        -11    1    3    3    0    0  0.35646507938E+03 -0.24362872101E+03 -0.21281193006E+03  0.48136392064E+03  0.00000000000E+00 0.  1.
         22    1    1    2    0    0 -0.10043400118E+04  0.75097206459E+03 -0.10839919544E+03  0.12587328099E+04  0.00000000000E+00 0. -1.
<mgrwt>
<rscale>  0 0.25391485E+04</rscale>
<asrwt>0</asrwt>
<pdfrwt beam="1">  1        2 0.24700773E+00 0.25391485E+04</pdfrwt>
<pdfrwt beam="2">  1       -2 0.15444680E+00 0.25391485E+04</pdfrwt>
<totfact> 0.27287525E+00</totfact>
</mgrwt>
</event>
<event>
 6    1  0.5026615E-004  0.4079154E+04  0.7818608E-02  0.7988766E-01
         -2   -1    0    0    0  501 -0.00000000000E+00  0.00000000000E+00  0.10372554580E+04  0.10372554580E+04  0.00000000000E+00 0.  1.
          2   -1    0    0  501    0  0.00000000000E+00 -0.00000000000E+00 -0.40104624356E+04  0.40104624356E+04  0.00000000000E+00 0. -1.
         23    2    1    2    0    0 -0.12789604010E+04  0.96924274801E+02 -0.34480762271E+04  0.36800063646E+04  0.89906358312E+02 0.  0.
         11    1    3    3    0    0 -0.11499673582E+04  0.84902180626E+02 -0.30155259784E+04  0.32284718106E+04  0.00000000000E+00 0. -1.
        -11    1    3    3    0    0 -0.12899304277E+03  0.12022094175E+02 -0.43255024875E+03  0.45153455407E+03  0.00000000000E+00 0.  1.
         22    1    1    2    0    0  0.12789604010E+04 -0.96924274801E+02  0.47486924949E+03  0.13677115289E+04  0.00000000000E+00 0.  1.
<mgrwt>
<rscale>  0 0.40791539E+04</rscale>
<asrwt>0</asrwt>
<pdfrwt beam="1">  1        2 0.61699422E+00 0.40791539E+04</pdfrwt>
<pdfrwt beam="2">  1       -2 0.15957776E+00 0.40791539E+04</pdfrwt>
<totfact> 0.66467424E-02</totfact>
</mgrwt>
</event>
<event>
 6    1  0.5026615E-004  0.2567915E+04  0.7818608E-02  0.8379182E-01
         -2   -1    0    0    0  501 -0.00000000000E+00  0.00000000000E+00  0.82271720223E+03  0.82271720223E+03  0.00000000000E+00 0. -1.
          2   -1    0    0  501    0  0.00000000000E+00 -0.00000000000E+00 -0.20037830607E+04  0.20037830607E+04  0.00000000000E+00 0.  1.
         23    2    1    2    0    0  0.26075966124E+03  0.76020340629E+03 -0.16909897396E+04  0.18746981908E+04  0.95614785155E+02 0.  0.
         11    1    3    3    0    0  0.17014118953E+03  0.44415664999E+03 -0.89628415633E+03  0.10146666659E+04  0.00000000000E+00 0.  1.
        -11    1    3    3    0    0  0.90618471718E+02  0.31604675631E+03 -0.79470558331E+03  0.86003152485E+03  0.00000000000E+00 0. -1.
         22    1    1    2    0    0 -0.26075966124E+03 -0.76020340629E+03  0.50992388119E+03  0.95180207212E+03  0.00000000000E+00 0. -1.
<mgrwt>
<rscale>  0 0.25679149E+04</rscale>
<asrwt>0</asrwt>
<pdfrwt beam="1">  1        2 0.30827432E+00 0.25679149E+04</pdfrwt>
<pdfrwt beam="2">  1       -2 0.12657188E+00 0.25679149E+04</pdfrwt>
<totfact> 0.27400193E+00</totfact>
</mgrwt>
</event>
<event>
 6    1  0.5026615E-004  0.3892914E+04  0.7818608E-02  0.8026505E-01
         -1   -1    0    0    0  501 -0.00000000000E+00  0.00000000000E+00  0.18278326094E+04  0.18278326094E+04  0.00000000000E+00 0.  1.
          1   -1    0    0  501    0  0.00000000000E+00 -0.00000000000E+00 -0.20727797037E+04  0.20727797037E+04  0.00000000000E+00 0. -1.
         23    2    1    2    0    0 -0.15134124915E+04 -0.75628313538E+03 -0.10848262452E+04  0.20117559029E+04  0.89063350630E+02 0.  0.
         11    1    3    3    0    0 -0.99472796506E+03 -0.45193294319E+03 -0.68351920032E+03  0.12887690277E+04  0.00000000000E+00 0.  1.
        -11    1    3    3    0    0 -0.51868452640E+03 -0.30435019219E+03 -0.40130704489E+03  0.72298687519E+03  0.00000000000E+00 0. -1.
         22    1    1    2    0    0  0.15134124915E+04  0.75628313538E+03  0.83987915091E+03  0.18888564102E+04  0.00000000000E+00 0.  1.
<mgrwt>
<rscale>  0 0.38929137E+04</rscale>
<asrwt>0</asrwt>
<pdfrwt beam="1">  1        1 0.31888919E+00 0.38929137E+04</pdfrwt>
<pdfrwt beam="2">  1       -1 0.28120502E+00 0.38929137E+04</pdfrwt>
<totfact> 0.91791118E-02</totfact>
</mgrwt>
</event>
<event>
 6    1  0.5026615E-004  0.3619118E+04  0.7818608E-02  0.8086126E-01
         -2   -1    0    0    0  501 -0.00000000000E+00  0.00000000000E+00  0.14129766753E+04  0.14129766753E+04  0.00000000000E+00 0. -1.
          2   -1    0    0  501    0  0.00000000000E+00 -0.00000000000E+00 -0.23174509591E+04  0.23174509591E+04  0.00000000000E+00 0.  1.
         23    2    1    2    0    0 -0.14725059904E+04 -0.41515671541E+03  0.54126987737E+03  0.16254798513E+04  0.92642737057E+02 0.  0.
         11    1    3    3    0    0 -0.51438782353E+03 -0.12257522120E+03  0.22795070253E+03  0.57583073957E+03  0.00000000000E+00 0.  1.
        -11    1    3    3    0    0 -0.95811816689E+03 -0.29258149421E+03  0.31331917483E+03  0.10496491118E+04  0.00000000000E+00 0. -1.
         22    1    1    2    0    0  0.14725059904E+04  0.41515671541E+03 -0.14457441612E+04  0.21049477831E+04  0.00000000000E+00 0.  1.
<mgrwt>
<rscale>  0 0.36191182E+04</rscale>
<asrwt>0</asrwt>
<pdfrwt beam="1">  1        2 0.35653092E+00 0.36191182E+04</pdfrwt>
<pdfrwt beam="2">  1       -2 0.21738103E+00 0.36191182E+04</pdfrwt>
<totfact> 0.37032279E-01</totfact>
</mgrwt>
</event>
<event>
 6    1  0.5026615E-004  0.1886517E+04  0.7818608E-02  0.8661597E-01
         -2   -1    0    0    0  501 -0.00000000000E+00  0.00000000000E+00  0.60070717574E+03  0.60070717574E+03  0.00000000000E+00 0. -1.
          2   -1    0    0  501    0  0.00000000000E+00 -0.00000000000E+00 -0.14811492974E+04  0.14811492974E+04  0.00000000000E+00 0.  1.
         23    2    1    2    0    0 -0.68087401958E+03  0.11790810912E+03 -0.11459276939E+04  0.13416035827E+04  0.96219232059E+02 0.  0.
         11    1    3    3    0    0 -0.81219787158E+02  0.12741764356E+02 -0.20525859330E+03  0.22111105017E+03  0.00000000000E+00 0.  1.
        -11    1    3    3    0    0 -0.59965423242E+03  0.10516634477E+03 -0.94066910062E+03  0.11204925325E+04  0.00000000000E+00 0. -1.
         22    1    1    2    0    0  0.68087401958E+03 -0.11790810912E+03  0.26548557228E+03  0.74025289045E+03  0.00000000000E+00 0. -1.
<mgrwt>
<rscale>  0 0.18865174E+04</rscale>
<asrwt>0</asrwt>
<pdfrwt beam="1">  1        2 0.22786912E+00 0.18865174E+04</pdfrwt>
<pdfrwt beam="2">  1       -2 0.92416489E-01 0.18865174E+04</pdfrwt>
<totfact> 0.12123678E+01</totfact>
</mgrwt>
</event>
<event>
 6    1  0.5026615E-004  0.1850244E+04  0.7818608E-02  0.8680027E-01
         -2   -1    0    0    0  501 -0.00000000000E+00  0.00000000000E+00  0.39200169549E+03  0.39200169549E+03  0.00000000000E+00 0. -1.
          2   -1    0    0  501    0  0.00000000000E+00 -0.00000000000E+00 -0.21832833735E+04  0.21832833735E+04  0.00000000000E+00 0.  1.
         23    2    1    2    0    0 -0.22325061866E+03  0.35782654714E+03  0.24438824790E+03  0.49638326183E+03  0.93755268324E+02 0.  0.
         11    1    3    3    0    0 -0.91295215015E+02  0.14318955518E+03  0.15235738121E+03  0.22814652443E+03  0.00000000000E+00 0.  1.
        -11    1    3    3    0    0 -0.13195540365E+03  0.21463699196E+03  0.92030866690E+02  0.26823673740E+03  0.00000000000E+00 0. -1.
         22    1    1    2    0    0  0.22325061866E+03 -0.35782654714E+03 -0.20356699259E+04  0.20789018071E+04  0.00000000000E+00 0.  1.
<mgrwt>
<rscale>  0 0.18502441E+04</rscale>
<asrwt>0</asrwt>
<pdfrwt beam="1">  1        2 0.33588976E+00 0.18502441E+04</pdfrwt>
<pdfrwt beam="2">  1       -2 0.60307952E-01 0.18502441E+04</pdfrwt>
<totfact> 0.12714264E+01</totfact>
</mgrwt>
</event>
<event>
 6    1  0.5026615E-004  0.2382440E+04  0.7818608E-02  0.8446107E-01
         -2   -1    0    0    0  501 -0.00000000000E+00  0.00000000000E+00  0.54853055639E+03  0.54853055639E+03  0.00000000000E+00 0. -1.
          2   -1    0    0  501    0  0.00000000000E+00 -0.00000000000E+00 -0.25869216276E+04  0.25869216276E+04  0.00000000000E+00 0.  1.
         23    2    1    2    0    0  0.11225034906E+04  0.18396712260E+03 -0.14784345019E+04  0.18676157009E+04  0.91443103342E+02 0.  0.
         11    1    3    3    0    0  0.63716087362E+03  0.14541551559E+03 -0.81400480981E+03  0.10438982141E+04  0.00000000000E+00 0. -1.
        -11    1    3    3    0    0  0.48534261694E+03  0.38551607008E+02 -0.66442969210E+03  0.82371748674E+03  0.00000000000E+00 0.  1.
         22    1    1    2    0    0 -0.11225034906E+04 -0.18396712260E+03 -0.55995656933E+03  0.12678364832E+04  0.00000000000E+00 0. -1.
<mgrwt>
<rscale>  0 0.23824404E+04</rscale>
<asrwt>0</asrwt>
<pdfrwt beam="1">  1        2 0.39798795E+00 0.23824404E+04</pdfrwt>
<pdfrwt beam="2">  1       -2 0.84389314E-01 0.23824404E+04</pdfrwt>
<totfact> 0.34164670E+00</totfact>
</mgrwt>
</event>
<event>
 6    1  0.5026615E-004  0.1237488E+04  0.7818608E-02  0.9080662E-01
          2   -1    0    0  501    0  0.00000000000E+00  0.00000000000E+00  0.74600141685E+03  0.74600141685E+03  0.00000000000E+00 0.  1.
         -2   -1    0    0    0  501 -0.00000000000E+00 -0.00000000000E+00 -0.51319478208E+03  0.51319478208E+03  0.00000000000E+00 0. -1.
         23    2    1    2    0    0  0.37970456866E+03 -0.98342235961E+02 -0.36535315027E+03  0.54390473157E+03  0.92209965719E+02 0.  0.
         13    1    3    3    0    0  0.11821636812E+03 -0.75512651060E+02 -0.11982247251E+03  0.18448494540E+03  0.00000000000E+00 0.  1.
        -13    1    3    3    0    0  0.26148820054E+03 -0.22829584902E+02 -0.24553067776E+03  0.35941978617E+03  0.00000000000E+00 0. -1.
         22    1    1    2    0    0 -0.37970456866E+03  0.98342235961E+02  0.59815978504E+03  0.71529146736E+03  0.00000000000E+00 0.  1.
<mgrwt>
<rscale>  0 0.12374878E+04</rscale>
<asrwt>0</asrwt>
<pdfrwt beam="1">  1        2 0.11476945E+00 0.12374878E+04</pdfrwt>
<pdfrwt beam="2">  1       -2 0.78953043E-01 0.12374878E+04</pdfrwt>
<totfact> 0.52948212E+01</totfact>
</mgrwt>
</event>
<event>
 6    1  0.5026615E-004  0.3535958E+04  0.7818608E-02  0.8105321E-01
         -2   -1    0    0    0  501 -0.00000000000E+00  0.00000000000E+00  0.18651943802E+04  0.18651943802E+04  0.00000000000E+00 0. -1.
          2   -1    0    0  501    0  0.00000000000E+00 -0.00000000000E+00 -0.16758309041E+04  0.16758309041E+04  0.00000000000E+00 0.  1.
         23    2    1    2    0    0  0.33651562379E+03  0.39849127973E+03  0.17852971998E+04  0.18620248329E+04  0.88387338476E+02 0.  0.
         13    1    3    3    0    0  0.48275493657E+02  0.69882842637E+02  0.41854780669E+03  0.42707891715E+03  0.00000000000E+00 0. -1.
        -13    1    3    3    0    0  0.28824013013E+03  0.32860843710E+03  0.13667493931E+04  0.14349459158E+04  0.00000000000E+00 0.  1.
         22    1    1    2    0    0 -0.33651562379E+03 -0.39849127973E+03 -0.15959337237E+04  0.16790004513E+04  0.00000000000E+00 0.  1.
<mgrwt>
<rscale>  0 0.35359584E+04</rscale>
<asrwt>0</asrwt>
<pdfrwt beam="1">  1        2 0.25782014E+00 0.35359584E+04</pdfrwt>
<pdfrwt beam="2">  1       -2 0.28695298E+00 0.35359584E+04</pdfrwt>
<totfact> 0.31651959E-01</totfact>
</mgrwt>
</event>
<event>
 6    1  0.5026615E-004  0.2803158E+04  0.7818608E-02  0.8302289E-01
         -2   -1    0    0    0  501 -0.00000000000E+00  0.00000000000E+00  0.12448382718E+04  0.12448382718E+04  0.00000000000E+00 0. -1.
          2   -1    0    0  501    0  0.00000000000E+00 -0.00000000000E+00 -0.15780554118E+04  0.15780554118E+04  0.00000000000E+00 0.  1.
         23    2    1    2    0    0 -0.79979511624E+03 -0.11461391558E+04 -0.25066986705E+03  0.14228503826E+04  0.91436518120E+02 0.  0.
         13    1    3    3    0    0 -0.15843217590E+03 -0.19441904893E+03 -0.75398105920E+02  0.26188622591E+03  0.00000000000E+00 0.  1.
        -13    1    3    3    0    0 -0.64136294033E+03 -0.95172010682E+03 -0.17527176113E+03  0.11609641567E+04  0.00000000000E+00 0. -1.
         22    1    1    2    0    0  0.79979511624E+03  0.11461391558E+04 -0.82547272956E+02  0.14000433010E+04  0.00000000000E+00 0.  1.
<mgrwt>
<rscale>  0 0.28031581E+04</rscale>
<asrwt>0</asrwt>
<pdfrwt beam="1">  1        2 0.24277775E+00 0.28031581E+04</pdfrwt>
<pdfrwt beam="2">  1       -2 0.19151358E+00 0.28031581E+04</pdfrwt>
<totfact> 0.15113961E+00</totfact>
</mgrwt>
</event>
<event>
 6    1  0.5026615E-004  0.4617715E+04  0.7818608E-02  0.7890346E-01
          2   -1    0    0  501    0  0.00000000000E+00  0.00000000000E+00  0.25832011807E+04  0.25832011807E+04  0.00000000000E+00 0.  1.
         -2   -1    0    0    0  501 -0.00000000000E+00 -0.00000000000E+00 -0.20636503807E+04  0.20636503807E+04  0.00000000000E+00 0. -1.
         23    2    1    2    0    0  0.48792851038E+03 -0.53099220844E+03  0.24660711224E+04  0.25710460979E+04  0.93510963811E+02 0.  0.
         13    1    3    3    0    0  0.30643373663E+03 -0.34511548528E+03  0.14160000226E+04  0.14893160837E+04  0.00000000000E+00 0.  1.
        -13    1    3    3    0    0  0.18149477375E+03 -0.18587672316E+03  0.10500710998E+04  0.10817300142E+04  0.00000000000E+00 0. -1.
         22    1    1    2    0    0 -0.48792851038E+03  0.53099220844E+03 -0.19465203224E+04  0.20758054635E+04  0.00000000000E+00 0. -1.
<mgrwt>
<rscale>  0 0.46177155E+04</rscale>
<asrwt>0</asrwt>
<pdfrwt beam="1">  1        2 0.39741557E+00 0.46177155E+04</pdfrwt>
<pdfrwt beam="2">  1       -2 0.31748467E+00 0.46177155E+04</pdfrwt>
<totfact> 0.57981750E-02</totfact>
</mgrwt>
</event>
<event>
 6    1  0.5026615E-004  0.1780027E+04  0.7818608E-02  0.8716994E-01
         -2   -1    0    0    0  501 -0.00000000000E+00  0.00000000000E+00  0.30762568844E+03  0.30762568844E+03  0.00000000000E+00 0. -1.
          2   -1    0    0  501    0  0.00000000000E+00 -0.00000000000E+00 -0.25749605040E+04  0.25749605040E+04  0.00000000000E+00 0.  1.
         23    2    1    2    0    0 -0.68147626698E+02  0.86299958561E+03 -0.14554290658E+04  0.16957402335E+04  0.88593397991E+02 0.  0.
         13    1    3    3    0    0 -0.73339950915E+02  0.66244585142E+03 -0.11762461912E+04  0.13519498351E+04  0.00000000000E+00 0.  1.
        -13    1    3    3    0    0  0.51923242166E+01  0.20055373420E+03 -0.27918287461E+03  0.34379039836E+03  0.00000000000E+00 0. -1.
         22    1    1    2    0    0  0.68147626698E+02 -0.86299958561E+03 -0.81190574983E+03  0.11868459590E+04  0.00000000000E+00 0.  1.
<mgrwt>
<rscale>  0 0.17800270E+04</rscale>
<asrwt>0</asrwt>
<pdfrwt beam="1">  1        2 0.39614778E+00 0.17800270E+04</pdfrwt>
<pdfrwt beam="2">  1       -2 0.47327027E-01 0.17800270E+04</pdfrwt>
<totfact> 0.12614892E+01</totfact>
</mgrwt>
</event>
<event>
 6    1  0.5026615E-004  0.1847384E+04  0.7818608E-02  0.8681499E-01
         -2   -1    0    0    0  501 -0.00000000000E+00  0.00000000000E+00  0.16849655722E+04  0.16849655722E+04  0.00000000000E+00 0. -1.
          2   -1    0    0  501    0  0.00000000000E+00 -0.00000000000E+00 -0.50636465868E+03  0.50636465868E+03  0.00000000000E+00 0.  1.
         23    2    1    2    0    0 -0.63301572987E+03  0.61128798946E+03  0.91461527979E+03  0.12725972256E+04  0.92739787177E+02 0.  0.
         13    1    3    3    0    0 -0.24360424925E+03  0.27004547465E+03  0.43289587820E+03  0.56539051105E+03  0.00000000000E+00 0. -1.
        -13    1    3    3    0    0 -0.38941148062E+03  0.34124251482E+03  0.48171940160E+03  0.70720671450E+03  0.00000000000E+00 0.  1.
         22    1    1    2    0    0  0.63301572987E+03 -0.61128798946E+03  0.26398563377E+03  0.91873300537E+03  0.00000000000E+00 0. -1.
<mgrwt>
<rscale>  0 0.18473841E+04</rscale>
<asrwt>0</asrwt>
<pdfrwt beam="1">  1        2 0.77902256E-01 0.18473841E+04</pdfrwt>
<pdfrwt beam="2">  1       -2 0.25922547E+00 0.18473841E+04</pdfrwt>
<totfact> 0.32193303E+00</totfact>
</mgrwt>
</event>
<event>
 6    1  0.5026615E-004  0.3378344E+04  0.7818608E-02  0.8143242E-01
          2   -1    0    0  501    0  0.00000000000E+00  0.00000000000E+00  0.30420995826E+04  0.30420995826E+04  0.00000000000E+00 0. -1.
         -2   -1    0    0    0  501 -0.00000000000E+00 -0.00000000000E+00 -0.93793819366E+03  0.93793819366E+03  0.00000000000E+00 0.  1.
         23    2    1    2    0    0  0.66473983901E+02  0.16173976718E+04  0.48919047151E+03  0.16934409418E+04  0.89670990360E+02 0.  0.
         13    1    3    3    0    0  0.48522907244E+01  0.51688762180E+02  0.32791702390E+02  0.61404955880E+02  0.00000000000E+00 0.  1.
        -13    1    3    3    0    0  0.61621693176E+02  0.15657089096E+04  0.45639876912E+03  0.16320359859E+04  0.00000000000E+00 0. -1.
         22    1    1    2    0    0 -0.66473983901E+02 -0.16173976718E+04  0.16149709174E+04  0.22865968344E+04  0.00000000000E+00 0. -1.
<mgrwt>
<rscale>  0 0.33783436E+04</rscale>
<asrwt>0</asrwt>
<pdfrwt beam="1">  1        2 0.46801532E+00 0.33783436E+04</pdfrwt>
<pdfrwt beam="2">  1       -2 0.14429818E+00 0.33783436E+04</pdfrwt>
<totfact> 0.45079825E-01</totfact>
</mgrwt>
</event>
<event>
 6    1  0.5026615E-004  0.8018632E+03  0.7818608E-02  0.9557324E-01
          2   -1    0    0  501    0  0.00000000000E+00  0.00000000000E+00  0.15038826549E+04  0.15038826549E+04  0.00000000000E+00 0.  1.
         -2   -1    0    0    0  501 -0.00000000000E+00 -0.00000000000E+00 -0.10688741840E+03  0.10688741840E+03  0.00000000000E+00 0. -1.
         23    2    1    2    0    0 -0.33187273177E+03  0.14389155131E+03  0.38534552981E+03  0.53639610782E+03  0.91571384780E+02 0.  0.
         13    1    3    3    0    0 -0.25135710093E+03  0.10071390752E+03  0.22594072324E+03  0.35266541335E+03  0.00000000000E+00 0. -1.
        -13    1    3    3    0    0 -0.80515630841E+02  0.43177643796E+02  0.15940480657E+03  0.18373069447E+03  0.00000000000E+00 0.  1.
         22    1    1    2    0    0  0.33187273177E+03 -0.14389155131E+03  0.10116497066E+04  0.10743739654E+04  0.00000000000E+00 0. -1.
<mgrwt>
<rscale>  0 0.80186317E+03</rscale>
<asrwt>0</asrwt>
<pdfrwt beam="1">  1        2 0.23136655E+00 0.80186317E+03</pdfrwt>
<pdfrwt beam="2">  1       -2 0.16444219E-01 0.80186317E+03</pdfrwt>
<totfact> 0.38205981E+02</totfact>
</mgrwt>
</event>
<event>
 6    1  0.5026615E-004  0.8130536E+03  0.7818608E-02  0.9541312E-01
         -4   -1    0    0    0  501 -0.00000000000E+00  0.00000000000E+00  0.46922864328E+03  0.46922864328E+03  0.00000000000E+00 0. -1.
          4   -1    0    0  501    0  0.00000000000E+00 -0.00000000000E+00 -0.35220361921E+03  0.35220361921E+03  0.00000000000E+00 0.  1.
         23    2    1    2    0    0 -0.77745895549E+01  0.10423187369E+03 -0.33277069211E+03  0.35965210481E+03  0.87684521061E+02 0.  0.
         13    1    3    3    0    0 -0.17634960682E+02  0.11687114747E+02 -0.17652483377E+03  0.17778806886E+03  0.00000000000E+00 0. -1.
        -13    1    3    3    0    0  0.98603711273E+01  0.92544758946E+02 -0.15624585833E+03  0.18186403595E+03  0.00000000000E+00 0.  1.
         22    1    1    2    0    0  0.77745895549E+01 -0.10423187369E+03  0.44979571618E+03  0.46178015768E+03  0.00000000000E+00 0. -1.
<mgrwt>
<rscale>  0 0.81305357E+03</rscale>
<asrwt>0</asrwt>
<pdfrwt beam="1">  1        4 0.54185172E-01 0.81305357E+03</pdfrwt>
<pdfrwt beam="2">  1       -4 0.72189022E-01 0.81305357E+03</pdfrwt>
<totfact> 0.11332717E+01</totfact>
</mgrwt>
</event>
<event>
 6    1  0.5026615E-004  0.4504002E+04  0.7818608E-02  0.7909937E-01
          2   -1    0    0  501    0  0.00000000000E+00  0.00000000000E+00  0.26269773357E+04  0.26269773357E+04  0.00000000000E+00 0.  1.
         -2   -1    0    0    0  501 -0.00000000000E+00 -0.00000000000E+00 -0.19305488313E+04  0.19305488313E+04  0.00000000000E+00 0. -1.
         23    2    1    2    0    0 -0.24423636478E+03 -0.11918313428E+04  0.22647237333E+04  0.25726676640E+04  0.97631805842E+02 0.  0.
         13    1    3    3    0    0 -0.57108053173E+02 -0.44721703354E+03  0.76961275515E+03  0.89194629756E+03  0.00000000000E+00 0.  1.
        -13    1    3    3    0    0 -0.18712831160E+03 -0.74461430930E+03  0.14951109782E+04  0.16807213665E+04  0.00000000000E+00 0. -1.
         22    1    1    2    0    0  0.24423636478E+03  0.11918313428E+04 -0.15682952290E+04  0.19848585030E+04  0.00000000000E+00 0. -1.
<mgrwt>
<rscale>  0 0.45040018E+04</rscale>
<asrwt>0</asrwt>
<pdfrwt beam="1">  1        2 0.40415036E+00 0.45040018E+04</pdfrwt>
<pdfrwt beam="2">  1       -2 0.29700751E+00 0.45040018E+04</pdfrwt>
<totfact> 0.73672870E-02</totfact>
</mgrwt>
</event>
<event>
 6    1  0.5026615E-004  0.1163981E+04  0.7818608E-02  0.9144981E-01
         -2   -1    0    0    0  501 -0.00000000000E+00  0.00000000000E+00  0.52739413945E+03  0.52739413945E+03  0.00000000000E+00 0. -1.
          2   -1    0    0  501    0  0.00000000000E+00 -0.00000000000E+00 -0.64223911555E+03  0.64223911555E+03  0.00000000000E+00 0.  1.
         23    2    1    2    0    0 -0.36545279377E+03  0.38147955558E+03  0.17921800460E+03  0.56502145192E+03  0.89709264602E+02 0.  0.
         13    1    3    3    0    0 -0.33950232338E+03  0.34246270009E+03  0.13541855627E+03  0.50087993962E+03  0.00000000000E+00 0.  1.
        -13    1    3    3    0    0 -0.25950470395E+02  0.39016855485E+02  0.43799448330E+02  0.64141512296E+02  0.00000000000E+00 0. -1.
         22    1    1    2    0    0  0.36545279377E+03 -0.38147955558E+03 -0.29406298071E+03  0.60461180308E+03  0.00000000000E+00 0. -1.
<mgrwt>
<rscale>  0 0.11639813E+04</rscale>
<asrwt>0</asrwt>
<pdfrwt beam="1">  1        2 0.98806018E-01 0.11639813E+04</pdfrwt>
<pdfrwt beam="2">  1       -2 0.81137560E-01 0.11639813E+04</pdfrwt>
<totfact> 0.60467026E+01</totfact>
</mgrwt>
</event>
<event>
 6    1  0.8194073E-004  0.1606486E+04  0.7818608E-02  0.8816573E-01
         -2   -1    0    0    0  501 -0.00000000000E+00  0.00000000000E+00  0.51954617445E+03  0.51954617445E+03  0.00000000000E+00 0. -1.
          2   -1    0    0  501    0  0.00000000000E+00 -0.00000000000E+00 -0.12418513732E+04  0.12418513732E+04  0.00000000000E+00 0.  1.
         23    2    1    2    0    0 -0.16357214799E+03 -0.33926190666E+03 -0.11370819830E+04  0.12011348686E+04  0.88966552815E+02 0.  0.
         11    1    3    3    0    0 -0.12156981106E+03 -0.17538100994E+03 -0.54277012132E+03  0.58321275895E+03  0.00000000000E+00 0.  1.
        -11    1    3    3    0    0 -0.42002336930E+02 -0.16388089672E+03 -0.59431186168E+03  0.61792210961E+03  0.00000000000E+00 0. -1.
         22    1    1    2    0    0  0.16357214799E+03  0.33926190666E+03  0.41477678421E+03  0.56026267913E+03  0.00000000000E+00 0. -1.
<mgrwt>
<rscale>  0 0.16064858E+04</rscale>
<asrwt>0</asrwt>
<pdfrwt beam="1">  1        2 0.19105405E+00 0.16064858E+04</pdfrwt>
<pdfrwt beam="2">  1       -2 0.79930182E-01 0.16064858E+04</pdfrwt>
<totfact> 0.23744585E+01</totfact>
</mgrwt>
</event>
<event>
 6    1  0.5026615E-004  0.4249362E+04  0.7818608E-02  0.7956048E-01
          2   -1    0    0  501    0  0.00000000000E+00  0.00000000000E+00  0.32807346007E+04  0.32807346007E+04  0.00000000000E+00 0.  1.
         -2   -1    0    0    0  501 -0.00000000000E+00 -0.00000000000E+00 -0.13759933892E+04  0.13759933892E+04  0.00000000000E+00 0. -1.
         23    2    1    2    0    0  0.28728425606E+03  0.92121949933E+03 -0.11201487859E+04  0.14816473444E+04  0.96788123943E+02 0.  0.
         11    1    3    3    0    0  0.12300836517E+03  0.28051613987E+03 -0.40063909269E+03  0.50431343946E+03  0.00000000000E+00 0. -1.
        -11    1    3    3    0    0  0.16427589088E+03  0.64070335945E+03 -0.71950969317E+03  0.97733390492E+03  0.00000000000E+00 0.  1.
         22    1    1    2    0    0 -0.28728425606E+03 -0.92121949933E+03  0.30248899973E+04  0.31750806455E+04  0.00000000000E+00 0.  1.
<mgrwt>
<rscale>  0 0.42493619E+04</rscale>
<asrwt>0</asrwt>
<pdfrwt beam="1">  1        2 0.50472840E+00 0.42493619E+04</pdfrwt>
<pdfrwt beam="2">  1       -2 0.21169129E+00 0.42493619E+04</pdfrwt>
<totfact> 0.98941669E-02</totfact>
</mgrwt>
</event>
<event>
 6    1  0.5026615E-004  0.3096015E+04  0.7818608E-02  0.8216832E-01
         -2   -1    0    0    0  501 -0.00000000000E+00  0.00000000000E+00  0.96871709288E+03  0.96871709288E+03  0.00000000000E+00 0. -1.
          2   -1    0    0  501    0  0.00000000000E+00 -0.00000000000E+00 -0.24737121190E+04  0.24737121190E+04  0.00000000000E+00 0.  1.
         23    2    1    2    0    0  0.11249128578E+04  0.47247583682E+02  0.42598568951E+03  0.12071780412E+04  0.90298082051E+02 0.  0.
         13    1    3    3    0    0  0.52390042015E+03  0.16863725168E+02  0.15057939355E+03  0.54537160654E+03  0.00000000000E+00 0.  1.
        -13    1    3    3    0    0  0.60101243767E+03  0.30383858514E+02  0.27540629597E+03  0.66180643465E+03  0.00000000000E+00 0. -1.
         22    1    1    2    0    0 -0.11249128578E+04 -0.47247583682E+02 -0.19309807156E+04  0.22352511706E+04  0.00000000000E+00 0.  1.
<mgrwt>
<rscale>  0 0.30960150E+04</rscale>
<asrwt>0</asrwt>
<pdfrwt beam="1">  1        2 0.38057110E+00 0.30960150E+04</pdfrwt>
<pdfrwt beam="2">  1       -2 0.14903340E+00 0.30960150E+04</pdfrwt>
<totfact> 0.93311402E-01</totfact>
</mgrwt>
</event>
<event>
 6    1  0.5026615E-004  0.1205980E+04  0.7818608E-02  0.9107639E-01
         -2   -1    0    0    0  501 -0.00000000000E+00  0.00000000000E+00  0.13439868521E+03  0.13439868521E+03  0.00000000000E+00 0. -1.
          2   -1    0    0  501    0  0.00000000000E+00 -0.00000000000E+00 -0.27053589331E+04  0.27053589331E+04  0.00000000000E+00 0.  1.
         23    2    1    2    0    0 -0.37212397168E+02 -0.20406053853E+03 -0.26173921189E+04  0.26271984864E+04  0.91678334267E+02 0.  0.
         13    1    3    3    0    0 -0.53853799096E+02 -0.76086474898E+02 -0.13635374477E+04  0.13667200718E+04  0.00000000000E+00 0.  1.
        -13    1    3    3    0    0  0.16641401928E+02 -0.12797406363E+03 -0.12538546713E+04  0.12604784147E+04  0.00000000000E+00 0. -1.
         22    1    1    2    0    0  0.37212397168E+02  0.20406053853E+03  0.46431871065E+02  0.21255913186E+03  0.00000000000E+00 0. -1.
<mgrwt>
<rscale>  0 0.12059796E+04</rscale>
<asrwt>0</asrwt>
<pdfrwt beam="1">  1        2 0.41620904E+00 0.12059796E+04</pdfrwt>
<pdfrwt beam="2">  1       -2 0.20676722E-01 0.12059796E+04</pdfrwt>
<totfact> 0.52895877E+01</totfact>
</mgrwt>
</event>
<event>
 6    1  0.5026615E-004  0.2643573E+04  0.7818608E-02  0.8353549E-01
          2   -1    0    0  501    0  0.00000000000E+00  0.00000000000E+00  0.13148989120E+04  0.13148989120E+04  0.00000000000E+00 0.  1.
         -2   -1    0    0    0  501 -0.00000000000E+00 -0.00000000000E+00 -0.13287098395E+04  0.13287098395E+04  0.00000000000E+00 0. -1.
         23    2    1    2    0    0  0.12887343747E+04  0.23643501563E+03 -0.16451202419E+03  0.13247271702E+04  0.10535684157E+03 0.  0.
         11    1    3    3    0    0  0.98287822979E+03  0.13430590642E+03 -0.12552660731E+03  0.99992230710E+03  0.00000000000E+00 0. -1.
        -11    1    3    3    0    0  0.30585614492E+03  0.10212910921E+03 -0.38985416875E+02  0.32480486305E+03  0.00000000000E+00 0.  1.
         22    1    1    2    0    0 -0.12887343747E+04 -0.23643501563E+03  0.15070109672E+03  0.13188815814E+04  0.00000000000E+00 0. -1.
<mgrwt>
<rscale>  0 0.26435727E+04</rscale>
<asrwt>0</asrwt>
<pdfrwt beam="1">  1        2 0.20229214E+00 0.26435727E+04</pdfrwt>
<pdfrwt beam="2">  1       -2 0.20441690E+00 0.26435727E+04</pdfrwt>
<totfact> 0.17773556E+00</totfact>
</mgrwt>
</event>
<event>
 6    1  0.5026615E-004  0.2427303E+04  0.7818608E-02  0.8429352E-01
         -2   -1    0    0    0  501 -0.00000000000E+00  0.00000000000E+00  0.98734647725E+03  0.98734647725E+03  0.00000000000E+00 0. -1.
          2   -1    0    0  501    0  0.00000000000E+00 -0.00000000000E+00 -0.14918272701E+04  0.14918272701E+04  0.00000000000E+00 0.  1.
         23    2    1    2    0    0  0.52334109819E+03 -0.10886179354E+04 -0.15188259079E+03  0.12208810921E+04  0.92235597141E+02 0.  0.
         11    1    3    3    0    0  0.86276995969E+02 -0.11825975390E+03 -0.32582994132E+02  0.14996913327E+03  0.00000000000E+00 0. -1.
        -11    1    3    3    0    0  0.43706410222E+03 -0.97035818146E+03 -0.11929959665E+03  0.10709119588E+04  0.00000000000E+00 0.  1.
         22    1    1    2    0    0 -0.52334109819E+03  0.10886179354E+04 -0.35259820210E+03  0.12582926553E+04  0.00000000000E+00 0.  1.
<mgrwt>
<rscale>  0 0.24273034E+04</rscale>
<asrwt>0</asrwt>
<pdfrwt beam="1">  1        2 0.22951189E+00 0.24273034E+04</pdfrwt>
<pdfrwt beam="2">  1       -2 0.15189946E+00 0.24273034E+04</pdfrwt>
<totfact> 0.33359731E+00</totfact>
</mgrwt>
</event>
<event>
 6    1  0.5026615E-004  0.4683541E+04  0.7818608E-02  0.7879269E-01
          2   -1    0    0  501    0  0.00000000000E+00  0.00000000000E+00  0.19574022271E+04  0.19574022271E+04  0.00000000000E+00 0.  1.
         -2   -1    0    0    0  501 -0.00000000000E+00 -0.00000000000E+00 -0.28016153389E+04  0.28016153389E+04  0.00000000000E+00 0. -1.
         23    2    1    2    0    0 -0.39093084851E+03 -0.14603945005E+04  0.13936761345E+04  0.20583274128E+04  0.93805889683E+02 0.  0.
         11    1    3    3    0    0 -0.23053976174E+03 -0.99233349092E+03  0.89959248482E+03  0.13590956470E+04  0.00000000000E+00 0. -1.
        -11    1    3    3    0    0 -0.16039108677E+03 -0.46806100958E+03  0.49408364968E+03  0.69923176579E+03  0.00000000000E+00 0.  1.
         22    1    1    2    0    0  0.39093084851E+03  0.14603945005E+04 -0.22378892463E+04  0.27006901533E+04  0.00000000000E+00 0. -1.
<mgrwt>
<rscale>  0 0.46835406E+04</rscale>
<asrwt>0</asrwt>
<pdfrwt beam="1">  1        2 0.30113881E+00 0.46835406E+04</pdfrwt>
<pdfrwt beam="2">  1       -2 0.43101774E+00 0.46835406E+04</pdfrwt>
<totfact> 0.24447425E-02</totfact>
</mgrwt>
</event>
<event>
 6    1  0.5026615E-004  0.4020842E+04  0.7818608E-02  0.8000355E-01
         -2   -1    0    0    0  501 -0.00000000000E+00  0.00000000000E+00  0.12162787633E+04  0.12162787633E+04  0.00000000000E+00 0. -1.
          2   -1    0    0  501    0  0.00000000000E+00 -0.00000000000E+00 -0.33230806644E+04  0.33230806644E+04  0.00000000000E+00 0.  1.
         23    2    1    2    0    0  0.87305753704E+03 -0.16518876194E+04 -0.18885954684E+04  0.26582490595E+04  0.92374504872E+02 0.  0.
         13    1    3    3    0    0  0.23386743606E+03 -0.45380215315E+03 -0.45902363280E+03  0.68653701089E+03  0.00000000000E+00 0. -1.
        -13    1    3    3    0    0  0.63919010098E+03 -0.11980854662E+04 -0.14295718356E+04  0.19717120486E+04  0.00000000000E+00 0.  1.
         22    1    1    2    0    0 -0.87305753704E+03  0.16518876194E+04 -0.21820643267E+03  0.18811103682E+04  0.00000000000E+00 0.  1.
<mgrwt>
<rscale>  0 0.40208419E+04</rscale>
<asrwt>0</asrwt>
<pdfrwt beam="1">  1        2 0.51124318E+00 0.40208419E+04</pdfrwt>
<pdfrwt beam="2">  1       -2 0.18711981E+00 0.40208419E+04</pdfrwt>
<totfact> 0.13703789E-01</totfact>
</mgrwt>
</event>
<event>
 6    1  0.5026615E-004  0.1230633E+04  0.7818608E-02  0.9086458E-01
         -2   -1    0    0    0  501 -0.00000000000E+00  0.00000000000E+00  0.15615247518E+03  0.15615247518E+03  0.00000000000E+00 0. -1.
          2   -1    0    0  501    0  0.00000000000E+00 -0.00000000000E+00 -0.24246451813E+04  0.24246451813E+04  0.00000000000E+00 0.  1.
         23    2    1    2    0    0 -0.12964163453E+03 -0.43052636010E+03 -0.20096736538E+04  0.20620036685E+04  0.10445589426E+03 0.  0.
         11    1    3    3    0    0 -0.64099963100E+02 -0.16561175710E+03 -0.10223307237E+04  0.10376397101E+04  0.00000000000E+00 0. -1.
        -11    1    3    3    0    0 -0.65541671433E+02 -0.26491460300E+03 -0.98734293009E+03  0.10243639584E+04  0.00000000000E+00 0.  1.
         22    1    1    2    0    0  0.12964163453E+03  0.43052636010E+03 -0.25881905228E+03  0.51879398798E+03  0.00000000000E+00 0. -1.
<mgrwt>
<rscale>  0 0.12306329E+04</rscale>
<asrwt>0</asrwt>
<pdfrwt beam="1">  1        2 0.37302231E+00 0.12306329E+04</pdfrwt>
<pdfrwt beam="2">  1       -2 0.24023459E-01 0.12306329E+04</pdfrwt>
<totfact> 0.58719171E+01</totfact>
</mgrwt>
</event>
<event>
 6    1  0.5026615E-004  0.4620619E+04  0.7818608E-02  0.7889854E-01
          1   -1    0    0  501    0  0.00000000000E+00  0.00000000000E+00  0.21698438279E+04  0.21698438279E+04  0.00000000000E+00 0.  1.
         -1   -1    0    0    0  501 -0.00000000000E+00 -0.00000000000E+00 -0.24598683924E+04  0.24598683924E+04  0.00000000000E+00 0. -1.
         23    2    1    2    0    0  0.71367310951E+03 -0.19462424181E+04  0.87487105429E+03  0.22518622124E+04  0.91078014479E+02 0.  0.
         13    1    3    3    0    0  0.38914765645E+03 -0.11413474501E+04  0.54714330857E+03  0.13241886952E+04  0.00000000000E+00 0. -1.
        -13    1    3    3    0    0  0.32452545306E+03 -0.80489496804E+03  0.32772774572E+03  0.92767351723E+03  0.00000000000E+00 0.  1.
         22    1    1    2    0    0 -0.71367310951E+03  0.19462424181E+04 -0.11648956189E+04  0.23778500079E+04  0.00000000000E+00 0. -1.
<mgrwt>
<rscale>  0 0.46206191E+04</rscale>
<asrwt>0</asrwt>
<pdfrwt beam="1">  1        1 0.33382213E+00 0.46206191E+04</pdfrwt>
<pdfrwt beam="2">  1       -1 0.37844129E+00 0.46206191E+04</pdfrwt>
<totfact> 0.17037090E-02</totfact>
</mgrwt>
</event>
<event>
 6    1  0.5026615E-004  0.3560452E+04  0.7818608E-02  0.8099611E-01
          2   -1    0    0  501    0  0.00000000000E+00  0.00000000000E+00  0.23536197491E+04  0.23536197491E+04  0.00000000000E+00 0.  1.
         -2   -1    0    0    0  501 -0.00000000000E+00 -0.00000000000E+00 -0.13465238190E+04  0.13465238190E+04  0.00000000000E+00 0. -1.
         23    2    1    2    0    0 -0.86634164096E+03  0.10124879376E+04 -0.72108732065E+03  0.15178747920E+04  0.91089503844E+02 0.  0.
         13    1    3    3    0    0 -0.66470777699E+03  0.81970415410E+03 -0.59762618735E+03  0.12128101207E+04  0.00000000000E+00 0.  1.
        -13    1    3    3    0    0 -0.20163386397E+03  0.19278378346E+03 -0.12346113330E+03  0.30506467134E+03  0.00000000000E+00 0. -1.
         22    1    1    2    0    0  0.86634164096E+03 -0.10124879376E+04  0.17281832507E+04  0.21822687760E+04  0.00000000000E+00 0.  1.
<mgrwt>
<rscale>  0 0.35604522E+04</rscale>
<asrwt>0</asrwt>
<pdfrwt beam="1">  1        2 0.36209535E+00 0.35604522E+04</pdfrwt>
<pdfrwt beam="2">  1       -2 0.20715751E+00 0.35604522E+04</pdfrwt>
<totfact> 0.41274087E-01</totfact>
</mgrwt>
</event>
<event>
 6    1  0.5026615E-004  0.9655889E+03  0.7818608E-02  0.9347113E-01
         -2   -1    0    0    0  501 -0.00000000000E+00  0.00000000000E+00  0.17646750022E+03  0.17646750022E+03  0.00000000000E+00 0. -1.
          2   -1    0    0  501    0  0.00000000000E+00 -0.00000000000E+00 -0.13208690821E+04  0.13208690821E+04  0.00000000000E+00 0.  1.
         23    2    1    2    0    0  0.19777034180E+03  0.31280530772E+03 -0.10468072449E+04  0.11146030938E+04  0.97848761167E+02 0.  0.
         13    1    3    3    0    0  0.15833357116E+03  0.18145808990E+03 -0.57839735602E+03  0.62653017453E+03  0.00000000000E+00 0. -1.
        -13    1    3    3    0    0  0.39436770645E+02  0.13134721782E+03 -0.46840988888E+03  0.48807291925E+03  0.00000000000E+00 0.  1.
         22    1    1    2    0    0 -0.19777034180E+03 -0.31280530772E+03 -0.97594336977E+02  0.38273348853E+03  0.00000000000E+00 0. -1.
<mgrwt>
<rscale>  0 0.96558887E+03</rscale>
<asrwt>0</asrwt>
<pdfrwt beam="1">  1        2 0.20321063E+00 0.96558887E+03</pdfrwt>
<pdfrwt beam="2">  1       -2 0.27148846E-01 0.96558887E+03</pdfrwt>
<totfact> 0.19808695E+02</totfact>
</mgrwt>
</event>
<event>
 6    1  0.5026615E-004  0.1794178E+04  0.7818608E-02  0.8709402E-01
         -2   -1    0    0    0  501 -0.00000000000E+00  0.00000000000E+00  0.91756788525E+03  0.91756788525E+03  0.00000000000E+00 0. -1.
          2   -1    0    0  501    0  0.00000000000E+00 -0.00000000000E+00 -0.87706724330E+03  0.87706724330E+03  0.00000000000E+00 0.  1.
         23    2    1    2    0    0 -0.62610582453E+01  0.88650325464E+03  0.14140990995E+03  0.90238521866E+03  0.91515566336E+02 0.  0.
         13    1    3    3    0    0  0.60721074681E+00  0.48512178315E+03  0.12325327378E+03  0.50053459689E+03  0.00000000000E+00 0. -1.
        -13    1    3    3    0    0 -0.68682689921E+01  0.40138147149E+03  0.18156636175E+02  0.40185062177E+03  0.00000000000E+00 0.  1.
         22    1    1    2    0    0  0.62610582453E+01 -0.88650325464E+03 -0.10090926800E+03  0.89224990989E+03  0.00000000000E+00 0.  1.
<mgrwt>
<rscale>  0 0.17941781E+04</rscale>
<asrwt>0</asrwt>
<pdfrwt beam="1">  1        2 0.13493342E+00 0.17941781E+04</pdfrwt>
<pdfrwt beam="2">  1       -2 0.14116429E+00 0.17941781E+04</pdfrwt>
<totfact> 0.10089548E+01</totfact>
</mgrwt>
</event>
<event>
 6    1  0.5026615E-004  0.3307854E+04  0.7818608E-02  0.8160900E-01
          1   -1    0    0  501    0  0.00000000000E+00  0.00000000000E+00  0.19920425341E+04  0.19920425341E+04  0.00000000000E+00 0.  1.
         -1   -1    0    0    0  501 -0.00000000000E+00 -0.00000000000E+00 -0.13732008653E+04  0.13732008653E+04  0.00000000000E+00 0. -1.
         23    2    1    2    0    0 -0.98644797176E+03  0.13160791977E+04  0.14487021339E+03  0.16535795900E+04  0.90520860724E+02 0.  0.
         13    1    3    3    0    0 -0.72818383155E+03  0.94071504036E+03  0.14087200835E+03  0.11979321360E+04  0.00000000000E+00 0.  1.
        -13    1    3    3    0    0 -0.25826414022E+03  0.37536415733E+03  0.39982050444E+01  0.45564745404E+03  0.00000000000E+00 0. -1.
         22    1    1    2    0    0  0.98644797176E+03 -0.13160791977E+04  0.47397145539E+03  0.17116638093E+04  0.00000000000E+00 0.  1.
<mgrwt>
<rscale>  0 0.33078540E+04</rscale>
<asrwt>0</asrwt>
<pdfrwt beam="1">  1        1 0.30646808E+00 0.33078540E+04</pdfrwt>
<pdfrwt beam="2">  1       -1 0.21126167E+00 0.33078540E+04</pdfrwt>
<totfact> 0.31533679E-01</totfact>
</mgrwt>
</event>
<event>
 6    1  0.5026615E-004  0.9494038E+03  0.7818608E-02  0.9365848E-01
         -2   -1    0    0    0  501 -0.00000000000E+00  0.00000000000E+00  0.27245195873E+04  0.27245195873E+04  0.00000000000E+00 0. -1.
          2   -1    0    0  501    0  0.00000000000E+00 -0.00000000000E+00 -0.82708860146E+02  0.82708860146E+02  0.00000000000E+00 0.  1.
         23    2    1    2    0    0 -0.17855730696E+03  0.43331430589E+02  0.26132335924E+04  0.26212795906E+04  0.91414215999E+02 0.  0.
         13    1    3    3    0    0 -0.15966170098E+03  0.47269050664E+02  0.17675586988E+04  0.17753844585E+04  0.00000000000E+00 0. -1.
        -13    1    3    3    0    0 -0.18895605977E+02 -0.39376200751E+01  0.84567489362E+03  0.84589513208E+03  0.00000000000E+00 0.  1.
         22    1    1    2    0    0  0.17855730696E+03 -0.43331430589E+02  0.28577134796E+02  0.18594885689E+03  0.00000000000E+00 0.  1.
<mgrwt>
<rscale>  0 0.94940383E+03</rscale>
<asrwt>0</asrwt>
<pdfrwt beam="1">  1        2 0.12724442E-01 0.94940383E+03</pdfrwt>
<pdfrwt beam="2">  1       -2 0.41915679E+00 0.94940383E+03</pdfrwt>
<totfact> 0.28333048E+00</totfact>
</mgrwt>
</event>
<event>
 6    1  0.5026615E-004  0.1939907E+04  0.7818608E-02  0.8635243E-01
         -2   -1    0    0    0  501 -0.00000000000E+00  0.00000000000E+00  0.13499594371E+04  0.13499594371E+04  0.00000000000E+00 0.  1.
          2   -1    0    0  501    0  0.00000000000E+00 -0.00000000000E+00 -0.69691688242E+03  0.69691688242E+03  0.00000000000E+00 0. -1.
         23    2    1    2    0    0 -0.45864557062E+03  0.85049667533E+03  0.26921687755E+03  0.10071539986E+04  0.90449408415E+02 0.  0.
         11    1    3    3    0    0 -0.14081131734E+03  0.25536535444E+03  0.12473566930E+03  0.31717231678E+03  0.00000000000E+00 0. -1.
        -11    1    3    3    0    0 -0.31783425328E+03  0.59513132089E+03  0.14448120825E+03  0.68998168179E+03  0.00000000000E+00 0.  1.
         22    1    1    2    0    0  0.45864557062E+03 -0.85049667533E+03  0.38382567710E+03  0.10397223209E+04  0.00000000000E+00 0.  1.
<mgrwt>
<rscale>  0 0.19399067E+04</rscale>
<asrwt>0</asrwt>
<pdfrwt beam="1">  1        2 0.10721798E+00 0.19399067E+04</pdfrwt>
<pdfrwt beam="2">  1       -2 0.20768607E+00 0.19399067E+04</pdfrwt>
<totfact> 0.45557740E+00</totfact>
</mgrwt>
</event>
<event>
 6    1  0.5026615E-004  0.3044698E+04  0.7818608E-02  0.8231081E-01
          2   -1    0    0  501    0  0.00000000000E+00  0.00000000000E+00  0.20229366657E+04  0.20229366657E+04  0.00000000000E+00 0.  1.
         -2   -1    0    0    0  501 -0.00000000000E+00 -0.00000000000E+00 -0.11456344476E+04  0.11456344476E+04  0.00000000000E+00 0. -1.
         23    2    1    2    0    0 -0.93267077661E+03  0.11023790950E+04 -0.56755536752E+02  0.14488099857E+04  0.10351201455E+03 0.  0.
         13    1    3    3    0    0 -0.41103832536E+03  0.41614969282E+03 -0.46517273601E+02  0.58676820679E+03  0.00000000000E+00 0.  1.
        -13    1    3    3    0    0 -0.52163245125E+03  0.68622940215E+03 -0.10238263150E+02  0.86204177892E+03  0.00000000000E+00 0. -1.
         22    1    1    2    0    0  0.93267077661E+03 -0.11023790950E+04  0.93405775484E+03  0.17197611276E+04  0.00000000000E+00 0.  1.
<mgrwt>
<rscale>  0 0.30446976E+04</rscale>
<asrwt>0</asrwt>
<pdfrwt beam="1">  1        2 0.31122102E+00 0.30446976E+04</pdfrwt>
<pdfrwt beam="2">  1       -2 0.17625145E+00 0.30446976E+04</pdfrwt>
<totfact> 0.10654802E+00</totfact>
</mgrwt>
</event>
<event>
 6    1  0.5026615E-004  0.1889867E+04  0.7818608E-02  0.8659917E-01
         -2   -1    0    0    0  501 -0.00000000000E+00  0.00000000000E+00  0.56098728935E+03  0.56098728935E+03  0.00000000000E+00 0. -1.
          2   -1    0    0  501    0  0.00000000000E+00 -0.00000000000E+00 -0.15916573554E+04  0.15916573554E+04  0.00000000000E+00 0.  1.
         23    2    1    2    0    0 -0.36713404972E+03 -0.55426935072E+03 -0.12777769448E+04  0.14433747855E+04  0.92816631489E+02 0.  0.
         13    1    3    3    0    0 -0.34524513781E+03 -0.48946891010E+03 -0.11885454361E+04  0.13309448797E+04  0.00000000000E+00 0. -1.
        -13    1    3    3    0    0 -0.21888911909E+02 -0.64800440622E+02 -0.89231508778E+02  0.11242990584E+03  0.00000000000E+00 0.  1.
         22    1    1    2    0    0  0.36713404972E+03  0.55426935072E+03  0.24710687882E+03  0.70926985920E+03  0.00000000000E+00 0. -1.
<mgrwt>
<rscale>  0 0.18898672E+04</rscale>
<asrwt>0</asrwt>
<pdfrwt beam="1">  1        2 0.24487036E+00 0.18898672E+04</pdfrwt>
<pdfrwt beam="2">  1       -2 0.86305738E-01 0.18898672E+04</pdfrwt>
<totfact> 0.12295517E+01</totfact>
</mgrwt>
</event>
<event>
 6    1  0.5026615E-004  0.1132333E+04  0.7818608E-02  0.9174239E-01
         -2   -1    0    0    0  501 -0.00000000000E+00  0.00000000000E+00  0.43084174155E+03  0.43084174155E+03  0.00000000000E+00 0. -1.
          2   -1    0    0  501    0  0.00000000000E+00 -0.00000000000E+00 -0.74399575197E+03  0.74399575197E+03  0.00000000000E+00 0.  1.
         23    2    1    2    0    0  0.26832034367E+02  0.10003568885E+03 -0.73139368271E+03  0.74396451853E+03  0.88427306941E+02 0.  0.
         13    1    3    3    0    0  0.46907797262E+02  0.10114470494E+03 -0.67380274553E+03  0.68296466428E+03  0.00000000000E+00 0. -1.
        -13    1    3    3    0    0 -0.20075762894E+02 -0.11090160887E+01 -0.57590937179E+02  0.60999854242E+02  0.00000000000E+00 0.  1.
         22    1    1    2    0    0 -0.26832034367E+02 -0.10003568885E+03  0.41823967228E+03  0.43087297500E+03  0.00000000000E+00 0. -1.
<mgrwt>
<rscale>  0 0.11323329E+04</rscale>
<asrwt>0</asrwt>
<pdfrwt beam="1">  1        2 0.11446088E+00 0.11323329E+04</pdfrwt>
<pdfrwt beam="2">  1       -2 0.66283345E-01 0.11323329E+04</pdfrwt>
<totfact> 0.78631075E+01</totfact>
</mgrwt>
</event>
<event>
 6    1  0.5026615E-004  0.2457272E+04  0.7818608E-02  0.8418368E-01
          2   -1    0    0  501    0  0.00000000000E+00  0.00000000000E+00  0.24174533037E+04  0.24174533037E+04  0.00000000000E+00 0.  1.
         -2   -1    0    0    0  501 -0.00000000000E+00 -0.00000000000E+00 -0.62443681358E+03  0.62443681358E+03  0.00000000000E+00 0. -1.
         23    2    1    2    0    0 -0.82382139326E+03 -0.77127314030E+03  0.14937213740E+04  0.18743621684E+04  0.92119759867E+02 0.  0.
         13    1    3    3    0    0 -0.28461293001E+03 -0.24670934277E+03  0.56768159948E+03  0.68127264595E+03  0.00000000000E+00 0. -1.
        -13    1    3    3    0    0 -0.53920846325E+03 -0.52456379754E+03  0.92603977454E+03  0.11930895224E+04  0.00000000000E+00 0.  1.
         22    1    1    2    0    0  0.82382139326E+03  0.77127314030E+03  0.29929511612E+03  0.11675279489E+04  0.00000000000E+00 0. -1.
<mgrwt>
<rscale>  0 0.24572723E+04</rscale>
<asrwt>0</asrwt>
<pdfrwt beam="1">  1        2 0.37191589E+00 0.24572723E+04</pdfrwt>
<pdfrwt beam="2">  1       -2 0.96067204E-01 0.24572723E+04</pdfrwt>
<totfact> 0.31563855E+00</totfact>
</mgrwt>
</event>
<event>
 6    1  0.5026615E-004  0.1068760E+04  0.7818608E-02  0.9236187E-01
          2   -1    0    0  501    0  0.00000000000E+00  0.00000000000E+00  0.99820169715E+03  0.99820169715E+03  0.00000000000E+00 0.  1.
         -2   -1    0    0    0  501 -0.00000000000E+00 -0.00000000000E+00 -0.28607625932E+03  0.28607625932E+03  0.00000000000E+00 0. -1.
         23    2    1    2    0    0 -0.34542855230E+03 -0.21887430319E+03 -0.48435079758E+02  0.42075080215E+03  0.86362232550E+02 0.  0.
         11    1    3    3    0    0 -0.22016876461E+03 -0.18173302118E+03 -0.51362670227E+02  0.29006775034E+03  0.00000000000E+00 0. -1.
        -11    1    3    3    0    0 -0.12525978769E+03 -0.37141282016E+02  0.29275904691E+01  0.13068305180E+03  0.00000000000E+00 0.  1.
         22    1    1    2    0    0  0.34542855230E+03  0.21887430319E+03  0.76056051759E+03  0.86352715433E+03  0.00000000000E+00 0.  1.
<mgrwt>
<rscale>  0 0.10687597E+04</rscale>
<asrwt>0</asrwt>
<pdfrwt beam="1">  1        2 0.15356949E+00 0.10687597E+04</pdfrwt>
<pdfrwt beam="2">  1       -2 0.44011733E-01 0.10687597E+04</pdfrwt>
<totfact> 0.12291926E+02</totfact>
</mgrwt>
</event>
<event>
 6    1  0.5026615E-004  0.2122470E+04  0.7818608E-02  0.8551409E-01
          2   -1    0    0  501    0  0.00000000000E+00  0.00000000000E+00  0.22025418432E+04  0.22025418432E+04  0.00000000000E+00 0.  1.
         -2   -1    0    0    0  501 -0.00000000000E+00 -0.00000000000E+00 -0.51132735200E+03  0.51132735200E+03  0.00000000000E+00 0. -1.
         23    2    1    2    0    0  0.65963057269E+03  0.13246341402E+03 -0.19910912641E+03  0.70738410237E+03  0.89937620543E+02 0.  0.
         13    1    3    3    0    0  0.55661074143E+03  0.82118262075E+02 -0.18267999448E+03  0.59154958104E+03  0.00000000000E+00 0. -1.
        -13    1    3    3    0    0  0.10301983126E+03  0.50345151944E+02 -0.16429131929E+02  0.11583452133E+03  0.00000000000E+00 0.  1.
         22    1    1    2    0    0 -0.65963057269E+03 -0.13246341402E+03  0.18903236176E+04  0.20064850929E+04  0.00000000000E+00 0.  1.
<mgrwt>
<rscale>  0 0.21224702E+04</rscale>
<asrwt>0</asrwt>
<pdfrwt beam="1">  1        2 0.33885259E+00 0.21224702E+04</pdfrwt>
<pdfrwt beam="2">  1       -2 0.78665748E-01 0.21224702E+04</pdfrwt>
<totfact> 0.67958733E+00</totfact>
</mgrwt>
</event>
<event>
 6    1  0.5164833E-004  0.1684621E+04  0.7818608E-02  0.8770184E-01
          2   -1    0    0  501    0  0.00000000000E+00  0.00000000000E+00  0.21355741709E+04  0.21355741709E+04  0.00000000000E+00 0. -1.
         -2   -1    0    0    0  501 -0.00000000000E+00 -0.00000000000E+00 -0.33222315206E+03  0.33222315206E+03  0.00000000000E+00 0.  1.
         23    2    1    2    0    0 -0.60227055333E+03  0.14559617320E+03  0.73788907439E+02  0.63059478587E+03  0.90977557946E+02 0.  0.
         13    1    3    3    0    0 -0.25009551642E+03  0.16641286421E+02  0.16368631488E+02  0.25118246723E+03  0.00000000000E+00 0. -1.
        -13    1    3    3    0    0 -0.35217503691E+03  0.12895488678E+03  0.57420275951E+02  0.37941231864E+03  0.00000000000E+00 0.  1.
         22    1    1    2    0    0  0.60227055333E+03 -0.14559617320E+03  0.17295621114E+04  0.18372025370E+04  0.00000000000E+00 0. -1.
<mgrwt>
<rscale>  0 0.16846212E+04</rscale>
<asrwt>0</asrwt>
<pdfrwt beam="1">  1        2 0.32854986E+00 0.16846212E+04</pdfrwt>
<pdfrwt beam="2">  1       -2 0.51111256E-01 0.16846212E+04</pdfrwt>
<totfact> 0.19351338E+01</totfact>
</mgrwt>
</event>
<event>
 6    1  0.5026615E-004  0.2297908E+04  0.7818608E-02  0.8478746E-01
         -2   -1    0    0    0  501 -0.00000000000E+00  0.00000000000E+00  0.13814674504E+04  0.13814674504E+04  0.00000000000E+00 0. -1.
          2   -1    0    0  501    0  0.00000000000E+00 -0.00000000000E+00 -0.95557452664E+03  0.95557452664E+03  0.00000000000E+00 0.  1.
         23    2    1    2    0    0  0.15583704370E+03 -0.61360203387E+03  0.11862041947E+04  0.13476654720E+04  0.91264410643E+02 0.  0.
         13    1    3    3    0    0  0.92080889932E+02 -0.24144258928E+03  0.55374901995E+03  0.61107396549E+03  0.00000000000E+00 0. -1.
        -13    1    3    3    0    0  0.63756153770E+02 -0.37215944459E+03  0.63245517476E+03  0.73659150648E+03  0.00000000000E+00 0.  1.
         22    1    1    2    0    0 -0.15583704370E+03  0.61360203387E+03 -0.76031127092E+03  0.98937650510E+03  0.00000000000E+00 0.  1.
<mgrwt>
<rscale>  0 0.22979078E+04</rscale>
<asrwt>0</asrwt>
<pdfrwt beam="1">  1        2 0.14701146E+00 0.22979078E+04</pdfrwt>
<pdfrwt beam="2">  1       -2 0.21253346E+00 0.22979078E+04</pdfrwt>
<totfact> 0.26916685E+00</totfact>
</mgrwt>
</event>
<event>
 6    1  0.5026615E-004  0.9414476E+03  0.7818608E-02  0.9375203E-01
          2   -1    0    0  501    0  0.00000000000E+00  0.00000000000E+00  0.52422077236E+03  0.52422077236E+03  0.00000000000E+00 0.  1.
         -2   -1    0    0    0  501 -0.00000000000E+00 -0.00000000000E+00 -0.42268623691E+03  0.42268623691E+03  0.00000000000E+00 0. -1.
         23    2    1    2    0    0 -0.25074927483E+03 -0.36078809594E+03 -0.11290713859E+03  0.45800161908E+03  0.63041352583E+02 0.  0.
         13    1    3    3    0    0 -0.19139534701E+03 -0.29571713424E+03 -0.11298336788E+03  0.36992707897E+03  0.00000000000E+00 0.  1.
        -13    1    3    3    0    0 -0.59353927819E+02 -0.65070961696E+02  0.76229288121E-01  0.88074540104E+02  0.00000000000E+00 0. -1.
         22    1    1    2    0    0  0.25074927483E+03  0.36078809594E+03  0.21444167403E+03  0.48890539019E+03  0.00000000000E+00 0.  1.
<mgrwt>
<rscale>  0 0.94144762E+03</rscale>
<asrwt>0</asrwt>
<pdfrwt beam="1">  1        2 0.80649350E-01 0.94144762E+03</pdfrwt>
<pdfrwt beam="2">  1       -2 0.65028652E-01 0.94144762E+03</pdfrwt>
<totfact> 0.12734274E+02</totfact>
</mgrwt>
</event>
<event>
 6    1  0.5026615E-004  0.2366444E+04  0.7818608E-02  0.8452174E-01
          2   -1    0    0  501    0  0.00000000000E+00  0.00000000000E+00  0.21234819697E+04  0.21234819697E+04  0.00000000000E+00 0.  1.
         -2   -1    0    0    0  501 -0.00000000000E+00 -0.00000000000E+00 -0.65930130018E+03  0.65930130018E+03  0.00000000000E+00 0. -1.
         23    2    1    2    0    0 -0.61307354071E+03 -0.91810929142E+02 -0.44948744338E+03  0.77121322154E+03  0.91882850985E+02 0.  0.
         13    1    3    3    0    0 -0.47603645873E+03 -0.84265094247E+02 -0.39208281661E+03  0.62244698668E+03  0.00000000000E+00 0.  1.
        -13    1    3    3    0    0 -0.13703708197E+03 -0.75458348957E+01 -0.57404626770E+02  0.14876623486E+03  0.00000000000E+00 0. -1.
         22    1    1    2    0    0  0.61307354071E+03  0.91810929142E+02  0.19136681129E+04  0.20115700483E+04  0.00000000000E+00 0.  1.
<mgrwt>
<rscale>  0 0.23664441E+04</rscale>
<asrwt>0</asrwt>
<pdfrwt beam="1">  1        2 0.32668953E+00 0.23664441E+04</pdfrwt>
<pdfrwt beam="2">  1       -2 0.10143097E+00 0.23664441E+04</pdfrwt>
<totfact> 0.41043598E+00</totfact>
</mgrwt>
</event>
<event>
 6    1  0.5026615E-004  0.2794321E+04  0.7818608E-02  0.8305034E-01
         -2   -1    0    0    0  501 -0.00000000000E+00  0.00000000000E+00  0.17940800123E+04  0.17940800123E+04  0.00000000000E+00 0. -1.
          2   -1    0    0  501    0  0.00000000000E+00 -0.00000000000E+00 -0.10880545334E+04  0.10880545334E+04  0.00000000000E+00 0.  1.
         23    2    1    2    0    0  0.40142998735E+03  0.38917148451E+03 -0.96544975340E+03  0.11196278277E+04  0.94195366819E+02 0.  0.
         11    1    3    3    0    0  0.11632922327E+03  0.59743714206E+02 -0.20268505064E+03  0.24121158622E+03  0.00000000000E+00 0. -1.
        -11    1    3    3    0    0  0.28510076408E+03  0.32942777031E+03 -0.76276470276E+03  0.87841624148E+03  0.00000000000E+00 0.  1.
         22    1    1    2    0    0 -0.40142998735E+03 -0.38917148451E+03  0.16714752323E+04  0.17625067181E+04  0.00000000000E+00 0. -1.
<mgrwt>
<rscale>  0 0.27943206E+04</rscale>
<asrwt>0</asrwt>
<pdfrwt beam="1">  1        2 0.16739301E+00 0.27943206E+04</pdfrwt>
<pdfrwt beam="2">  1       -2 0.27601231E+00 0.27943206E+04</pdfrwt>
<totfact> 0.85922069E-01</totfact>
</mgrwt>
</event>
<event>
 6    1  0.5026615E-004  0.2183289E+04  0.7818608E-02  0.8525416E-01
         -2   -1    0    0    0  501 -0.00000000000E+00  0.00000000000E+00  0.76917091142E+03  0.76917091142E+03  0.00000000000E+00 0. -1.
          2   -1    0    0  501    0  0.00000000000E+00 -0.00000000000E+00 -0.15493147999E+04  0.15493147999E+04  0.00000000000E+00 0.  1.
         23    2    1    2    0    0  0.48867415688E+03  0.84722891901E+03 -0.90062919857E+03  0.13330335395E+04  0.96157118491E+02 0.  0.
         13    1    3    3    0    0  0.11528670290E+03  0.24284315156E+03 -0.29913535265E+03  0.40217630379E+03  0.00000000000E+00 0. -1.
        -13    1    3    3    0    0  0.37338745398E+03  0.60438576745E+03 -0.60149384592E+03  0.93085723576E+03  0.00000000000E+00 0.  1.
         22    1    1    2    0    0 -0.48867415688E+03 -0.84722891901E+03  0.12048531012E+03  0.98545217173E+03  0.00000000000E+00 0. -1.
<mgrwt>
<rscale>  0 0.21832891E+04</rscale>
<asrwt>0</asrwt>
<pdfrwt beam="1">  1        2 0.23835612E+00 0.21832891E+04</pdfrwt>
<pdfrwt beam="2">  1       -2 0.11833399E+00 0.21832891E+04</pdfrwt>
<totfact> 0.59922739E+00</totfact>
</mgrwt>
</event>
<event>
 6    1  0.5026615E-004  0.1623125E+04  0.7818608E-02  0.8806466E-01
          2   -1    0    0  501    0  0.00000000000E+00  0.00000000000E+00  0.80682789063E+03  0.80682789063E+03  0.00000000000E+00 0.  1.
         -2   -1    0    0    0  501 -0.00000000000E+00 -0.00000000000E+00 -0.81632441468E+03  0.81632441468E+03  0.00000000000E+00 0. -1.
         23    2    1    2    0    0 -0.61318803882E+03 -0.39670088080E+03  0.34357720985E+03  0.81196045294E+03  0.88675353001E+02 0.  0.
         13    1    3    3    0    0 -0.18763256756E+03 -0.17042710495E+03  0.10868579907E+03  0.27579699315E+03  0.00000000000E+00 0. -1.
        -13    1    3    3    0    0 -0.42555547126E+03 -0.22627377586E+03  0.23489141078E+03  0.53616345979E+03  0.00000000000E+00 0.  1.
         22    1    1    2    0    0  0.61318803882E+03  0.39670088080E+03 -0.35307373391E+03  0.81119185237E+03  0.00000000000E+00 0. -1.
<mgrwt>
<rscale>  0 0.16231245E+04</rscale>
<asrwt>0</asrwt>
<pdfrwt beam="1">  1        2 0.12412737E+00 0.16231245E+04</pdfrwt>
<pdfrwt beam="2">  1       -2 0.12558837E+00 0.16231245E+04</pdfrwt>
<totfact> 0.15446193E+01</totfact>
</mgrwt>
</event>
<event>
 6    1  0.5026615E-004  0.1285445E+04  0.7818608E-02  0.9041187E-01
          2   -1    0    0  501    0  0.00000000000E+00  0.00000000000E+00  0.33628043072E+03  0.33628043072E+03  0.00000000000E+00 0.  1.
         -2   -1    0    0    0  501 -0.00000000000E+00 -0.00000000000E+00 -0.12284166697E+04  0.12284166697E+04  0.00000000000E+00 0. -1.
         23    2    1    2    0    0  0.61370915055E+03 -0.89898484791E+02 -0.25852533439E+03  0.67802724223E+03  0.90360022379E+02 0.  0.
         13    1    3    3    0    0  0.39876437153E+03 -0.94326114425E+02 -0.14328064475E+03  0.43409651349E+03  0.00000000000E+00 0. -1.
        -13    1    3    3    0    0  0.21494477902E+03  0.44276296345E+01 -0.11524468964E+03  0.24393072874E+03  0.00000000000E+00 0.  1.
         22    1    1    2    0    0 -0.61370915055E+03  0.89898484791E+02 -0.63361090463E+03  0.88666985824E+03  0.00000000000E+00 0.  1.
<mgrwt>
<rscale>  0 0.12854454E+04</rscale>
<asrwt>0</asrwt>
<pdfrwt beam="1">  1        2 0.51735451E-01 0.12854454E+04</pdfrwt>
<pdfrwt beam="2">  1       -2 0.18898718E+00 0.12854454E+04</pdfrwt>
<totfact> 0.14913809E+01</totfact>
</mgrwt>
</event>
<event>
 6    1  0.5026615E-004  0.3810000E+04  0.7818608E-02  0.8044012E-01
         -2   -1    0    0    0  501 -0.00000000000E+00  0.00000000000E+00  0.12137073977E+04  0.12137073977E+04  0.00000000000E+00 0. -1.
          2   -1    0    0  501    0  0.00000000000E+00 -0.00000000000E+00 -0.29900321518E+04  0.29900321518E+04  0.00000000000E+00 0.  1.
         23    2    1    2    0    0  0.14897985699E+04 -0.11842886474E+04 -0.94628673798E+03  0.21274441737E+04  0.92307867041E+02 0.  0.
         11    1    3    3    0    0  0.16746631096E+03 -0.98456927881E+02 -0.89389544591E+02  0.21384392121E+03  0.00000000000E+00 0.  1.
        -11    1    3    3    0    0  0.13223322589E+04 -0.10858317195E+04 -0.85689719338E+03  0.19136002524E+04  0.00000000000E+00 0. -1.
         22    1    1    2    0    0 -0.14897985699E+04  0.11842886474E+04 -0.83003801615E+03  0.20762953758E+04  0.00000000000E+00 0. -1.
<mgrwt>
<rscale>  0 0.38099995E+04</rscale>
<asrwt>0</asrwt>
<pdfrwt beam="1">  1        2 0.46000494E+00 0.38099995E+04</pdfrwt>
<pdfrwt beam="2">  1       -2 0.18672422E+00 0.38099995E+04</pdfrwt>
<totfact> 0.23065571E-01</totfact>
</mgrwt>
</event>
<event>
 6    1  0.5026615E-004  0.1349598E+04  0.7818608E-02  0.8991133E-01
          2   -1    0    0  501    0  0.00000000000E+00  0.00000000000E+00  0.92207621124E+03  0.92207621124E+03  0.00000000000E+00 0.  1.
         -2   -1    0    0    0  501 -0.00000000000E+00 -0.00000000000E+00 -0.49383488385E+03  0.49383488385E+03  0.00000000000E+00 0. -1.
         23    2    1    2    0    0 -0.59882404764E+03  0.15788981943E+03  0.48813996744E+03  0.79373163369E+03  0.90608186188E+02 0.  0.
         13    1    3    3    0    0 -0.36019741289E+03  0.13272127809E+03  0.33132935477E+03  0.50708604324E+03  0.00000000000E+00 0. -1.
        -13    1    3    3    0    0 -0.23862663474E+03  0.25168541342E+02  0.15681061267E+03  0.28664559046E+03  0.00000000000E+00 0.  1.
         22    1    1    2    0    0  0.59882404764E+03 -0.15788981943E+03 -0.59898640059E+02  0.62217946140E+03  0.00000000000E+00 0. -1.
<mgrwt>
<rscale>  0 0.13495976E+04</rscale>
<asrwt>0</asrwt>
<pdfrwt beam="1">  1        2 0.14185788E+00 0.13495976E+04</pdfrwt>
<pdfrwt beam="2">  1       -2 0.75974597E-01 0.13495976E+04</pdfrwt>
<totfact> 0.42959217E+01</totfact>
</mgrwt>
</event>
<event>
 6    1  0.5026615E-004  0.2013587E+04  0.7818608E-02  0.8600295E-01
          2   -1    0    0  501    0  0.00000000000E+00  0.00000000000E+00  0.42233787812E+03  0.42233787812E+03  0.00000000000E+00 0.  1.
         -2   -1    0    0    0  501 -0.00000000000E+00 -0.00000000000E+00 -0.24000526649E+04  0.24000526649E+04  0.00000000000E+00 0. -1.
         23    2    1    2    0    0 -0.88297275829E+03 -0.41074991822E+03 -0.64447643788E+03  0.11713663511E+04  0.91612566780E+02 0.  0.
         11    1    3    3    0    0 -0.38836290757E+03 -0.13087291448E+03 -0.27261533096E+03  0.49221193240E+03  0.00000000000E+00 0. -1.
        -11    1    3    3    0    0 -0.49460985073E+03 -0.27987700374E+03 -0.37186110692E+03  0.67915441874E+03  0.00000000000E+00 0.  1.
         22    1    1    2    0    0  0.88297275829E+03  0.41074991822E+03 -0.13332383489E+04  0.16510241919E+04  0.00000000000E+00 0. -1.
<mgrwt>
<rscale>  0 0.20135870E+04</rscale>
<asrwt>0</asrwt>
<pdfrwt beam="1">  1        2 0.64975059E-01 0.20135870E+04</pdfrwt>
<pdfrwt beam="2">  1       -2 0.36923887E+00 0.20135870E+04</pdfrwt>
<totfact> 0.81686388E-01</totfact>
</mgrwt>
</event>
<event>
 6    1  0.5026615E-004  0.5109987E+04  0.7818608E-02  0.7811761E-01
         -2   -1    0    0    0  501 -0.00000000000E+00  0.00000000000E+00  0.14169641712E+04  0.14169641712E+04  0.00000000000E+00 0. -1.
          2   -1    0    0  501    0  0.00000000000E+00 -0.00000000000E+00 -0.46070262618E+04  0.46070262618E+04  0.00000000000E+00 0.  1.
         23    2    1    2    0    0 -0.20851892085E+04  0.42694887663E+03  0.68488304840E+02  0.21318894505E+04  0.99812839664E+02 0.  0.
         11    1    3    3    0    0 -0.91471885343E+03  0.23343135782E+03  0.50736211118E+02  0.94539671184E+03  0.00000000000E+00 0.  1.
        -11    1    3    3    0    0 -0.11704703551E+04  0.19351751881E+03  0.17752093722E+02  0.11864927387E+04  0.00000000000E+00 0. -1.
         22    1    1    2    0    0  0.20851892085E+04 -0.42694887663E+03 -0.32585503954E+04  0.38921009825E+04  0.00000000000E+00 0.  1.
<mgrwt>
<rscale>  0 0.51099868E+04</rscale>
<asrwt>0</asrwt>
<pdfrwt beam="1">  1        2 0.70877326E+00 0.51099868E+04</pdfrwt>
<pdfrwt beam="2">  1       -2 0.21799449E+00 0.51099868E+04</pdfrwt>
<totfact> 0.69795151E-03</totfact>
</mgrwt>
</event>
<event>
 6    1  0.5026615E-004  0.3384379E+04  0.7818608E-02  0.8141751E-01
          2   -1    0    0  501    0  0.00000000000E+00  0.00000000000E+00  0.27542198059E+04  0.27542198059E+04  0.00000000000E+00 0. -1.
         -2   -1    0    0    0  501 -0.00000000000E+00 -0.00000000000E+00 -0.10396792522E+04  0.10396792522E+04  0.00000000000E+00 0.  1.
         23    2    1    2    0    0  0.22930987112E+03 -0.48372603213E+02  0.27351567632E+04  0.27467217222E+04  0.92058537658E+02 0.  0.
         11    1    3    3    0    0  0.14475847696E+03 -0.22985901643E+02  0.11811603453E+04  0.11902197821E+04  0.00000000000E+00 0. -1.
        -11    1    3    3    0    0  0.84551394164E+02 -0.25386701570E+02  0.15539964178E+04  0.15565019401E+04  0.00000000000E+00 0.  1.
         22    1    1    2    0    0 -0.22930987112E+03  0.48372603213E+02 -0.10206162095E+04  0.10471773359E+04  0.00000000000E+00 0.  1.
<mgrwt>
<rscale>  0 0.33843789E+04</rscale>
<asrwt>0</asrwt>
<pdfrwt beam="1">  1        2 0.42372612E+00 0.33843789E+04</pdfrwt>
<pdfrwt beam="2">  1       -2 0.15995066E+00 0.33843789E+04</pdfrwt>
<totfact> 0.51511683E-01</totfact>
</mgrwt>
</event>
<event>
 6    1  0.5026615E-004  0.4136859E+04  0.7818608E-02  0.7977493E-01
          2   -1    0    0  501    0  0.00000000000E+00  0.00000000000E+00  0.35563417283E+04  0.35563417283E+04  0.00000000000E+00 0.  1.
         -2   -1    0    0    0  501 -0.00000000000E+00 -0.00000000000E+00 -0.12030341721E+04  0.12030341721E+04  0.00000000000E+00 0. -1.
         23    2    1    2    0    0 -0.11311483825E+04 -0.53667633841E+03  0.30700253355E+04  0.33167385480E+04  0.90448217166E+02 0.  0.
         13    1    3    3    0    0 -0.55202120259E+03 -0.21225933090E+03  0.14600628845E+04  0.15752984029E+04  0.00000000000E+00 0. -1.
        -13    1    3    3    0    0 -0.57912717991E+03 -0.32441700751E+03  0.16099624510E+04  0.17414401451E+04  0.00000000000E+00 0.  1.
         22    1    1    2    0    0  0.11311483825E+04  0.53667633841E+03 -0.71671777932E+03  0.14426373524E+04  0.00000000000E+00 0. -1.
<mgrwt>
<rscale>  0 0.41368590E+04</rscale>
<asrwt>0</asrwt>
<pdfrwt beam="1">  1        2 0.54712949E+00 0.41368590E+04</pdfrwt>
<pdfrwt beam="2">  1       -2 0.18508218E+00 0.41368590E+04</pdfrwt>
<totfact> 0.96659587E-02</totfact>
</mgrwt>
</event>
<event>
 6    1  0.5026615E-004  0.5459203E+04  0.7818608E-02  0.7761328E-01
          2   -1    0    0  501    0  0.00000000000E+00  0.00000000000E+00  0.38547833036E+04  0.38547833036E+04  0.00000000000E+00 0.  1.
         -2   -1    0    0    0  501 -0.00000000000E+00 -0.00000000000E+00 -0.19328514827E+04  0.19328514827E+04  0.00000000000E+00 0. -1.
         23    2    1    2    0    0  0.11335527037E+04 -0.23340194270E+04  0.65665947425E+02  0.25972881890E+04  0.94897325445E+02 0.  0.
         13    1    3    3    0    0  0.14397376743E+03 -0.25539170859E+03 -0.16676298118E+02  0.29365195291E+03  0.00000000000E+00 0. -1.
        -13    1    3    3    0    0  0.98957893630E+03 -0.20786277184E+04  0.82342245543E+02  0.23036362361E+04  0.00000000000E+00 0.  1.
         22    1    1    2    0    0 -0.11335527037E+04  0.23340194270E+04  0.18562658735E+04  0.31903465973E+04  0.00000000000E+00 0.  1.
<mgrwt>
<rscale>  0 0.54592027E+04</rscale>
<asrwt>0</asrwt>
<pdfrwt beam="1">  1        2 0.59304359E+00 0.54592027E+04</pdfrwt>
<pdfrwt beam="2">  1       -2 0.29736177E+00 0.54592027E+04</pdfrwt>
<totfact> 0.10283342E-02</totfact>
</mgrwt>
</event>
<event>
 6    1  0.5026615E-004  0.5774713E+04  0.7818608E-02  0.7718980E-01
         -2   -1    0    0    0  501 -0.00000000000E+00  0.00000000000E+00  0.23428633491E+04  0.23428633491E+04  0.00000000000E+00 0. -1.
          2   -1    0    0  501    0  0.00000000000E+00 -0.00000000000E+00 -0.35583922312E+04  0.35583922312E+04  0.00000000000E+00 0.  1.
         23    2    1    2    0    0  0.10808249222E+04  0.31169451189E+03  0.21087584743E+04  0.23918079872E+04  0.92450870421E+02 0.  0.
         11    1    3    3    0    0  0.30172131467E+03  0.66563187452E+02  0.50432930094E+03  0.59145114205E+03  0.00000000000E+00 0. -1.
        -11    1    3    3    0    0  0.77910360758E+03  0.24513132444E+03  0.16044291734E+04  0.18003568452E+04  0.00000000000E+00 0.  1.
         22    1    1    2    0    0 -0.10808249222E+04 -0.31169451189E+03 -0.33242873563E+04  0.35094475931E+04  0.00000000000E+00 0.  1.
<mgrwt>
<rscale>  0 0.57747127E+04</rscale>
<asrwt>0</asrwt>
<pdfrwt beam="1">  1        2 0.54744496E+00 0.57747127E+04</pdfrwt>
<pdfrwt beam="2">  1       -2 0.36044051E+00 0.57747127E+04</pdfrwt>
<totfact> 0.67514762E-03</totfact>
</mgrwt>
</event>
<event>
 6    1  0.5026615E-004  0.4082821E+04  0.7818608E-02  0.7988044E-01
          2   -1    0    0  501    0  0.00000000000E+00  0.00000000000E+00  0.26549788787E+04  0.26549788787E+04  0.00000000000E+00 0.  1.
         -2   -1    0    0    0  501 -0.00000000000E+00 -0.00000000000E+00 -0.15696386471E+04  0.15696386471E+04  0.00000000000E+00 0. -1.
         23    2    1    2    0    0 -0.88781173722E+03 -0.14946321408E+04  0.16479328504E+04  0.23974214850E+04  0.99056448166E+02 0.  0.
         11    1    3    3    0    0 -0.22787505521E+03 -0.45873135976E+03  0.51804490281E+03  0.72851357060E+03  0.00000000000E+00 0. -1.
        -11    1    3    3    0    0 -0.65993668202E+03 -0.10359007811E+04  0.11298879476E+04  0.16689079144E+04  0.00000000000E+00 0.  1.
         22    1    1    2    0    0  0.88781173722E+03  0.14946321408E+04 -0.56259261880E+03  0.18271960409E+04  0.00000000000E+00 0. -1.
<mgrwt>
<rscale>  0 0.40828213E+04</rscale>
<asrwt>0</asrwt>
<pdfrwt beam="1">  1        2 0.40845829E+00 0.40828213E+04</pdfrwt>
<pdfrwt beam="2">  1       -2 0.24148287E+00 0.40828213E+04</pdfrwt>
<totfact> 0.16049458E-01</totfact>
</mgrwt>
</event>
<event>
 6    1  0.6053578E-004  0.4988562E+04  0.7818608E-02  0.7830274E-01
         -2   -1    0    0    0  501 -0.00000000000E+00  0.00000000000E+00  0.25053450225E+04  0.25053450225E+04  0.00000000000E+00 0. -1.
          2   -1    0    0  501    0  0.00000000000E+00 -0.00000000000E+00 -0.24832656593E+04  0.24832656593E+04  0.00000000000E+00 0.  1.
         23    2    1    2    0    0  0.13821562595E+04  0.18401664328E+03 -0.20561623314E+04  0.24859507785E+04  0.89048804510E+02 0.  0.
         11    1    3    3    0    0  0.91979859662E+03  0.85337230776E+02 -0.13232446987E+04  0.16137807887E+04  0.00000000000E+00 0.  1.
        -11    1    3    3    0    0  0.46235766283E+03  0.98679412501E+02 -0.73291763273E+03  0.87216998985E+03  0.00000000000E+00 0. -1.
         22    1    1    2    0    0 -0.13821562595E+04 -0.18401664328E+03  0.20782416946E+04  0.25026599033E+04  0.00000000000E+00 0. -1.
<mgrwt>
<rscale>  0 0.49885618E+04</rscale>
<asrwt>0</asrwt>
<pdfrwt beam="1">  1        2 0.38204087E+00 0.49885618E+04</pdfrwt>
<pdfrwt beam="2">  1       -2 0.38543769E+00 0.49885618E+04</pdfrwt>
<totfact> 0.23960974E-02</totfact>
</mgrwt>
</event>
<event>
 6    1  0.5026615E-004  0.9349192E+03  0.7818608E-02  0.9382954E-01
         -2   -1    0    0    0  501 -0.00000000000E+00  0.00000000000E+00  0.55596189226E+03  0.55596189226E+03  0.00000000000E+00 0. -1.
          2   -1    0    0  501    0  0.00000000000E+00 -0.00000000000E+00 -0.39304575164E+03  0.39304575164E+03  0.00000000000E+00 0.  1.
         23    2    1    2    0    0 -0.14913935795E+03 -0.43735298158E+03  0.53138939043E+02  0.47406426563E+03  0.91613331555E+02 0.  0.
         11    1    3    3    0    0 -0.79947607037E+02 -0.26833242056E+03 -0.11774258020E+02  0.28023658032E+03  0.00000000000E+00 0. -1.
        -11    1    3    3    0    0 -0.69191750910E+02 -0.16902056102E+03  0.64913197063E+02  0.19382768531E+03  0.00000000000E+00 0.  1.
         22    1    1    2    0    0  0.14913935795E+03  0.43735298158E+03  0.10977720157E+03  0.47494337828E+03  0.00000000000E+00 0.  1.
<mgrwt>
<rscale>  0 0.93491916E+03</rscale>
<asrwt>0</asrwt>
<pdfrwt beam="1">  1        2 0.60468577E-01 0.93491916E+03</pdfrwt>
<pdfrwt beam="2">  1       -2 0.85532599E-01 0.93491916E+03</pdfrwt>
<totfact> 0.96564468E+01</totfact>
</mgrwt>
</event>
<event>
 6    1  0.5026615E-004  0.2372464E+04  0.7818608E-02  0.8449885E-01
         -2   -1    0    0    0  501 -0.00000000000E+00  0.00000000000E+00  0.85253010904E+03  0.85253010904E+03  0.00000000000E+00 0. -1.
          2   -1    0    0  501    0  0.00000000000E+00 -0.00000000000E+00 -0.16505529621E+04  0.16505529621E+04  0.00000000000E+00 0.  1.
         23    2    1    2    0    0  0.94428761143E+03  0.61084578505E+01  0.35475283341E+03  0.10129125475E+04  0.91792426880E+02 0.  0.
         11    1    3    3    0    0  0.60924496163E+03 -0.39422365227E+02  0.22067862966E+03  0.64917840671E+03  0.00000000000E+00 0. -1.
        -11    1    3    3    0    0  0.33504264980E+03  0.45530823078E+02  0.13407420375E+03  0.36373414075E+03  0.00000000000E+00 0.  1.
         22    1    1    2    0    0 -0.94428761143E+03 -0.61084578505E+01 -0.11527756865E+04  0.14901705237E+04  0.00000000000E+00 0.  1.
<mgrwt>
<rscale>  0 0.23724638E+04</rscale>
<asrwt>0</asrwt>
<pdfrwt beam="1">  1        2 0.25393122E+00 0.23724638E+04</pdfrwt>
<pdfrwt beam="2">  1       -2 0.13115848E+00 0.23724638E+04</pdfrwt>
<totfact> 0.39996598E+00</totfact>
</mgrwt>
</event>
<event>
 6    1  0.5026615E-004  0.2941159E+04  0.7818608E-02  0.8260736E-01
          2   -1    0    0  501    0  0.00000000000E+00  0.00000000000E+00  0.14627891995E+04  0.14627891995E+04  0.00000000000E+00 0.  1.
         -2   -1    0    0    0  501 -0.00000000000E+00 -0.00000000000E+00 -0.14784108504E+04  0.14784108504E+04  0.00000000000E+00 0. -1.
         23    2    1    2    0    0 -0.13335893677E+04  0.51129176089E+03 -0.35216257283E+03  0.14738419959E+04  0.91169538542E+02 0.  0.
         13    1    3    3    0    0 -0.33613178514E+03  0.96993382698E+02 -0.60064347707E+02  0.35496481394E+03  0.00000000000E+00 0.  1.
        -13    1    3    3    0    0 -0.99745758257E+03  0.41429837819E+03 -0.29209822512E+03  0.11188771820E+04  0.00000000000E+00 0. -1.
         22    1    1    2    0    0  0.13335893677E+04 -0.51129176089E+03  0.33654092189E+03  0.14673580540E+04  0.00000000000E+00 0.  1.
<mgrwt>
<rscale>  0 0.29411586E+04</rscale>
<asrwt>0</asrwt>
<pdfrwt beam="1">  1        2 0.22504449E+00 0.29411586E+04</pdfrwt>
<pdfrwt beam="2">  1       -2 0.22744782E+00 0.29411586E+04</pdfrwt>
<totfact> 0.10167942E+00</totfact>
</mgrwt>
</event>
<event>
 6    1  0.5026615E-004  0.6823753E+04  0.7818608E-02  0.7595890E-01
         -1   -1    0    0    0  501 -0.00000000000E+00  0.00000000000E+00  0.44074881881E+04  0.44074881881E+04  0.00000000000E+00 0. -1.
          1   -1    0    0  501    0  0.00000000000E+00 -0.00000000000E+00 -0.26411643628E+04  0.26411643628E+04  0.00000000000E+00 0.  1.
         23    2    1    2    0    0  0.29567935538E+04  0.96925639297E+03  0.23275182177E+04  0.38868452795E+04  0.90216950196E+02 0.  0.
         11    1    3    3    0    0  0.89935063024E+03  0.29744859432E+03  0.65719847855E+03  0.11529167631E+04  0.00000000000E+00 0. -1.
        -11    1    3    3    0    0  0.20574429236E+04  0.67180779865E+03  0.16703197391E+04  0.27339285165E+04  0.00000000000E+00 0.  1.
         22    1    1    2    0    0 -0.29567935538E+04 -0.96925639297E+03 -0.56119439236E+03  0.31618072714E+04  0.00000000000E+00 0.  1.
<mgrwt>
<rscale>  0 0.68237528E+04</rscale>
<asrwt>0</asrwt>
<pdfrwt beam="1">  1        1 0.40633298E+00 0.68237528E+04</pdfrwt>
<pdfrwt beam="2">  1       -1 0.67807510E+00 0.68237528E+04</pdfrwt>
<totfact> 0.16516758E-04</totfact>
</mgrwt>
</event>
<event>
 6    1  0.5026615E-004  0.1555646E+04  0.7818608E-02  0.8848269E-01
         -2   -1    0    0    0  501 -0.00000000000E+00  0.00000000000E+00  0.16109832276E+04  0.16109832276E+04  0.00000000000E+00 0. -1.
          2   -1    0    0  501    0  0.00000000000E+00 -0.00000000000E+00 -0.37555247146E+03  0.37555247146E+03  0.00000000000E+00 0.  1.
         23    2    1    2    0    0  0.53409799103E+03 -0.56191692289E+03  0.61388114263E+03  0.99288826946E+03  0.89251140571E+02 0.  0.
         11    1    3    3    0    0  0.12739098812E+03 -0.18863890768E+03  0.19865549557E+03  0.30212101428E+03  0.00000000000E+00 0. -1.
        -11    1    3    3    0    0  0.40670700291E+03 -0.37327801521E+03  0.41522564705E+03  0.69076725518E+03  0.00000000000E+00 0.  1.
         22    1    1    2    0    0 -0.53409799103E+03  0.56191692289E+03  0.62154961348E+03  0.99364742956E+03  0.00000000000E+00 0. -1.
<mgrwt>
<rscale>  0 0.15556461E+04</rscale>
<asrwt>0</asrwt>
<pdfrwt beam="1">  1        2 0.57777304E-01 0.15556461E+04</pdfrwt>
<pdfrwt beam="2">  1       -2 0.24784357E+00 0.15556461E+04</pdfrwt>
<totfact> 0.54446641E+00</totfact>
</mgrwt>
</event>
<event>
 6    1  0.5026615E-004  0.2375898E+04  0.7818608E-02  0.8448582E-01
          2   -1    0    0  501    0  0.00000000000E+00  0.00000000000E+00  0.22410949401E+04  0.22410949401E+04  0.00000000000E+00 0.  1.
         -2   -1    0    0    0  501 -0.00000000000E+00 -0.00000000000E+00 -0.62970249478E+03  0.62970249478E+03  0.00000000000E+00 0. -1.
         23    2    1    2    0    0  0.52323683745E+03 -0.74698054947E+03 -0.10954910189E+03  0.92313305460E+03  0.91743672451E+02 0.  0.
         11    1    3    3    0    0  0.11800886699E+03 -0.18916813752E+03 -0.64944269921E+02  0.23222496665E+03  0.00000000000E+00 0. -1.
        -11    1    3    3    0    0  0.40522797045E+03 -0.55781241195E+03 -0.44604831964E+02  0.69090808795E+03  0.00000000000E+00 0.  1.
         22    1    1    2    0    0 -0.52323683745E+03  0.74698054947E+03  0.17209415472E+04  0.19476643803E+04  0.00000000000E+00 0.  1.
<mgrwt>
<rscale>  0 0.23758982E+04</rscale>
<asrwt>0</asrwt>
<pdfrwt beam="1">  1        2 0.34478383E+00 0.23758982E+04</pdfrwt>
<pdfrwt beam="2">  1       -2 0.96877308E-01 0.23758982E+04</pdfrwt>
<totfact> 0.39261040E+00</totfact>
</mgrwt>
</event>
<event>
 6    1  0.5026615E-004  0.2631534E+04  0.7818608E-02  0.8357568E-01
          1   -1    0    0  501    0  0.00000000000E+00  0.00000000000E+00  0.14977880170E+04  0.14977880170E+04  0.00000000000E+00 0.  1.
         -1   -1    0    0    0  501 -0.00000000000E+00 -0.00000000000E+00 -0.11558664970E+04  0.11558664970E+04  0.00000000000E+00 0. -1.
         23    2    1    2    0    0  0.14565937467E+03 -0.94938281720E+03  0.10756116985E+04  0.14450000286E+04  0.92413038420E+02 0.  0.
         13    1    3    3    0    0  0.81510852955E+02 -0.75128038965E+03  0.86980711859E+03  0.11522285652E+04  0.00000000000E+00 0. -1.
        -13    1    3    3    0    0  0.64148521712E+02 -0.19810242755E+03  0.20580457989E+03  0.29277146333E+03  0.00000000000E+00 0.  1.
         22    1    1    2    0    0 -0.14565937467E+03  0.94938281720E+03 -0.73369017849E+03  0.12086544854E+04  0.00000000000E+00 0. -1.
<mgrwt>
<rscale>  0 0.26315341E+04</rscale>
<asrwt>0</asrwt>
<pdfrwt beam="1">  1        1 0.23042893E+00 0.26315341E+04</pdfrwt>
<pdfrwt beam="2">  1       -1 0.17782561E+00 0.26315341E+04</pdfrwt>
<totfact> 0.12441681E+00</totfact>
</mgrwt>
</event>
<event>
 6    1  0.5026615E-004  0.2002799E+04  0.7818608E-02  0.8605313E-01
         -2   -1    0    0    0  501 -0.00000000000E+00  0.00000000000E+00  0.70861583895E+03  0.70861583895E+03  0.00000000000E+00 0. -1.
          2   -1    0    0  501    0  0.00000000000E+00 -0.00000000000E+00 -0.14151544027E+04  0.14151544027E+04  0.00000000000E+00 0.  1.
         23    2    1    2    0    0  0.83691573924E+03  0.43997486979E+03 -0.10708313634E+02  0.94980875265E+03  0.89532999521E+02 0.  0.
         13    1    3    3    0    0  0.54961737694E+03  0.24231335378E+03  0.58212814688E+01  0.60069036098E+03  0.00000000000E+00 0.  1.
        -13    1    3    3    0    0  0.28729836230E+03  0.19766151601E+03 -0.16529595103E+02  0.34911839168E+03  0.00000000000E+00 0. -1.
         22    1    1    2    0    0 -0.83691573924E+03 -0.43997486979E+03 -0.69583025007E+03  0.11739614890E+04  0.00000000000E+00 0.  1.
<mgrwt>
<rscale>  0 0.20027989E+04</rscale>
<asrwt>0</asrwt>
<pdfrwt beam="1">  1        2 0.21771606E+00 0.20027989E+04</pdfrwt>
<pdfrwt beam="2">  1       -2 0.10901782E+00 0.20027989E+04</pdfrwt>
<totfact> 0.88478963E+00</totfact>
</mgrwt>
</event>
<event>
 6    1  0.5026615E-004  0.1479518E+04  0.7818608E-02  0.8898189E-01
         -2   -1    0    0    0  501 -0.00000000000E+00  0.00000000000E+00  0.18958014466E+03  0.18958014466E+03  0.00000000000E+00 0. -1.
          2   -1    0    0  501    0  0.00000000000E+00 -0.00000000000E+00 -0.28866071274E+04  0.28866071274E+04  0.00000000000E+00 0.  1.
         23    2    1    2    0    0 -0.60616782267E+03  0.45888730723E+02 -0.49373418184E+03  0.79057042505E+03  0.10808769491E+03 0.  0.
         11    1    3    3    0    0 -0.20821929047E+03 -0.33020226759E+02 -0.14861026184E+03  0.25793529852E+03  0.00000000000E+00 0. -1.
        -11    1    3    3    0    0 -0.39794853220E+03  0.78908957482E+02 -0.34512392000E+03  0.53263512653E+03  0.00000000000E+00 0.  1.
         22    1    1    2    0    0  0.60616782267E+03 -0.45888730723E+02 -0.22032928009E+04  0.22856168470E+04  0.00000000000E+00 0.  1.
<mgrwt>
<rscale>  0 0.14795180E+04</rscale>
<asrwt>0</asrwt>
<pdfrwt beam="1">  1        2 0.44409337E+00 0.14795180E+04</pdfrwt>
<pdfrwt beam="2">  1       -2 0.29166178E-01 0.14795180E+04</pdfrwt>
<totfact> 0.21551633E+01</totfact>
</mgrwt>
</event>
<event>
 6    1  0.5026615E-004  0.2801123E+04  0.7818608E-02  0.8302920E-01
         -2   -1    0    0    0  501 -0.00000000000E+00  0.00000000000E+00  0.10991279750E+04  0.10991279750E+04  0.00000000000E+00 0. -1.
          2   -1    0    0  501    0  0.00000000000E+00 -0.00000000000E+00 -0.17846627135E+04  0.17846627135E+04  0.00000000000E+00 0.  1.
         23    2    1    2    0    0  0.36755605516E+03  0.68108723829E+03 -0.15430814072E+04  0.17286441311E+04  0.90183274458E+02 0.  0.
         13    1    3    3    0    0  0.19262558914E+03  0.38842200023E+03 -0.76906318334E+03  0.88285584771E+03  0.00000000000E+00 0. -1.
        -13    1    3    3    0    0  0.17493046602E+03  0.29266523805E+03 -0.77401822388E+03  0.84578828344E+03  0.00000000000E+00 0.  1.
         22    1    1    2    0    0 -0.36755605516E+03 -0.68108723829E+03  0.85754666871E+03  0.11551465573E+04  0.00000000000E+00 0. -1.
<mgrwt>
<rscale>  0 0.28011231E+04</rscale>
<asrwt>0</asrwt>
<pdfrwt beam="1">  1        2 0.27456349E+00 0.28011231E+04</pdfrwt>
<pdfrwt beam="2">  1       -2 0.16909661E+00 0.28011231E+04</pdfrwt>
<totfact> 0.16564633E+00</totfact>
</mgrwt>
</event>
<event>
 6    1  0.5026615E-004  0.3841527E+04  0.7818608E-02  0.8037302E-01
          2   -1    0    0  501    0  0.00000000000E+00  0.00000000000E+00  0.30235556331E+04  0.30235556331E+04  0.00000000000E+00 0.  1.
         -2   -1    0    0    0  501 -0.00000000000E+00 -0.00000000000E+00 -0.12201965272E+04  0.12201965272E+04  0.00000000000E+00 0. -1.
         23    2    1    2    0    0  0.17312536290E+04 -0.44735991665E+03  0.16740027276E+04  0.24509601769E+04  0.86894381459E+02 0.  0.
         13    1    3    3    0    0  0.15879120696E+04 -0.41723371508E+03  0.15667590224E+04  0.22694233955E+04  0.00000000000E+00 0. -1.
        -13    1    3    3    0    0  0.14334155948E+03 -0.30126201563E+02  0.10724370517E+03  0.18153678138E+03  0.00000000000E+00 0.  1.
         22    1    1    2    0    0 -0.17312536290E+04  0.44735991665E+03  0.12935637833E+03  0.17927919834E+04  0.00000000000E+00 0.  1.
<mgrwt>
<rscale>  0 0.38415268E+04</rscale>
<asrwt>0</asrwt>
<pdfrwt beam="1">  1        2 0.46516240E+00 0.38415268E+04</pdfrwt>
<pdfrwt beam="2">  1       -2 0.18772254E+00 0.38415268E+04</pdfrwt>
<totfact> 0.21577736E-01</totfact>
</mgrwt>
</event>
<event>
 6    1  0.5026615E-004  0.1935461E+04  0.7818608E-02  0.8637404E-01
          2   -1    0    0  501    0  0.00000000000E+00  0.00000000000E+00  0.45588686449E+04  0.45588686449E+04  0.00000000000E+00 0.  1.
         -2   -1    0    0    0  501 -0.00000000000E+00 -0.00000000000E+00 -0.20542422469E+03  0.20542422469E+03  0.00000000000E+00 0. -1.
         23    2    1    2    0    0  0.95366440335E+03 -0.23530790372E+02  0.18138804701E+04  0.20514687786E+04  0.91281417631E+02 0.  0.
         11    1    3    3    0    0  0.38074118078E+03 -0.54123757458E+02  0.73067464658E+03  0.82569889610E+03  0.00000000000E+00 0. -1.
        -11    1    3    3    0    0  0.57292322257E+03  0.30592967087E+02  0.10832058235E+04  0.12257698825E+04  0.00000000000E+00 0.  1.
         22    1    1    2    0    0 -0.95366440335E+03  0.23530790372E+02  0.25395639501E+04  0.27128240910E+04  0.00000000000E+00 0.  1.
<mgrwt>
<rscale>  0 0.19354607E+04</rscale>
<asrwt>0</asrwt>
<pdfrwt beam="1">  1        2 0.70136433E+00 0.19354607E+04</pdfrwt>
<pdfrwt beam="2">  1       -2 0.31603730E-01 0.19354607E+04</pdfrwt>
<totfact> 0.95268300E-01</totfact>
</mgrwt>
</event>
<event>
 6    1  0.5026615E-004  0.3142511E+04  0.7818608E-02  0.8204167E-01
          2   -1    0    0  501    0  0.00000000000E+00  0.00000000000E+00  0.30066939905E+04  0.30066939905E+04  0.00000000000E+00 0.  1.
         -2   -1    0    0    0  501 -0.00000000000E+00 -0.00000000000E+00 -0.82111578572E+03  0.82111578572E+03  0.00000000000E+00 0. -1.
         23    2    1    2    0    0  0.14991735661E+03  0.10634270126E+04  0.24885600754E+04  0.27119467743E+04  0.91497721733E+02 0.  0.
         13    1    3    3    0    0  0.73848145028E+02  0.55484343329E+03  0.11821235235E+04  0.13079452622E+04  0.00000000000E+00 0. -1.
        -13    1    3    3    0    0  0.76069211585E+02  0.50858357931E+03  0.13064365519E+04  0.14040015122E+04  0.00000000000E+00 0.  1.
         22    1    1    2    0    0 -0.14991735661E+03 -0.10634270126E+04 -0.30298187065E+03  0.11158630018E+04  0.00000000000E+00 0.  1.
<mgrwt>
<rscale>  0 0.31425110E+04</rscale>
<asrwt>0</asrwt>
<pdfrwt beam="1">  1        2 0.46256830E+00 0.31425110E+04</pdfrwt>
<pdfrwt beam="2">  1       -2 0.12632551E+00 0.31425110E+04</pdfrwt>
<totfact> 0.68073944E-01</totfact>
</mgrwt>
</event>
<event>
 6    1  0.5026615E-004  0.3086826E+04  0.7818608E-02  0.8219363E-01
          2   -1    0    0  501    0  0.00000000000E+00  0.00000000000E+00  0.14227501661E+04  0.14227501661E+04  0.00000000000E+00 0.  1.
         -2   -1    0    0    0  501 -0.00000000000E+00 -0.00000000000E+00 -0.16743087824E+04  0.16743087824E+04  0.00000000000E+00 0. -1.
         23    2    1    2    0    0  0.26410540153E+03  0.69999249989E+03 -0.14788956753E+04  0.16596663718E+04  0.87286219496E+02 0.  0.
         11    1    3    3    0    0  0.97603661645E+02  0.25768735710E+03 -0.64011423829E+03  0.69690421640E+03  0.00000000000E+00 0.  1.
        -11    1    3    3    0    0  0.16650173989E+03  0.44230514279E+03 -0.83878143704E+03  0.96276215538E+03  0.00000000000E+00 0. -1.
         22    1    1    2    0    0 -0.26410540153E+03 -0.69999249989E+03  0.12273370590E+04  0.14373925767E+04  0.00000000000E+00 0.  1.
<mgrwt>
<rscale>  0 0.30868256E+04</rscale>
<asrwt>0</asrwt>
<pdfrwt beam="1">  1        2 0.21888464E+00 0.30868256E+04</pdfrwt>
<pdfrwt beam="2">  1       -2 0.25758597E+00 0.30868256E+04</pdfrwt>
<totfact> 0.68901089E-01</totfact>
</mgrwt>
</event>
<event>
 6    1  0.5026615E-004  0.2576668E+04  0.7818608E-02  0.8376170E-01
         -2   -1    0    0    0  501 -0.00000000000E+00  0.00000000000E+00  0.93738857568E+03  0.93738857568E+03  0.00000000000E+00 0. -1.
          2   -1    0    0  501    0  0.00000000000E+00 -0.00000000000E+00 -0.17706679077E+04  0.17706679077E+04  0.00000000000E+00 0.  1.
         23    2    1    2    0    0 -0.11675804138E+04  0.82933611571E+02 -0.97866144323E+03  0.15285404959E+04  0.92389504625E+02 0.  0.
         13    1    3    3    0    0 -0.69899765374E+03  0.94444080227E+02 -0.57870105842E+03  0.91236632952E+03  0.00000000000E+00 0.  1.
        -13    1    3    3    0    0 -0.46858276002E+03 -0.11510468656E+02 -0.39996038481E+03  0.61617416636E+03  0.00000000000E+00 0. -1.
         22    1    1    2    0    0  0.11675804138E+04 -0.82933611571E+02  0.14538211122E+03  0.11795159875E+04  0.00000000000E+00 0. -1.
<mgrwt>
<rscale>  0 0.25766675E+04</rscale>
<asrwt>0</asrwt>
<pdfrwt beam="1">  1        2 0.27241044E+00 0.25766675E+04</pdfrwt>
<pdfrwt beam="2">  1       -2 0.14421363E+00 0.25766675E+04</pdfrwt>
<totfact> 0.26394331E+00</totfact>
</mgrwt>
</event>
<event>
 6    1  0.5026615E-004  0.2292024E+04  0.7818608E-02  0.8481073E-01
         -2   -1    0    0    0  501 -0.00000000000E+00  0.00000000000E+00  0.88747279998E+03  0.88747279998E+03  0.00000000000E+00 0. -1.
          2   -1    0    0  501    0  0.00000000000E+00 -0.00000000000E+00 -0.14798685416E+04  0.14798685416E+04  0.00000000000E+00 0.  1.
         23    2    1    2    0    0  0.99694722516E+03  0.17841587155E+03  0.25318017327E+03  0.10479723179E+04  0.91704884617E+02 0.  0.
         11    1    3    3    0    0  0.48687022251E+03  0.12094173829E+03  0.15764256247E+03  0.52585235107E+03  0.00000000000E+00 0.  1.
        -11    1    3    3    0    0  0.51007700265E+03  0.57474133260E+02  0.95537610799E+02  0.52211996678E+03  0.00000000000E+00 0. -1.
         22    1    1    2    0    0 -0.99694722516E+03 -0.17841587155E+03 -0.84557591492E+03  0.13193690238E+04  0.00000000000E+00 0.  1.
<mgrwt>
<rscale>  0 0.22920236E+04</rscale>
<asrwt>0</asrwt>
<pdfrwt beam="1">  1        2 0.22767208E+00 0.22920236E+04</pdfrwt>
<pdfrwt beam="2">  1       -2 0.13653428E+00 0.22920236E+04</pdfrwt>
<totfact> 0.45316688E+00</totfact>
</mgrwt>
</event>
<event>
 6    1  0.5026615E-004  0.2098792E+04  0.7818608E-02  0.8561776E-01
          2   -1    0    0  501    0  0.00000000000E+00  0.00000000000E+00  0.20319561085E+04  0.20319561085E+04  0.00000000000E+00 0.  1.
         -2   -1    0    0    0  501 -0.00000000000E+00 -0.00000000000E+00 -0.54195641306E+03  0.54195641306E+03  0.00000000000E+00 0. -1.
         23    2    1    2    0    0  0.29191029984E+02  0.38534558329E+03 -0.44772064658E+03  0.59803209535E+03  0.88573556426E+02 0.  0.
         11    1    3    3    0    0  0.15472495696E+02  0.37467036081E+03 -0.40517541174E+03  0.55207281374E+03  0.00000000000E+00 0. -1.
        -11    1    3    3    0    0  0.13718534287E+02  0.10675222477E+02 -0.42545234845E+02  0.45959281608E+02  0.00000000000E+00 0.  1.
         22    1    1    2    0    0 -0.29191029984E+02 -0.38534558329E+03  0.19377203420E+04  0.19758804262E+04  0.00000000000E+00 0.  1.
<mgrwt>
<rscale>  0 0.20987917E+04</rscale>
<asrwt>0</asrwt>
<pdfrwt beam="1">  1        2 0.31260863E+00 0.20987917E+04</pdfrwt>
<pdfrwt beam="2">  1       -2 0.83377910E-01 0.20987917E+04</pdfrwt>
<totfact> 0.74398755E+00</totfact>
</mgrwt>
</event>
<event>
 6    1  0.5026615E-004  0.1847918E+04  0.7818608E-02  0.8681224E-01
          2   -1    0    0  501    0  0.00000000000E+00  0.00000000000E+00  0.29304557491E+04  0.29304557491E+04  0.00000000000E+00 0.  1.
         -2   -1    0    0    0  501 -0.00000000000E+00 -0.00000000000E+00 -0.29132009329E+03  0.29132009329E+03  0.00000000000E+00 0. -1.
         23    2    1    2    0    0  0.23389988413E+03 -0.66493595604E+03  0.28736253413E+03  0.76664126415E+03  0.91173573178E+02 0.  0.
         11    1    3    3    0    0  0.80503852380E+02 -0.16179503574E+03  0.10988446591E+03  0.21150200871E+03  0.00000000000E+00 0. -1.
        -11    1    3    3    0    0  0.15339603175E+03 -0.50314092029E+03  0.17747806821E+03  0.55513925544E+03  0.00000000000E+00 0.  1.
         22    1    1    2    0    0 -0.23389988413E+03  0.66493595604E+03  0.23517731216E+04  0.24551345782E+04  0.00000000000E+00 0.  1.
<mgrwt>
<rscale>  0 0.18479184E+04</rscale>
<asrwt>0</asrwt>
<pdfrwt beam="1">  1        2 0.45083933E+00 0.18479184E+04</pdfrwt>
<pdfrwt beam="2">  1       -2 0.44818478E-01 0.18479184E+04</pdfrwt>
<totfact> 0.85681125E+00</totfact>
</mgrwt>
</event>
<event>
 6    1  0.5026615E-004  0.2135697E+04  0.7818608E-02  0.8545680E-01
         -1   -1    0    0    0  501 -0.00000000000E+00  0.00000000000E+00  0.10864715472E+04  0.10864715472E+04  0.00000000000E+00 0. -1.
          1   -1    0    0  501    0  0.00000000000E+00 -0.00000000000E+00 -0.10495444380E+04  0.10495444380E+04  0.00000000000E+00 0.  1.
         23    2    1    2    0    0 -0.10429474051E+04 -0.15497112498E+03 -0.13735420528E+03  0.10673114816E+04  0.92370350649E+02 0.  0.
         11    1    3    3    0    0 -0.14828467892E+03  0.12677352059E+01  0.30416586721E+01  0.14832128924E+03  0.00000000000E+00 0. -1.
        -11    1    3    3    0    0 -0.89466272622E+03 -0.15623886018E+03 -0.14039586395E+03  0.91899019240E+03  0.00000000000E+00 0.  1.
         22    1    1    2    0    0  0.10429474051E+04  0.15497112498E+03  0.17428131447E+03  0.10687045036E+04  0.00000000000E+00 0. -1.
<mgrwt>
<rscale>  0 0.21356968E+04</rscale>
<asrwt>0</asrwt>
<pdfrwt beam="1">  1        1 0.16146837E+00 0.21356968E+04</pdfrwt>
<pdfrwt beam="2">  1       -1 0.16714947E+00 0.21356968E+04</pdfrwt>
<totfact> 0.32800895E+00</totfact>
</mgrwt>
</event>
<event>
 6    1  0.5026615E-004  0.2813969E+03  0.7818608E-02  0.1094928E+00
          2   -1    0    0  501    0  0.00000000000E+00  0.00000000000E+00  0.36399088662E+03  0.36399088662E+03  0.00000000000E+00 0.  1.
         -2   -1    0    0    0  501 -0.00000000000E+00 -0.00000000000E+00 -0.54386124944E+02  0.54386124944E+02  0.00000000000E+00 0. -1.
         23    2    1    2    0    0  0.33449786735E+02 -0.59390117098E+02  0.11625526145E+02  0.11270120446E+03  0.88996260520E+02 0.  0.
         13    1    3    3    0    0 -0.90694865261E+01 -0.47656237017E+02 -0.25718378042E+02  0.54907262558E+02  0.00000000000E+00 0. -1.
        -13    1    3    3    0    0  0.42519273261E+02 -0.11733880081E+02  0.37343904187E+02  0.57793941900E+02  0.00000000000E+00 0.  1.
         22    1    1    2    0    0 -0.33449786735E+02  0.59390117098E+02  0.29797923553E+03  0.30567580711E+03  0.00000000000E+00 0.  1.
<mgrwt>
<rscale>  0 0.28139690E+03</rscale>
<asrwt>0</asrwt>
<pdfrwt beam="1">  1        2 0.55998597E-01 0.28139690E+03</pdfrwt>
<pdfrwt beam="2">  1       -2 0.83670963E-02 0.28139690E+03</pdfrwt>
<totfact> 0.77559564E+03</totfact>
</mgrwt>
</event>
<event>
 6    1  0.5026615E-004  0.3013740E+04  0.7818608E-02  0.8239818E-01
          2   -1    0    0  501    0  0.00000000000E+00  0.00000000000E+00  0.20702262299E+04  0.20702262299E+04  0.00000000000E+00 0.  1.
         -2   -1    0    0    0  501 -0.00000000000E+00 -0.00000000000E+00 -0.10968159259E+04  0.10968159259E+04  0.00000000000E+00 0. -1.
         23    2    1    2    0    0  0.10031329896E+04  0.63743852054E+03 -0.48399315374E+03  0.12864495627E+04  0.89996900461E+02 0.  0.
         11    1    3    3    0    0  0.66431880540E+03  0.37105978509E+03 -0.31242360080E+03  0.82256510117E+03  0.00000000000E+00 0. -1.
        -11    1    3    3    0    0  0.33881418424E+03  0.26637873545E+03 -0.17156955294E+03  0.46388446152E+03  0.00000000000E+00 0.  1.
         22    1    1    2    0    0 -0.10031329896E+04 -0.63743852054E+03  0.14574034578E+04  0.18805925931E+04  0.00000000000E+00 0.  1.
<mgrwt>
<rscale>  0 0.30137399E+04</rscale>
<asrwt>0</asrwt>
<pdfrwt beam="1">  1        2 0.31849634E+00 0.30137399E+04</pdfrwt>
<pdfrwt beam="2">  1       -2 0.16874091E+00 0.30137399E+04</pdfrwt>
<totfact> 0.11359578E+00</totfact>
</mgrwt>
</event>
<event>
 6    1  0.5026615E-004  0.9849208E+03  0.7818608E-02  0.9325240E-01
          2   -1    0    0  501    0  0.00000000000E+00  0.00000000000E+00  0.22887734941E+04  0.22887734941E+04  0.00000000000E+00 0.  1.
         -2   -1    0    0    0  501 -0.00000000000E+00 -0.00000000000E+00 -0.10595947825E+03  0.10595947825E+03  0.00000000000E+00 0. -1.
         23    2    1    2    0    0 -0.24992203049E+03  0.41943696503E+03  0.11299666817E+04  0.12341831466E+04  0.89414477030E+02 0.  0.
         11    1    3    3    0    0 -0.14156969843E+03  0.19153230800E+03  0.45464380363E+03  0.51325197779E+03  0.00000000000E+00 0. -1.
        -11    1    3    3    0    0 -0.10835233206E+03  0.22790465703E+03  0.67532287809E+03  0.72093116886E+03  0.00000000000E+00 0.  1.
         22    1    1    2    0    0  0.24992203049E+03 -0.41943696503E+03  0.10528473341E+04  0.11605498257E+04  0.00000000000E+00 0.  1.
<mgrwt>
<rscale>  0 0.98492080E+03</rscale>
<asrwt>0</asrwt>
<pdfrwt beam="1">  1        2 0.35211896E+00 0.98492080E+03</pdfrwt>
<pdfrwt beam="2">  1       -2 0.16301460E-01 0.98492080E+03</pdfrwt>
<totfact> 0.14132038E+02</totfact>
</mgrwt>
</event>
<event>
 6    1  0.5026615E-004  0.2330823E+04  0.7818608E-02  0.8465866E-01
          2   -1    0    0  501    0  0.00000000000E+00  0.00000000000E+00  0.24253742926E+04  0.24253742926E+04  0.00000000000E+00 0.  1.
         -2   -1    0    0    0  501 -0.00000000000E+00 -0.00000000000E+00 -0.55998961794E+03  0.55998961794E+03  0.00000000000E+00 0. -1.
         23    2    1    2    0    0  0.53983974317E+03  0.38029383948E+03  0.21612527549E+04  0.22617699128E+04  0.92408414512E+02 0.  0.
         13    1    3    3    0    0  0.31436031497E+03  0.19821819580E+03  0.10706047759E+04  0.11332728917E+04  0.00000000000E+00 0.  1.
        -13    1    3    3    0    0  0.22547942820E+03  0.18207564368E+03  0.10906479790E+04  0.11284970211E+04  0.00000000000E+00 0. -1.
         22    1    1    2    0    0 -0.53983974317E+03 -0.38029383948E+03 -0.29586808027E+03  0.72359399775E+03  0.00000000000E+00 0. -1.
<mgrwt>
<rscale>  0 0.23308234E+04</rscale>
<asrwt>0</asrwt>
<pdfrwt beam="1">  1        2 0.37313450E+00 0.23308234E+04</pdfrwt>
<pdfrwt beam="2">  1       -2 0.86152250E-01 0.23308234E+04</pdfrwt>
<totfact> 0.40617187E+00</totfact>
</mgrwt>
</event>
<event>
 6    1  0.5026615E-004  0.6820542E+03  0.7818608E-02  0.9748424E-01
         -2   -1    0    0    0  501 -0.00000000000E+00  0.00000000000E+00  0.95135085240E+02  0.95135085240E+02  0.00000000000E+00 0. -1.
          2   -1    0    0  501    0  0.00000000000E+00 -0.00000000000E+00 -0.12224666989E+04  0.12224666989E+04  0.00000000000E+00 0.  1.
         23    2    1    2    0    0  0.31467427673E+03 -0.80944982123E+02 -0.72938047318E+03  0.80385369337E+03  0.92805684758E+02 0.  0.
         11    1    3    3    0    0  0.12040146477E+03 -0.90850984948E+01 -0.18024187956E+03  0.21694742884E+03  0.00000000000E+00 0. -1.
        -11    1    3    3    0    0  0.19427281196E+03 -0.71859883628E+02 -0.54913859362E+03  0.58690626453E+03  0.00000000000E+00 0.  1.
         22    1    1    2    0    0 -0.31467427673E+03  0.80944982123E+02 -0.39795114053E+03  0.51374809081E+03  0.00000000000E+00 0.  1.
<mgrwt>
<rscale>  0 0.68205417E+03</rscale>
<asrwt>0</asrwt>
<pdfrwt beam="1">  1        2 0.18807179E+00 0.68205417E+03</pdfrwt>
<pdfrwt beam="2">  1       -2 0.14636168E-01 0.68205417E+03</pdfrwt>
<totfact> 0.67765445E+02</totfact>
</mgrwt>
</event>
<event>
 6    1  0.5026615E-004  0.2884176E+04  0.7818608E-02  0.8277601E-01
          2   -1    0    0  501    0  0.00000000000E+00  0.00000000000E+00  0.25562196396E+04  0.25562196396E+04  0.00000000000E+00 0.  1.
         -2   -1    0    0    0  501 -0.00000000000E+00 -0.00000000000E+00 -0.81355194724E+03  0.81355194724E+03  0.00000000000E+00 0. -1.
         23    2    1    2    0    0 -0.73135583305E+03  0.11991455379E+03  0.23156295040E+04  0.24329972851E+04  0.89860639448E+02 0.  0.
         13    1    3    3    0    0 -0.53681444437E+03  0.52836632387E+02  0.16086357944E+04  0.16966645444E+04  0.00000000000E+00 0. -1.
        -13    1    3    3    0    0 -0.19454138868E+03  0.67077921403E+02  0.70699370967E+03  0.73633274066E+03  0.00000000000E+00 0.  1.
         22    1    1    2    0    0  0.73135583305E+03 -0.11991455379E+03 -0.57296181169E+03  0.93677430174E+03  0.00000000000E+00 0. -1.
<mgrwt>
<rscale>  0 0.28841758E+04</rscale>
<asrwt>0</asrwt>
<pdfrwt beam="1">  1        2 0.39326456E+00 0.28841758E+04</pdfrwt>
<pdfrwt beam="2">  1       -2 0.12516184E+00 0.28841758E+04</pdfrwt>
<totfact> 0.13330317E+00</totfact>
</mgrwt>
</event>
<event>
 6    1  0.5026615E-004  0.1992360E+04  0.7818608E-02  0.8610201E-01
          2   -1    0    0  501    0  0.00000000000E+00  0.00000000000E+00  0.83742610812E+03  0.83742610812E+03  0.00000000000E+00 0. -1.
         -2   -1    0    0    0  501 -0.00000000000E+00 -0.00000000000E+00 -0.11850294838E+04  0.11850294838E+04  0.00000000000E+00 0.  1.
         23    2    1    2    0    0  0.44334196477E+03  0.78105134790E+03  0.25897851676E+03  0.93869597927E+03  0.86527241713E+02 0.  0.
         13    1    3    3    0    0  0.35704850381E+03  0.68426149809E+03  0.20788229011E+03  0.79932001000E+03  0.00000000000E+00 0. -1.
        -13    1    3    3    0    0  0.86293460965E+02  0.96789849813E+02  0.51096226648E+02  0.13937596927E+03  0.00000000000E+00 0.  1.
         22    1    1    2    0    0 -0.44334196477E+03 -0.78105134790E+03 -0.60658189245E+03  0.10837596127E+04  0.00000000000E+00 0.  1.
<mgrwt>
<rscale>  0 0.19923600E+04</rscale>
<asrwt>0</asrwt>
<pdfrwt beam="1">  1        2 0.12883478E+00 0.19923600E+04</pdfrwt>
<pdfrwt beam="2">  1       -2 0.18231223E+00 0.19923600E+04</pdfrwt>
<totfact> 0.52608832E+00</totfact>
</mgrwt>
</event>
<event>
 6    1  0.5026615E-004  0.1247549E+04  0.7818608E-02  0.9072226E-01
          2   -1    0    0  501    0  0.00000000000E+00  0.00000000000E+00  0.12938623142E+04  0.12938623142E+04  0.00000000000E+00 0.  1.
         -2   -1    0    0    0  501 -0.00000000000E+00 -0.00000000000E+00 -0.30072317200E+03  0.30072317200E+03  0.00000000000E+00 0. -1.
         23    2    1    2    0    0 -0.34473614681E+03 -0.51160695005E+03  0.41089344608E+03  0.74629618832E+03  0.86832565394E+02 0.  0.
         11    1    3    3    0    0 -0.14672054892E+03 -0.29082495957E+03  0.19757624564E+03  0.38097565464E+03  0.00000000000E+00 0.  1.
        -11    1    3    3    0    0 -0.19801559789E+03 -0.22078199048E+03  0.21331720044E+03  0.36532053368E+03  0.00000000000E+00 0. -1.
         22    1    1    2    0    0  0.34473614681E+03  0.51160695005E+03  0.58224569614E+03  0.84828929790E+03  0.00000000000E+00 0.  1.
<mgrwt>
<rscale>  0 0.12475486E+04</rscale>
<asrwt>0</asrwt>
<pdfrwt beam="1">  1        2 0.19905574E+00 0.12475486E+04</pdfrwt>
<pdfrwt beam="2">  1       -2 0.46265104E-01 0.12475486E+04</pdfrwt>
<totfact> 0.72598866E+01</totfact>
</mgrwt>
</event>
<event>
 6    1  0.5026615E-004  0.1650699E+04  0.7818608E-02  0.8789993E-01
          2   -1    0    0  501    0  0.00000000000E+00  0.00000000000E+00  0.61203764674E+03  0.61203764674E+03  0.00000000000E+00 0.  1.
         -2   -1    0    0    0  501 -0.00000000000E+00 -0.00000000000E+00 -0.11130063263E+04  0.11130063263E+04  0.00000000000E+00 0. -1.
         23    2    1    2    0    0 -0.44241827036E+03  0.35261266952E+02  0.47268601725E+03  0.65500623936E+03  0.92864523912E+02 0.  0.
         11    1    3    3    0    0 -0.27012918210E+03 -0.22819317265E+02  0.26736437580E+03  0.38075478422E+03  0.00000000000E+00 0.  1.
        -11    1    3    3    0    0 -0.17228908826E+03  0.58080584217E+02  0.20532164145E+03  0.27425145514E+03  0.00000000000E+00 0. -1.
         22    1    1    2    0    0  0.44241827036E+03 -0.35261266952E+02 -0.97365469683E+03  0.10700377337E+04  0.00000000000E+00 0. -1.
<mgrwt>
<rscale>  0 0.16506990E+04</rscale>
<asrwt>0</asrwt>
<pdfrwt beam="1">  1        2 0.94159638E-01 0.16506990E+04</pdfrwt>
<pdfrwt beam="2">  1       -2 0.17123174E+00 0.16506990E+04</pdfrwt>
<totfact> 0.96511638E+00</totfact>
</mgrwt>
</event>
<event>
 6    1  0.5026615E-004  0.1521985E+04  0.7818608E-02  0.8869963E-01
          2   -1    0    0  501    0  0.00000000000E+00  0.00000000000E+00  0.11776196318E+04  0.11776196318E+04  0.00000000000E+00 0.  1.
         -2   -1    0    0    0  501 -0.00000000000E+00 -0.00000000000E+00 -0.49176314685E+03  0.49176314685E+03  0.00000000000E+00 0. -1.
         23    2    1    2    0    0  0.56157293095E+03 -0.50364827916E+03  0.42985733828E+03  0.87278921289E+03  0.89207247414E+02 0.  0.
         13    1    3    3    0    0  0.24385127981E+03 -0.20191008370E+03  0.13223919364E+03  0.34310105348E+03  0.00000000000E+00 0. -1.
        -13    1    3    3    0    0  0.31772165114E+03 -0.30173819546E+03  0.29761814463E+03  0.52968815941E+03  0.00000000000E+00 0.  1.
         22    1    1    2    0    0 -0.56157293095E+03  0.50364827916E+03  0.25599914665E+03  0.79659356573E+03  0.00000000000E+00 0. -1.
<mgrwt>
<rscale>  0 0.15219855E+04</rscale>
<asrwt>0</asrwt>
<pdfrwt beam="1">  1        2 0.18117225E+00 0.15219855E+04</pdfrwt>
<pdfrwt beam="2">  1       -2 0.75655869E-01 0.15219855E+04</pdfrwt>
<totfact> 0.29518519E+01</totfact>
</mgrwt>
</event>
<event>
 6    1  0.5026615E-004  0.2369213E+04  0.7818608E-02  0.8451121E-01
         -2   -1    0    0    0  501 -0.00000000000E+00  0.00000000000E+00  0.85444140938E+03  0.85444140938E+03  0.00000000000E+00 0. -1.
          2   -1    0    0  501    0  0.00000000000E+00 -0.00000000000E+00 -0.16423505253E+04  0.16423505253E+04  0.00000000000E+00 0.  1.
         23    2    1    2    0    0  0.56277821587E+03 -0.10019804152E+04 -0.99372477090E+02  0.11571028753E+04  0.91258436064E+02 0.  0.
         11    1    3    3    0    0  0.12618205120E+03 -0.17734577866E+03  0.84195527257E+01  0.21781718050E+03  0.00000000000E+00 0.  1.
        -11    1    3    3    0    0  0.43659616467E+03 -0.82463463655E+03 -0.10779202982E+03  0.93928569482E+03  0.00000000000E+00 0. -1.
         22    1    1    2    0    0 -0.56277821587E+03  0.10019804152E+04 -0.68853663879E+03  0.13396890593E+04  0.00000000000E+00 0. -1.
<mgrwt>
<rscale>  0 0.23692128E+04</rscale>
<asrwt>0</asrwt>
<pdfrwt beam="1">  1        2 0.25266931E+00 0.23692128E+04</pdfrwt>
<pdfrwt beam="2">  1       -2 0.13145252E+00 0.23692128E+04</pdfrwt>
<totfact> 0.40201980E+00</totfact>
</mgrwt>
</event>
<event>
 6    1  0.5026615E-004  0.3646090E+04  0.7818608E-02  0.8080015E-01
          2   -1    0    0  501    0  0.00000000000E+00  0.00000000000E+00  0.77949548235E+03  0.77949548235E+03  0.00000000000E+00 0.  1.
         -2   -1    0    0    0  501 -0.00000000000E+00 -0.00000000000E+00 -0.42636452532E+04  0.42636452532E+04  0.00000000000E+00 0. -1.
         23    2    1    2    0    0  0.45969782663E+03  0.86607292296E+03  0.38082291898E+03  0.10557332704E+04  0.90234377970E+02 0.  0.
         11    1    3    3    0    0  0.37187976209E+03  0.73755805652E+03  0.28951242204E+03  0.87527360677E+03  0.00000000000E+00 0. -1.
        -11    1    3    3    0    0  0.87818064536E+02  0.12851486645E+03  0.91310496943E+02  0.18045966366E+03  0.00000000000E+00 0.  1.
         22    1    1    2    0    0 -0.45969782663E+03 -0.86607292296E+03 -0.38649726899E+04  0.39874074651E+04  0.00000000000E+00 0. -1.
<mgrwt>
<rscale>  0 0.36460895E+04</rscale>
<asrwt>0</asrwt>
<pdfrwt beam="1">  1        2 0.11992238E+00 0.36460895E+04</pdfrwt>
<pdfrwt beam="2">  1       -2 0.65594542E+00 0.36460895E+04</pdfrwt>
<totfact> 0.92441695E-03</totfact>
</mgrwt>
</event>
<event>
 6    1  0.5026615E-004  0.1899542E+04  0.7818608E-02  0.8655084E-01
         -2   -1    0    0    0  501 -0.00000000000E+00  0.00000000000E+00  0.52860498501E+03  0.52860498501E+03  0.00000000000E+00 0. -1.
          2   -1    0    0  501    0  0.00000000000E+00 -0.00000000000E+00 -0.17065015009E+04  0.17065015009E+04  0.00000000000E+00 0.  1.
         23    2    1    2    0    0 -0.68957221858E+03  0.30529772853E+03  0.84825190010E+02  0.76433027785E+03  0.91043468175E+02 0.  0.
         11    1    3    3    0    0 -0.21501323488E+03  0.14186817696E+03  0.34583037981E+02  0.25991009470E+03  0.00000000000E+00 0.  1.
        -11    1    3    3    0    0 -0.47455898369E+03  0.16342955157E+03  0.50242152029E+02  0.50442018315E+03  0.00000000000E+00 0. -1.
         22    1    1    2    0    0  0.68957221858E+03 -0.30529772853E+03 -0.12627217059E+04  0.14707762081E+04  0.00000000000E+00 0.  1.
<mgrwt>
<rscale>  0 0.18995423E+04</rscale>
<asrwt>0</asrwt>
<pdfrwt beam="1">  1        2 0.26253869E+00 0.18995423E+04</pdfrwt>
<pdfrwt beam="2">  1       -2 0.81323845E-01 0.18995423E+04</pdfrwt>
<totfact> 0.12132970E+01</totfact>
</mgrwt>
</event>
<event>
 6    1  0.5026615E-004  0.4748183E+04  0.7818608E-02  0.7868572E-01
         -2   -1    0    0    0  501 -0.00000000000E+00  0.00000000000E+00  0.17455318012E+04  0.17455318012E+04  0.00000000000E+00 0. -1.
          2   -1    0    0  501    0  0.00000000000E+00 -0.00000000000E+00 -0.32289927947E+04  0.32289927947E+04  0.00000000000E+00 0.  1.
         23    2    1    2    0    0 -0.16693262951E+04  0.12316798219E+04  0.46545110035E+03  0.21281332292E+04  0.92848537658E+02 0.  0.
         11    1    3    3    0    0 -0.48873452400E+03  0.36036245470E+03  0.17973574862E+03  0.63326729983E+03  0.00000000000E+00 0.  1.
        -11    1    3    3    0    0 -0.11805917711E+04  0.87131736722E+03  0.28571535174E+03  0.14948659293E+04  0.00000000000E+00 0. -1.
         22    1    1    2    0    0  0.16693262951E+04 -0.12316798219E+04 -0.19489120938E+04  0.28463913668E+04  0.00000000000E+00 0.  1.
<mgrwt>
<rscale>  0 0.47481826E+04</rscale>
<asrwt>0</asrwt>
<pdfrwt beam="1">  1        2 0.49676812E+00 0.47481826E+04</pdfrwt>
<pdfrwt beam="2">  1       -2 0.26854335E+00 0.47481826E+04</pdfrwt>
<totfact> 0.45559145E-02</totfact>
</mgrwt>
</event>
<event>
 6    1  0.5026615E-004  0.1493384E+04  0.7818608E-02  0.8888865E-01
          1   -1    0    0  501    0  0.00000000000E+00  0.00000000000E+00  0.12034145075E+04  0.12034145075E+04  0.00000000000E+00 0.  1.
         -1   -1    0    0    0  501 -0.00000000000E+00 -0.00000000000E+00 -0.46330552787E+03  0.46330552787E+03  0.00000000000E+00 0. -1.
         23    2    1    2    0    0  0.56316515070E+03 -0.48473423445E+03  0.34286702206E+03  0.82415049052E+03  0.97693250499E+02 0.  0.
         11    1    3    3    0    0  0.38186912188E+03 -0.26973267819E+03  0.19697847772E+03  0.50732658575E+03  0.00000000000E+00 0.  1.
        -11    1    3    3    0    0  0.18129602883E+03 -0.21500155626E+03  0.14588854433E+03  0.31682390477E+03  0.00000000000E+00 0. -1.
         22    1    1    2    0    0 -0.56316515070E+03  0.48473423445E+03  0.39724195752E+03  0.84256954480E+03  0.00000000000E+00 0. -1.
<mgrwt>
<rscale>  0 0.14933835E+04</rscale>
<asrwt>0</asrwt>
<pdfrwt beam="1">  1        1 0.18514069E+00 0.14933835E+04</pdfrwt>
<pdfrwt beam="2">  1       -1 0.71277774E-01 0.14933835E+04</pdfrwt>
<totfact> 0.20440410E+01</totfact>
</mgrwt>
</event>
<event>
 6    1  0.5026615E-004  0.8145142E+03  0.7818608E-02  0.9539243E-01
         -2   -1    0    0    0  501 -0.00000000000E+00  0.00000000000E+00  0.13100932120E+03  0.13100932120E+03  0.00000000000E+00 0. -1.
          2   -1    0    0  501    0  0.00000000000E+00 -0.00000000000E+00 -0.12660041843E+04  0.12660041843E+04  0.00000000000E+00 0.  1.
         23    2    1    2    0    0  0.18717360727E+03 -0.14366891443E+03 -0.16611745828E+02  0.25401065632E+03  0.92578330034E+02 0.  0.
         11    1    3    3    0    0  0.67680387170E+02 -0.32365265712E+02  0.34950612538E+02  0.82762857302E+02  0.00000000000E+00 0.  1.
        -11    1    3    3    0    0  0.11949322010E+03 -0.11130364871E+03 -0.51562358366E+02  0.17124779902E+03  0.00000000000E+00 0. -1.
         22    1    1    2    0    0 -0.18717360727E+03  0.14366891443E+03 -0.11183831173E+04  0.11430028492E+04  0.00000000000E+00 0.  1.
<mgrwt>
<rscale>  0 0.81451421E+03</rscale>
<asrwt>0</asrwt>
<pdfrwt beam="1">  1        2 0.19476988E+00 0.81451421E+03</pdfrwt>
<pdfrwt beam="2">  1       -2 0.20155280E-01 0.81451421E+03</pdfrwt>
<totfact> 0.36654908E+02</totfact>
</mgrwt>
</event>
<event>
 6    1  0.5026615E-004  0.1074577E+04  0.7818608E-02  0.9230331E-01
          2   -1    0    0  501    0  0.00000000000E+00  0.00000000000E+00  0.74716680381E+03  0.74716680381E+03  0.00000000000E+00 0.  1.
         -2   -1    0    0    0  501 -0.00000000000E+00 -0.00000000000E+00 -0.38636509631E+03  0.38636509631E+03  0.00000000000E+00 0. -1.
         23    2    1    2    0    0 -0.50353472819E+03  0.17234515334E+03  0.14473116922E+03  0.55913086261E+03  0.91815771057E+02 0.  0.
         13    1    3    3    0    0 -0.27249571653E+03  0.13670522130E+03  0.61654429278E+02  0.31103617428E+03  0.00000000000E+00 0. -1.
        -13    1    3    3    0    0 -0.23103901165E+03  0.35639932039E+02  0.83076739942E+02  0.24809468834E+03  0.00000000000E+00 0.  1.
         22    1    1    2    0    0  0.50353472819E+03 -0.17234515334E+03  0.21607053828E+03  0.57440103750E+03  0.00000000000E+00 0.  1.
<mgrwt>
<rscale>  0 0.10745775E+04</rscale>
<asrwt>0</asrwt>
<pdfrwt beam="1">  1        2 0.11494874E+00 0.10745775E+04</pdfrwt>
<pdfrwt beam="2">  1       -2 0.59440784E-01 0.10745775E+04</pdfrwt>
<totfact> 0.99029416E+01</totfact>
</mgrwt>
</event>
<event>
 6    1  0.5026615E-004  0.2164585E+04  0.7818608E-02  0.8533315E-01
          1   -1    0    0  501    0  0.00000000000E+00  0.00000000000E+00  0.19816181530E+04  0.19816181530E+04  0.00000000000E+00 0.  1.
         -1   -1    0    0    0  501 -0.00000000000E+00 -0.00000000000E+00 -0.59111126002E+03  0.59111126002E+03  0.00000000000E+00 0. -1.
         23    2    1    2    0    0 -0.27293899077E+03  0.71880716605E+03  0.15986257606E+04  0.17761787884E+04  0.89595373654E+02 0.  0.
         13    1    3    3    0    0 -0.24758643030E+03  0.69984508057E+03  0.15380266202E+04  0.17078079698E+04  0.00000000000E+00 0. -1.
        -13    1    3    3    0    0 -0.25352560470E+02  0.18962085474E+02  0.60599140487E+02  0.68370818598E+02  0.00000000000E+00 0.  1.
         22    1    1    2    0    0  0.27293899077E+03 -0.71880716605E+03 -0.20811886763E+03  0.79655062470E+03  0.00000000000E+00 0. -1.
<mgrwt>
<rscale>  0 0.21645848E+04</rscale>
<asrwt>0</asrwt>
<pdfrwt beam="1">  1        1 0.30486433E+00 0.21645848E+04</pdfrwt>
<pdfrwt beam="2">  1       -1 0.90940195E-01 0.21645848E+04</pdfrwt>
<totfact> 0.33103983E+00</totfact>
</mgrwt>
</event>
<event>
 6    1  0.5180076E-004  0.3509600E+04  0.7818608E-02  0.8111519E-01
          2   -1    0    0  501    0  0.00000000000E+00  0.00000000000E+00  0.17703976884E+04  0.17703976884E+04  0.00000000000E+00 0.  1.
         -2   -1    0    0    0  501 -0.00000000000E+00 -0.00000000000E+00 -0.17393397600E+04  0.17393397600E+04  0.00000000000E+00 0. -1.
         23    2    1    2    0    0  0.95442952682E+01 -0.17429262566E+04  0.20992368171E+03  0.17576312908E+04  0.85538136279E+02 0.  0.
         11    1    3    3    0    0  0.43176728866E+02 -0.71645330274E+03  0.71059877058E+02  0.72126213755E+03  0.00000000000E+00 0. -1.
        -11    1    3    3    0    0 -0.33632433598E+02 -0.10264729539E+04  0.13886380466E+03  0.10363691533E+04  0.00000000000E+00 0.  1.
         22    1    1    2    0    0 -0.95442952682E+01  0.17429262566E+04 -0.17886575334E+03  0.17521061575E+04  0.00000000000E+00 0. -1.
<mgrwt>
<rscale>  0 0.35096000E+04</rscale>
<asrwt>0</asrwt>
<pdfrwt beam="1">  1        2 0.27236887E+00 0.35096000E+04</pdfrwt>
<pdfrwt beam="2">  1       -2 0.26759073E+00 0.35096000E+04</pdfrwt>
<totfact> 0.36893239E-01</totfact>
</mgrwt>
</event>
<event>
 6    1  0.5026615E-004  0.5106584E+04  0.7818608E-02  0.7812273E-01
         -2   -1    0    0    0  501 -0.00000000000E+00  0.00000000000E+00  0.21777356298E+04  0.21777356298E+04  0.00000000000E+00 0.  1.
          2   -1    0    0  501    0  0.00000000000E+00 -0.00000000000E+00 -0.29936144238E+04  0.29936144238E+04  0.00000000000E+00 0. -1.
         23    2    1    2    0    0 -0.58184655344E+02 -0.89601917506E+03 -0.28277274193E+04  0.29682225705E+04  0.89816780204E+02 0.  0.
         11    1    3    3    0    0 -0.20171945938E+01 -0.57264705135E+03 -0.17132381519E+04  0.18064090566E+04  0.00000000000E+00 0. -1.
        -11    1    3    3    0    0 -0.56167460750E+02 -0.32337212371E+03 -0.11144892673E+04  0.11618135139E+04  0.00000000000E+00 0.  1.
         22    1    1    2    0    0  0.58184655344E+02  0.89601917506E+03  0.20118486252E+04  0.22031274831E+04  0.00000000000E+00 0.  1.
<mgrwt>
<rscale>  0 0.51065843E+04</rscale>
<asrwt>0</asrwt>
<pdfrwt beam="1">  1        2 0.46055606E+00 0.51065843E+04</pdfrwt>
<pdfrwt beam="2">  1       -2 0.33503625E+00 0.51065843E+04</pdfrwt>
<totfact> 0.24488478E-02</totfact>
</mgrwt>
</event>
<event>
 6    1  0.5026615E-004  0.2004476E+04  0.7818608E-02  0.8604531E-01
         -2   -1    0    0    0  501 -0.00000000000E+00  0.00000000000E+00  0.80950570383E+03  0.80950570383E+03  0.00000000000E+00 0. -1.
          2   -1    0    0  501    0  0.00000000000E+00 -0.00000000000E+00 -0.12408568002E+04  0.12408568002E+04  0.00000000000E+00 0.  1.
         23    2    1    2    0    0  0.32441677551E+02  0.42845890739E+03  0.70772496660E+03  0.83293744473E+03  0.90998135766E+02 0.  0.
         13    1    3    3    0    0  0.40969760850E+02  0.38324507952E+03  0.67199562402E+03  0.77468279378E+03  0.00000000000E+00 0. -1.
        -13    1    3    3    0    0 -0.85280832990E+01  0.45213827870E+02  0.35729342583E+02  0.58254650945E+02  0.00000000000E+00 0.  1.
         22    1    1    2    0    0 -0.32441677551E+02 -0.42845890739E+03 -0.11390760629E+04  0.12174250593E+04  0.00000000000E+00 0.  1.
<mgrwt>
<rscale>  0 0.20044756E+04</rscale>
<asrwt>0</asrwt>
<pdfrwt beam="1">  1        2 0.19090105E+00 0.20044756E+04</pdfrwt>
<pdfrwt beam="2">  1       -2 0.12453934E+00 0.20044756E+04</pdfrwt>
<totfact> 0.80507153E+00</totfact>
</mgrwt>
</event>
<event>
 6    1  0.5026615E-004  0.2841795E+04  0.7818608E-02  0.8290409E-01
          2   -1    0    0  501    0  0.00000000000E+00  0.00000000000E+00  0.27299549378E+04  0.27299549378E+04  0.00000000000E+00 0.  1.
         -2   -1    0    0    0  501 -0.00000000000E+00 -0.00000000000E+00 -0.73955424970E+03  0.73955424970E+03  0.00000000000E+00 0. -1.
         23    2    1    2    0    0 -0.10131808349E+03  0.10140223433E+04  0.22026868133E+04  0.24285615108E+04  0.87035324309E+02 0.  0.
         13    1    3    3    0    0 -0.16090329227E+02  0.22643776524E+03  0.57961593241E+03  0.62248501132E+03  0.00000000000E+00 0. -1.
        -13    1    3    3    0    0 -0.85227754258E+02  0.78758457802E+03  0.16230708808E+04  0.18060764995E+04  0.00000000000E+00 0.  1.
         22    1    1    2    0    0  0.10131808349E+03 -0.10140223433E+04 -0.21228612519E+03  0.10409476767E+04  0.00000000000E+00 0. -1.
<mgrwt>
<rscale>  0 0.28417950E+04</rscale>
<asrwt>0</asrwt>
<pdfrwt beam="1">  1        2 0.41999306E+00 0.28417950E+04</pdfrwt>
<pdfrwt beam="2">  1       -2 0.11377758E+00 0.28417950E+04</pdfrwt>
<totfact> 0.13369884E+00</totfact>
</mgrwt>
</event>
<event>
 6    1  0.5026615E-004  0.3183989E+04  0.7818608E-02  0.8193059E-01
         -2   -1    0    0    0  501 -0.00000000000E+00  0.00000000000E+00  0.85046002994E+03  0.85046002994E+03  0.00000000000E+00 0. -1.
          2   -1    0    0  501    0  0.00000000000E+00 -0.00000000000E+00 -0.29800883281E+04  0.29800883281E+04  0.00000000000E+00 0.  1.
         23    2    1    2    0    0  0.13679172248E+04 -0.75379994485E+03 -0.14283812478E+04  0.21184854747E+04  0.91081430070E+02 0.  0.
         11    1    3    3    0    0  0.11058482352E+04 -0.64553516389E+03 -0.11487317739E+04  0.17202327329E+04  0.00000000000E+00 0. -1.
        -11    1    3    3    0    0  0.26206898955E+03 -0.10826478096E+03 -0.27964947394E+03  0.39825274180E+03  0.00000000000E+00 0.  1.
         22    1    1    2    0    0 -0.13679172248E+04  0.75379994485E+03 -0.70124705030E+03  0.17120628833E+04  0.00000000000E+00 0. -1.
<mgrwt>
<rscale>  0 0.31839887E+04</rscale>
<asrwt>0</asrwt>
<pdfrwt beam="1">  1        2 0.45847512E+00 0.31839887E+04</pdfrwt>
<pdfrwt beam="2">  1       -2 0.13084001E+00 0.31839887E+04</pdfrwt>
<totfact> 0.64508876E-01</totfact>
</mgrwt>
</event>
<event>
 6    1  0.5026615E-004  0.1822485E+04  0.7818608E-02  0.8694433E-01
          2   -1    0    0  501    0  0.00000000000E+00  0.00000000000E+00  0.10159069408E+04  0.10159069408E+04  0.00000000000E+00 0.  1.
         -2   -1    0    0    0  501 -0.00000000000E+00 -0.00000000000E+00 -0.81736090504E+03  0.81736090504E+03  0.00000000000E+00 0. -1.
         23    2    1    2    0    0  0.11131268751E+03 -0.62402693009E+03 -0.55586201970E+03  0.84790921162E+03  0.90373239048E+02 0.  0.
         13    1    3    3    0    0  0.12216396975E+03 -0.47286021367E+03 -0.41221993899E+03  0.63909787613E+03  0.00000000000E+00 0.  1.
        -13    1    3    3    0    0 -0.10851282239E+02 -0.15116671642E+03 -0.14364208071E+03  0.20881133550E+03  0.00000000000E+00 0. -1.
         22    1    1    2    0    0 -0.11131268751E+03  0.62402693009E+03  0.75440805546E+03  0.98535863422E+03  0.00000000000E+00 0.  1.
<mgrwt>
<rscale>  0 0.18224847E+04</rscale>
<asrwt>0</asrwt>
<pdfrwt beam="1">  1        2 0.15629338E+00 0.18224847E+04</pdfrwt>
<pdfrwt beam="2">  1       -2 0.12574783E+00 0.18224847E+04</pdfrwt>
<totfact> 0.10952255E+01</totfact>
</mgrwt>
</event>
<event>
 6    1  0.5026615E-004  0.1534031E+04  0.7818608E-02  0.8862133E-01
         -2   -1    0    0    0  501 -0.00000000000E+00  0.00000000000E+00  0.10324632266E+04  0.10324632266E+04  0.00000000000E+00 0. -1.
          2   -1    0    0  501    0  0.00000000000E+00 -0.00000000000E+00 -0.56981489100E+03  0.56981489100E+03  0.00000000000E+00 0.  1.
         23    2    1    2    0    0  0.15052761082E+03  0.74926869072E+03  0.21553042958E+03  0.79907864550E+03  0.89505212753E+02 0.  0.
         11    1    3    3    0    0  0.10020996244E+03  0.58999708720E+03  0.13424527162E+03  0.61331916033E+03  0.00000000000E+00 0. -1.
        -11    1    3    3    0    0  0.50317648385E+02  0.15927160352E+03  0.81285157960E+02  0.18575948517E+03  0.00000000000E+00 0.  1.
         22    1    1    2    0    0 -0.15052761082E+03 -0.74926869072E+03  0.24711790601E+03  0.80319947210E+03  0.00000000000E+00 0.  1.
<mgrwt>
<rscale>  0 0.15340312E+04</rscale>
<asrwt>0</asrwt>
<pdfrwt beam="1">  1        2 0.87663830E-01 0.15340312E+04</pdfrwt>
<pdfrwt beam="2">  1       -2 0.15884050E+00 0.15340312E+04</pdfrwt>
<totfact> 0.13056817E+01</totfact>
</mgrwt>
</event>
<event>
 6    1  0.5026615E-004  0.3061165E+04  0.7818608E-02  0.8226477E-01
          2   -1    0    0  501    0  0.00000000000E+00  0.00000000000E+00  0.16506489752E+04  0.16506489752E+04  0.00000000000E+00 0.  1.
         -2   -1    0    0    0  501 -0.00000000000E+00 -0.00000000000E+00 -0.14192498647E+04  0.14192498647E+04  0.00000000000E+00 0. -1.
         23    2    1    2    0    0 -0.15187118891E+04  0.12246583516E+03  0.24674576071E+03  0.15461799674E+04  0.91133629689E+02 0.  0.
         11    1    3    3    0    0 -0.45145597851E+03 -0.35439503192E+01  0.60873561264E+02  0.45555532110E+03  0.00000000000E+00 0. -1.
        -11    1    3    3    0    0 -0.10672559106E+04  0.12600978547E+03  0.18587219945E+03  0.10906246463E+04  0.00000000000E+00 0.  1.
         22    1    1    2    0    0  0.15187118891E+04 -0.12246583516E+03 -0.15346650272E+02  0.15237188725E+04  0.00000000000E+00 0.  1.
<mgrwt>
<rscale>  0 0.30611654E+04</rscale>
<asrwt>0</asrwt>
<pdfrwt beam="1">  1        2 0.25394600E+00 0.30611654E+04</pdfrwt>
<pdfrwt beam="2">  1       -2 0.21834613E+00 0.30611654E+04</pdfrwt>
<totfact> 0.90113242E-01</totfact>
</mgrwt>
</event>
<event>
 6    1  0.5026615E-004  0.6581579E+03  0.7818608E-02  0.9791591E-01
         -2   -1    0    0    0  501 -0.00000000000E+00  0.00000000000E+00  0.11629592457E+03  0.11629592457E+03  0.00000000000E+00 0. -1.
          2   -1    0    0  501    0  0.00000000000E+00 -0.00000000000E+00 -0.93118438497E+03  0.93118438497E+03  0.00000000000E+00 0.  1.
         23    2    1    2    0    0 -0.22543985359E+03  0.15297150535E+03 -0.69076941006E+03  0.74809936876E+03  0.90922376980E+02 0.  0.
         13    1    3    3    0    0 -0.17429176479E+03  0.15362218022E+03 -0.51381601390E+03  0.56390095733E+03  0.00000000000E+00 0. -1.
        -13    1    3    3    0    0 -0.51148088806E+02 -0.65067486664E+00 -0.17695339615E+03  0.18419841144E+03  0.00000000000E+00 0.  1.
         22    1    1    2    0    0  0.22543985359E+03 -0.15297150535E+03 -0.12411905035E+03  0.29938094077E+03  0.00000000000E+00 0. -1.
<mgrwt>
<rscale>  0 0.65815788E+03</rscale>
<asrwt>0</asrwt>
<pdfrwt beam="1">  1        2 0.14325913E+00 0.65815788E+03</pdfrwt>
<pdfrwt beam="2">  1       -2 0.17891681E-01 0.65815788E+03</pdfrwt>
<totfact> 0.72896412E+02</totfact>
</mgrwt>
</event>
<event>
 6    1  0.5026615E-004  0.2472245E+04  0.7818608E-02  0.8412941E-01
          1   -1    0    0  501    0  0.00000000000E+00  0.00000000000E+00  0.39551314923E+04  0.39551314923E+04  0.00000000000E+00 0. -1.
         -1   -1    0    0    0  501 -0.00000000000E+00 -0.00000000000E+00 -0.38633332191E+03  0.38633332191E+03  0.00000000000E+00 0.  1.
         23    2    1    2    0    0  0.32973062186E+03  0.11290650898E+04  0.24444380263E+04  0.27142905784E+04  0.92659696753E+02 0.  0.
         11    1    3    3    0    0  0.11810220544E+03  0.26500010646E+03  0.58321079102E+03  0.65138929537E+03  0.00000000000E+00 0.  1.
        -11    1    3    3    0    0  0.21162841642E+03  0.86406498338E+03  0.18612272353E+04  0.20629012830E+04  0.00000000000E+00 0. -1.
         22    1    1    2    0    0 -0.32973062186E+03 -0.11290650898E+04  0.11243601441E+04  0.16271742358E+04  0.00000000000E+00 0. -1.
<mgrwt>
<rscale>  0 0.24722452E+04</rscale>
<asrwt>0</asrwt>
<pdfrwt beam="1">  1        1 0.60848174E+00 0.24722452E+04</pdfrwt>
<pdfrwt beam="2">  1       -1 0.59435898E-01 0.24722452E+04</pdfrwt>
<totfact> 0.26914510E-01</totfact>
</mgrwt>
</event>
<event>
 6    1  0.5026615E-004  0.4887141E+04  0.7818608E-02  0.7846157E-01
          2   -1    0    0  501    0  0.00000000000E+00  0.00000000000E+00  0.34347792272E+04  0.34347792272E+04  0.00000000000E+00 0.  1.
         -2   -1    0    0    0  501 -0.00000000000E+00 -0.00000000000E+00 -0.17384047030E+04  0.17384047030E+04  0.00000000000E+00 0. -1.
         23    2    1    2    0    0  0.12911186063E+04 -0.11170943233E+04  0.26977267722E+04  0.31938928178E+04  0.91294094458E+02 0.  0.
         11    1    3    3    0    0  0.73379929753E+03 -0.68185924845E+03  0.16326355800E+04  0.19154352980E+04  0.00000000000E+00 0. -1.
        -11    1    3    3    0    0  0.55731930880E+03 -0.43523507487E+03  0.10650911921E+04  0.12784575198E+04  0.00000000000E+00 0.  1.
         22    1    1    2    0    0 -0.12911186063E+04  0.11170943233E+04 -0.10013522480E+04  0.19792911123E+04  0.00000000000E+00 0. -1.
<mgrwt>
<rscale>  0 0.48871408E+04</rscale>
<asrwt>0</asrwt>
<pdfrwt beam="1">  1        2 0.52842757E+00 0.48871408E+04</pdfrwt>
<pdfrwt beam="2">  1       -2 0.26744688E+00 0.48871408E+04</pdfrwt>
<totfact> 0.33245686E-02</totfact>
</mgrwt>
</event>
<event>
 6    1  0.5026615E-004  0.1004174E+04  0.7818608E-02  0.9303979E-01
          2   -1    0    0  501    0  0.00000000000E+00  0.00000000000E+00  0.16835261331E+04  0.16835261331E+04  0.00000000000E+00 0.  1.
         -2   -1    0    0    0  501 -0.00000000000E+00 -0.00000000000E+00 -0.14974008931E+03  0.14974008931E+03  0.00000000000E+00 0. -1.
         23    2    1    2    0    0  0.40129825099E+03  0.43552600172E+02  0.13053223556E+04  0.13694421480E+04  0.92564730553E+02 0.  0.
         11    1    3    3    0    0  0.11065413922E+03 -0.11165554700E+02  0.48041237128E+03  0.49311768841E+03  0.00000000000E+00 0. -1.
        -11    1    3    3    0    0  0.29064411177E+03  0.54718154872E+02  0.82490998434E+03  0.87632445957E+03  0.00000000000E+00 0.  1.
         22    1    1    2    0    0 -0.40129825099E+03 -0.43552600172E+02  0.22846368821E+03  0.46382407447E+03  0.00000000000E+00 0. -1.
<mgrwt>
<rscale>  0 0.10041740E+04</rscale>
<asrwt>0</asrwt>
<pdfrwt beam="1">  1        2 0.25900401E+00 0.10041740E+04</pdfrwt>
<pdfrwt beam="2">  1       -2 0.23036938E-01 0.10041740E+04</pdfrwt>
<totfact> 0.16629176E+02</totfact>
</mgrwt>
</event>
<event>
 6    1  0.5026615E-004  0.3527406E+04  0.7818608E-02  0.8107326E-01
          2   -1    0    0  501    0  0.00000000000E+00  0.00000000000E+00  0.27504323488E+04  0.27504323488E+04  0.00000000000E+00 0.  1.
         -2   -1    0    0    0  501 -0.00000000000E+00 -0.00000000000E+00 -0.11309672680E+04  0.11309672680E+04  0.00000000000E+00 0. -1.
         23    2    1    2    0    0  0.34168506783E+03  0.10853447303E+04  0.22913486792E+04  0.25599801379E+04  0.92182792511E+02 0.  0.
         13    1    3    3    0    0  0.14282977802E+03  0.32484302543E+03  0.67288786314E+03  0.76072426872E+03  0.00000000000E+00 0.  1.
        -13    1    3    3    0    0  0.19885528981E+03  0.76050170490E+03  0.16184608161E+04  0.17992558692E+04  0.00000000000E+00 0. -1.
         22    1    1    2    0    0 -0.34168506783E+03 -0.10853447303E+04 -0.67188359844E+03  0.13214194788E+04  0.00000000000E+00 0. -1.
<mgrwt>
<rscale>  0 0.35274064E+04</rscale>
<asrwt>0</asrwt>
<pdfrwt beam="1">  1        2 0.42314344E+00 0.35274064E+04</pdfrwt>
<pdfrwt beam="2">  1       -2 0.17399497E+00 0.35274064E+04</pdfrwt>
<totfact> 0.40546056E-01</totfact>
</mgrwt>
</event>
<event>
 6    1  0.5026615E-004  0.4233906E+04  0.7818608E-02  0.7958954E-01
          2   -1    0    0  501    0  0.00000000000E+00  0.00000000000E+00  0.28922177388E+04  0.28922177388E+04  0.00000000000E+00 0.  1.
         -2   -1    0    0    0  501 -0.00000000000E+00 -0.00000000000E+00 -0.15494995790E+04  0.15494995790E+04  0.00000000000E+00 0. -1.
         23    2    1    2    0    0  0.12710015977E+04  0.13543601781E+04 -0.39154473039E+03  0.19005749909E+04  0.95611017573E+02 0.  0.
         11    1    3    3    0    0  0.49653777455E+03  0.58152140042E+03 -0.19222483180E+03  0.78845880467E+03  0.00000000000E+00 0. -1.
        -11    1    3    3    0    0  0.77446382317E+03  0.77283877770E+03 -0.19931989859E+03  0.11121161862E+04  0.00000000000E+00 0.  1.
         22    1    1    2    0    0 -0.12710015977E+04 -0.13543601781E+04  0.17342628901E+04  0.25411423269E+04  0.00000000000E+00 0.  1.
<mgrwt>
<rscale>  0 0.42339061E+04</rscale>
<asrwt>0</asrwt>
<pdfrwt beam="1">  1        2 0.44495657E+00 0.42339061E+04</pdfrwt>
<pdfrwt beam="2">  1       -2 0.23838455E+00 0.42339061E+04</pdfrwt>
<totfact> 0.11916105E-01</totfact>
</mgrwt>
</event>
<event>
 6    1  0.5026615E-004  0.3424481E+04  0.7818608E-02  0.8131924E-01
         -2   -1    0    0    0  501 -0.00000000000E+00  0.00000000000E+00  0.12196208152E+04  0.12196208152E+04  0.00000000000E+00 0. -1.
          2   -1    0    0  501    0  0.00000000000E+00 -0.00000000000E+00 -0.24038347758E+04  0.24038347758E+04  0.00000000000E+00 0.  1.
         23    2    1    2    0    0 -0.15052179582E+04  0.36800597196E+03  0.17538806372E+03  0.15619932068E+04  0.89175713563E+02 0.  0.
         13    1    3    3    0    0 -0.11889161139E+04  0.29500361562E+03  0.10217640506E+03  0.12292227938E+04  0.00000000000E+00 0.  1.
        -13    1    3    3    0    0 -0.31630184436E+03  0.73002356344E+02  0.73211658658E+02  0.33277041296E+03  0.00000000000E+00 0. -1.
         22    1    1    2    0    0  0.15052179582E+04 -0.36800597196E+03 -0.13596020243E+04  0.20614623842E+04  0.00000000000E+00 0.  1.
<mgrwt>
<rscale>  0 0.34244806E+04</rscale>
<asrwt>0</asrwt>
<pdfrwt beam="1">  1        2 0.36982073E+00 0.34244806E+04</pdfrwt>
<pdfrwt beam="2">  1       -2 0.18763397E+00 0.34244806E+04</pdfrwt>
<totfact> 0.52581247E-01</totfact>
</mgrwt>
</event>
<event>
 6    1  0.5026615E-004  0.8778683E+03  0.7818608E-02  0.9453678E-01
         -2   -1    0    0    0  501 -0.00000000000E+00  0.00000000000E+00  0.57866873081E+02  0.57866873081E+02  0.00000000000E+00 0. -1.
          2   -1    0    0  501    0  0.00000000000E+00 -0.00000000000E+00 -0.33294213873E+04  0.33294213873E+04  0.00000000000E+00 0.  1.
         23    2    1    2    0    0 -0.10951669383E+03  0.36227757434E+03 -0.24747524484E+04  0.25051700828E+04  0.90766270473E+02 0.  0.
         11    1    3    3    0    0 -0.23404265319E+02  0.89381690908E+01 -0.13184332380E+03  0.13420250569E+03  0.00000000000E+00 0. -1.
        -11    1    3    3    0    0 -0.86112428509E+02  0.35333940525E+03 -0.23429091246E+04  0.23709675772E+04  0.00000000000E+00 0.  1.
         22    1    1    2    0    0  0.10951669383E+03 -0.36227757434E+03 -0.79680206577E+03  0.88211817752E+03  0.00000000000E+00 0. -1.
<mgrwt>
<rscale>  0 0.87786834E+03</rscale>
<asrwt>0</asrwt>
<pdfrwt beam="1">  1        2 0.51221871E+00 0.87786834E+03</pdfrwt>
<pdfrwt beam="2">  1       -2 0.89025953E-02 0.87786834E+03</pdfrwt>
<totfact> 0.92733460E+01</totfact>
</mgrwt>
</event>
<event>
 6    1  0.5026615E-004  0.1086825E+04  0.7818608E-02  0.9218129E-01
         -2   -1    0    0    0  501 -0.00000000000E+00  0.00000000000E+00  0.16979791751E+03  0.16979791751E+03  0.00000000000E+00 0. -1.
          2   -1    0    0  501    0  0.00000000000E+00 -0.00000000000E+00 -0.17391095440E+04  0.17391095440E+04  0.00000000000E+00 0.  1.
         23    2    1    2    0    0 -0.29624552200E+03  0.56353456284E+02 -0.15759233410E+04  0.16072771644E+04  0.94172105273E+02 0.  0.
         13    1    3    3    0    0 -0.45158236262E+02  0.32745922092E+02 -0.17012286716E+03  0.17903449848E+03  0.00000000000E+00 0. -1.
        -13    1    3    3    0    0 -0.25108728573E+03  0.23607534192E+02 -0.14058004738E+04  0.14282426660E+04  0.00000000000E+00 0.  1.
         22    1    1    2    0    0  0.29624552200E+03 -0.56353456284E+02  0.66117144846E+01  0.30163029706E+03  0.00000000000E+00 0. -1.
<mgrwt>
<rscale>  0 0.10868251E+04</rscale>
<asrwt>0</asrwt>
<pdfrwt beam="1">  1        2 0.26755531E+00 0.10868251E+04</pdfrwt>
<pdfrwt beam="2">  1       -2 0.26122757E-01 0.10868251E+04</pdfrwt>
<totfact> 0.12276573E+02</totfact>
</mgrwt>
</event>
<event>
 6    1  0.5026615E-004  0.3055842E+04  0.7818608E-02  0.8227962E-01
         -2   -1    0    0    0  501 -0.00000000000E+00  0.00000000000E+00  0.65564591981E+03  0.65564591981E+03  0.00000000000E+00 0. -1.
          2   -1    0    0  501    0  0.00000000000E+00 -0.00000000000E+00 -0.35606751030E+04  0.35606751030E+04  0.00000000000E+00 0.  1.
         23    2    1    2    0    0 -0.73128267845E+03  0.13208444111E+04 -0.17651113911E+04  0.23245449032E+04  0.92122038335E+02 0.  0.
         13    1    3    3    0    0 -0.36018160450E+03  0.64256978007E+03 -0.93179913926E+03  0.11878031598E+04  0.00000000000E+00 0.  1.
        -13    1    3    3    0    0 -0.37110107395E+03  0.67827463100E+03 -0.83331225181E+03  0.11367417434E+04  0.00000000000E+00 0. -1.
         22    1    1    2    0    0  0.73128267845E+03 -0.13208444111E+04 -0.11399177922E+04  0.18917761197E+04  0.00000000000E+00 0. -1.
<mgrwt>
<rscale>  0 0.30558417E+04</rscale>
<asrwt>0</asrwt>
<pdfrwt beam="1">  1        2 0.54779615E+00 0.30558417E+04</pdfrwt>
<pdfrwt beam="2">  1       -2 0.10086861E+00 0.30558417E+04</pdfrwt>
<totfact> 0.50740949E-01</totfact>
</mgrwt>
</event>
<event>
 6    1  0.5026615E-004  0.1678074E+04  0.7818608E-02  0.8773969E-01
         -2   -1    0    0    0  501 -0.00000000000E+00  0.00000000000E+00  0.64366712749E+03  0.64366712749E+03  0.00000000000E+00 0. -1.
          2   -1    0    0  501    0  0.00000000000E+00 -0.00000000000E+00 -0.10937070077E+04  0.10937070077E+04  0.00000000000E+00 0.  1.
         23    2    1    2    0    0 -0.47324150043E+03 -0.64648110423E+03 -0.47513217365E+03  0.93579758924E+03  0.89839911659E+02 0.  0.
         11    1    3    3    0    0 -0.17422747027E+03 -0.23974426560E+03 -0.22687583402E+03  0.37323607589E+03  0.00000000000E+00 0.  1.
        -11    1    3    3    0    0 -0.29901403016E+03 -0.40673683863E+03 -0.24825633964E+03  0.56256151334E+03  0.00000000000E+00 0. -1.
         22    1    1    2    0    0  0.47324150043E+03  0.64648110423E+03  0.25092293422E+02  0.80157654597E+03  0.00000000000E+00 0. -1.
<mgrwt>
<rscale>  0 0.16780742E+04</rscale>
<asrwt>0</asrwt>
<pdfrwt beam="1">  1        2 0.16826261E+00 0.16780742E+04</pdfrwt>
<pdfrwt beam="2">  1       -2 0.99025713E-01 0.16780742E+04</pdfrwt>
<totfact> 0.17716422E+01</totfact>
</mgrwt>
</event>
<event>
 6    1  0.5026615E-004  0.5136053E+04  0.7818608E-02  0.7807856E-01
         -1   -1    0    0    0  501 -0.00000000000E+00  0.00000000000E+00  0.17564796427E+04  0.17564796427E+04  0.00000000000E+00 0. -1.
          1   -1    0    0  501    0  0.00000000000E+00 -0.00000000000E+00 -0.37545320271E+04  0.37545320271E+04  0.00000000000E+00 0.  1.
         23    2    1    2    0    0  0.25108302156E+03 -0.25440029461E+04 -0.12527521333E+04  0.28482187492E+04  0.89266242731E+02 0.  0.
         11    1    3    3    0    0  0.15007363460E+03 -0.19120140375E+04 -0.94376540351E+03  0.21375249501E+04  0.00000000000E+00 0. -1.
        -11    1    3    3    0    0  0.10100938696E+03 -0.63198890867E+03 -0.30898672978E+03  0.71069379912E+03  0.00000000000E+00 0.  1.
         22    1    1    2    0    0 -0.25108302156E+03  0.25440029461E+04 -0.74530025109E+03  0.26627929206E+04  0.00000000000E+00 0.  1.
<mgrwt>
<rscale>  0 0.51360526E+04</rscale>
<asrwt>0</asrwt>
<pdfrwt beam="1">  1        1 0.57762031E+00 0.51360526E+04</pdfrwt>
<pdfrwt beam="2">  1       -1 0.27022764E+00 0.51360526E+04</pdfrwt>
<totfact> 0.57086071E-03</totfact>
</mgrwt>
</event>
<event>
 6    1  0.5026615E-004  0.4070441E+04  0.7818608E-02  0.7990485E-01
          2   -1    0    0  501    0  0.00000000000E+00  0.00000000000E+00  0.32040696848E+04  0.32040696848E+04  0.00000000000E+00 0. -1.
         -2   -1    0    0    0  501 -0.00000000000E+00 -0.00000000000E+00 -0.12927689529E+04  0.12927689529E+04  0.00000000000E+00 0.  1.
         23    2    1    2    0    0  0.19635072630E+04 -0.53013293597E+03  0.10008577150E+04  0.22685414877E+04  0.90347188570E+02 0.  0.
         11    1    3    3    0    0  0.65484171467E+03 -0.22020684498E+03  0.33010824262E+03  0.76568934803E+03  0.00000000000E+00 0.  1.
        -11    1    3    3    0    0  0.13086655483E+04 -0.30992609099E+03  0.67074947239E+03  0.15028521397E+04  0.00000000000E+00 0. -1.
         22    1    1    2    0    0 -0.19635072630E+04  0.53013293597E+03  0.91044301687E+03  0.22282971499E+04  0.00000000000E+00 0. -1.
<mgrwt>
<rscale>  0 0.40704407E+04</rscale>
<asrwt>0</asrwt>
<pdfrwt beam="1">  1        2 0.49293380E+00 0.40704407E+04</pdfrwt>
<pdfrwt beam="2">  1       -2 0.19888753E+00 0.40704407E+04</pdfrwt>
<totfact> 0.13660899E-01</totfact>
</mgrwt>
</event>
<event>
 6    1  0.5026615E-004  0.2215529E+04  0.7818608E-02  0.8511992E-01
          2   -1    0    0  501    0  0.00000000000E+00  0.00000000000E+00  0.15997559613E+04  0.15997559613E+04  0.00000000000E+00 0.  1.
         -2   -1    0    0    0  501 -0.00000000000E+00 -0.00000000000E+00 -0.76708090967E+03  0.76708090967E+03  0.00000000000E+00 0. -1.
         23    2    1    2    0    0  0.56511604252E+03  0.45254355000E+03  0.13100918493E+04  0.14996122144E+04  0.91347325161E+02 0.  0.
         11    1    3    3    0    0  0.28124816921E+03  0.20480015292E+03  0.71719875330E+03  0.79713090961E+03  0.00000000000E+00 0.  1.
        -11    1    3    3    0    0  0.28386787330E+03  0.24774339709E+03  0.59289309599E+03  0.70248130478E+03  0.00000000000E+00 0. -1.
         22    1    1    2    0    0 -0.56511604252E+03 -0.45254355000E+03 -0.47741679771E+03  0.86722465653E+03  0.00000000000E+00 0. -1.
<mgrwt>
<rscale>  0 0.22155291E+04</rscale>
<asrwt>0</asrwt>
<pdfrwt beam="1">  1        2 0.24611630E+00 0.22155291E+04</pdfrwt>
<pdfrwt beam="2">  1       -2 0.11801245E+00 0.22155291E+04</pdfrwt>
<totfact> 0.56368432E+00</totfact>
</mgrwt>
</event>
<event>
 6    1  0.5026615E-004  0.1913938E+04  0.7818608E-02  0.8647950E-01
         -2   -1    0    0    0  501 -0.00000000000E+00  0.00000000000E+00  0.24304333460E+03  0.24304333460E+03  0.00000000000E+00 0. -1.
          2   -1    0    0  501    0  0.00000000000E+00 -0.00000000000E+00 -0.37680079211E+04  0.37680079211E+04  0.00000000000E+00 0.  1.
         23    2    1    2    0    0 -0.53510987198E+03 -0.77302776738E+03 -0.21143816295E+04  0.23158643095E+04  0.93291587576E+02 0.  0.
         13    1    3    3    0    0 -0.14792753039E+03 -0.24825634107E+03 -0.74627352192E+03  0.80027366234E+03  0.00000000000E+00 0. -1.
        -13    1    3    3    0    0 -0.38718234159E+03 -0.52477142631E+03 -0.13681081076E+04  0.15155906471E+04  0.00000000000E+00 0.  1.
         22    1    1    2    0    0  0.53510987198E+03  0.77302776738E+03 -0.14105829570E+04  0.16951869463E+04  0.00000000000E+00 0. -1.
<mgrwt>
<rscale>  0 0.19139375E+04</rscale>
<asrwt>0</asrwt>
<pdfrwt beam="1">  1        2 0.57969349E+00 0.19139375E+04</pdfrwt>
<pdfrwt beam="2">  1       -2 0.37391285E-01 0.19139375E+04</pdfrwt>
<totfact> 0.33077455E+00</totfact>
</mgrwt>
</event>
<event>
 6    1  0.5026615E-004  0.1560335E+04  0.7818608E-02  0.8845293E-01
          2   -1    0    0  501    0  0.00000000000E+00  0.00000000000E+00  0.12140860694E+04  0.12140860694E+04  0.00000000000E+00 0.  1.
         -2   -1    0    0    0  501 -0.00000000000E+00 -0.00000000000E+00 -0.50133310682E+03  0.50133310682E+03  0.00000000000E+00 0. -1.
         23    2    1    2    0    0 -0.74634786064E+03  0.72717788565E+02  0.13248542667E+03  0.76724544789E+03  0.93755976777E+02 0.  0.
         13    1    3    3    0    0 -0.34034377260E+03  0.19205209062E+02  0.10551900336E+03  0.35684307990E+03  0.00000000000E+00 0. -1.
        -13    1    3    3    0    0 -0.40600408804E+03  0.53512579503E+02  0.26966423309E+02  0.41040236800E+03  0.00000000000E+00 0.  1.
         22    1    1    2    0    0  0.74634786064E+03 -0.72717788565E+02  0.58026753593E+03  0.94817372834E+03  0.00000000000E+00 0. -1.
<mgrwt>
<rscale>  0 0.15603353E+04</rscale>
<asrwt>0</asrwt>
<pdfrwt beam="1">  1        2 0.18678247E+00 0.15603353E+04</pdfrwt>
<pdfrwt beam="2">  1       -2 0.77128170E-01 0.15603353E+04</pdfrwt>
<totfact> 0.26811962E+01</totfact>
</mgrwt>
</event>
<event>
 6    1  0.5026615E-004  0.4132466E+04  0.7818608E-02  0.7978344E-01
          2   -1    0    0  501    0  0.00000000000E+00  0.00000000000E+00  0.23630053114E+04  0.23630053114E+04  0.00000000000E+00 0.  1.
         -2   -1    0    0    0  501 -0.00000000000E+00 -0.00000000000E+00 -0.18067328457E+04  0.18067328457E+04  0.00000000000E+00 0. -1.
         23    2    1    2    0    0 -0.11401393335E+04  0.65608252999E+03  0.18847546575E+04  0.23001855583E+04  0.90506892924E+02 0.  0.
         13    1    3    3    0    0 -0.29054575395E+03  0.17760862068E+03  0.42250194461E+03  0.54265048648E+03  0.00000000000E+00 0.  1.
        -13    1    3    3    0    0 -0.84959357955E+03  0.47847390931E+03  0.14622527129E+04  0.17575350718E+04  0.00000000000E+00 0. -1.
         22    1    1    2    0    0  0.11401393335E+04 -0.65608252999E+03 -0.13284821918E+04  0.18695525988E+04  0.00000000000E+00 0. -1.
<mgrwt>
<rscale>  0 0.41324662E+04</rscale>
<asrwt>0</asrwt>
<pdfrwt beam="1">  1        2 0.36353928E+00 0.41324662E+04</pdfrwt>
<pdfrwt beam="2">  1       -2 0.27795890E+00 0.41324662E+04</pdfrwt>
<totfact> 0.14119655E-01</totfact>
</mgrwt>
</event>
<event>
 6    1  0.5026615E-004  0.1700382E+04  0.7818608E-02  0.8761146E-01
          2   -1    0    0  501    0  0.00000000000E+00  0.00000000000E+00  0.13988637763E+04  0.13988637763E+04  0.00000000000E+00 0.  1.
         -2   -1    0    0    0  501 -0.00000000000E+00 -0.00000000000E+00 -0.51672302216E+03  0.51672302216E+03  0.00000000000E+00 0. -1.
         23    2    1    2    0    0 -0.73865241223E+03  0.41035509623E+03  0.51556225116E+03  0.99451215979E+03  0.96183730746E+02 0.  0.
         13    1    3    3    0    0 -0.40930125788E+03  0.17420267805E+03  0.28391866681E+03  0.52771573987E+03  0.00000000000E+00 0.  1.
        -13    1    3    3    0    0 -0.32935115435E+03  0.23615241818E+03  0.23164358434E+03  0.46679641992E+03  0.00000000000E+00 0. -1.
         22    1    1    2    0    0  0.73865241223E+03 -0.41035509623E+03  0.36657850294E+03  0.92107463862E+03  0.00000000000E+00 0. -1.
<mgrwt>
<rscale>  0 0.17003824E+04</rscale>
<asrwt>0</asrwt>
<pdfrwt beam="1">  1        2 0.21520981E+00 0.17003824E+04</pdfrwt>
<pdfrwt beam="2">  1       -2 0.79495850E-01 0.17003824E+04</pdfrwt>
<totfact> 0.19335151E+01</totfact>
</mgrwt>
</event>
<event>
 6    1  0.5026615E-004  0.1438781E+04  0.7818608E-02  0.8926216E-01
         -2   -1    0    0    0  501 -0.00000000000E+00  0.00000000000E+00  0.10686439329E+04  0.10686439329E+04  0.00000000000E+00 0. -1.
          2   -1    0    0  501    0  0.00000000000E+00 -0.00000000000E+00 -0.48427958818E+03  0.48427958818E+03  0.00000000000E+00 0.  1.
         23    2    1    2    0    0 -0.60649349076E+03  0.11000191362E+03  0.68845484872E+03  0.92780784507E+03  0.83201822786E+02 0.  0.
         13    1    3    3    0    0 -0.11121216487E+03 -0.12061651179E+02  0.12614887987E+03  0.16860358519E+03  0.00000000000E+00 0.  1.
        -13    1    3    3    0    0 -0.49528132589E+03  0.12206356480E+03  0.56230596885E+03  0.75920425989E+03  0.00000000000E+00 0. -1.
         22    1    1    2    0    0  0.60649349076E+03 -0.11000191362E+03 -0.10409050403E+03  0.62511567599E+03  0.00000000000E+00 0.  1.
<mgrwt>
<rscale>  0 0.14387807E+04</rscale>
<asrwt>0</asrwt>
<pdfrwt beam="1">  1        2 0.74504552E-01 0.14387807E+04</pdfrwt>
<pdfrwt beam="2">  1       -2 0.16440676E+00 0.14387807E+04</pdfrwt>
<totfact> 0.14488302E+01</totfact>
</mgrwt>
</event>
<event>
 6    1  0.5026615E-004  0.3462125E+04  0.7818608E-02  0.8122825E-01
         -2   -1    0    0    0  501 -0.00000000000E+00  0.00000000000E+00  0.70471601635E+03  0.70471601635E+03  0.00000000000E+00 0. -1.
          2   -1    0    0  501    0  0.00000000000E+00 -0.00000000000E+00 -0.42521760917E+04  0.42521760917E+04  0.00000000000E+00 0.  1.
         23    2    1    2    0    0 -0.13928273636E+04  0.67380802266E+01 -0.32437107809E+04  0.35313125416E+04  0.92169245593E+02 0.  0.
         11    1    3    3    0    0 -0.10561884558E+03 -0.53241539511E+00 -0.18994612817E+03  0.21733650318E+03  0.00000000000E+00 0.  1.
        -11    1    3    3    0    0 -0.12872085180E+04  0.72704956217E+01 -0.30537646527E+04  0.33139760384E+04  0.00000000000E+00 0. -1.
         22    1    1    2    0    0  0.13928273636E+04 -0.67380802266E+01 -0.30374929445E+03  0.14255795665E+04  0.00000000000E+00 0. -1.
<mgrwt>
<rscale>  0 0.34621245E+04</rscale>
<asrwt>0</asrwt>
<pdfrwt beam="1">  1        2 0.65418094E+00 0.34621245E+04</pdfrwt>
<pdfrwt beam="2">  1       -2 0.10841785E+00 0.34621245E+04</pdfrwt>
<totfact> 0.11698040E-01</totfact>
</mgrwt>
</event>
<event>
 6    1  0.5026615E-004  0.2817098E+04  0.7818608E-02  0.8297980E-01
         -2   -1    0    0    0  501 -0.00000000000E+00  0.00000000000E+00  0.68791686360E+03  0.68791686360E+03  0.00000000000E+00 0. -1.
          2   -1    0    0  501    0  0.00000000000E+00 -0.00000000000E+00 -0.28840835133E+04  0.28840835133E+04  0.00000000000E+00 0.  1.
         23    2    1    2    0    0  0.79897440037E+03 -0.81812274373E+03 -0.59637617941E+02  0.11486883417E+04  0.90792866989E+02 0.  0.
         13    1    3    3    0    0  0.50029400478E+02 -0.67850433425E+02  0.16310435095E+02  0.85864151549E+02  0.00000000000E+00 0.  1.
        -13    1    3    3    0    0  0.74894499989E+03 -0.75027231031E+03 -0.75948053036E+02  0.10628241902E+04  0.00000000000E+00 0. -1.
         22    1    1    2    0    0 -0.79897440037E+03  0.81812274373E+03 -0.21365290318E+04  0.24233120352E+04  0.00000000000E+00 0.  1.
<mgrwt>
<rscale>  0 0.28170976E+04</rscale>
<asrwt>0</asrwt>
<pdfrwt beam="1">  1        2 0.44370515E+00 0.28170976E+04</pdfrwt>
<pdfrwt beam="2">  1       -2 0.10583336E+00 0.28170976E+04</pdfrwt>
<totfact> 0.12872862E+00</totfact>
</mgrwt>
</event>
<event>
 6    1  0.5026615E-004  0.2414185E+04  0.7818608E-02  0.8434212E-01
         -2   -1    0    0    0  501 -0.00000000000E+00  0.00000000000E+00  0.98055351786E+03  0.98055351786E+03  0.00000000000E+00 0. -1.
          2   -1    0    0  501    0  0.00000000000E+00 -0.00000000000E+00 -0.14859695141E+04  0.14859695141E+04  0.00000000000E+00 0.  1.
         23    2    1    2    0    0  0.96800943652E+03  0.71723940704E+03 -0.29284307655E+03  0.12431417004E+04  0.90385748504E+02 0.  0.
         11    1    3    3    0    0  0.81493609337E+03  0.56088669877E+03 -0.23554243451E+03  0.10169537667E+04  0.00000000000E+00 0. -1.
        -11    1    3    3    0    0  0.15307334315E+03  0.15635270828E+03 -0.57300642035E+02  0.22618793368E+03  0.00000000000E+00 0.  1.
         22    1    1    2    0    0 -0.96800943652E+03 -0.71723940704E+03 -0.21257291966E+03  0.12233813315E+04  0.00000000000E+00 0.  1.
<mgrwt>
<rscale>  0 0.24141853E+04</rscale>
<asrwt>0</asrwt>
<pdfrwt beam="1">  1        2 0.22861069E+00 0.24141853E+04</pdfrwt>
<pdfrwt beam="2">  1       -2 0.15085439E+00 0.24141853E+04</pdfrwt>
<totfact> 0.34275574E+00</totfact>
</mgrwt>
</event>
<event>
 6    1  0.5026615E-004  0.2351660E+04  0.7818608E-02  0.8457826E-01
          1   -1    0    0  501    0  0.00000000000E+00  0.00000000000E+00  0.27813409228E+04  0.27813409228E+04  0.00000000000E+00 0. -1.
         -1   -1    0    0    0  501 -0.00000000000E+00 -0.00000000000E+00 -0.49709000102E+03  0.49709000102E+03  0.00000000000E+00 0.  1.
         23    2    1    2    0    0  0.51877897032E+02  0.11728496216E+04  0.11337574054E+04  0.16346843246E+04  0.92300790143E+02 0.  0.
         11    1    3    3    0    0  0.60561251446E+02  0.38946650219E+03  0.38593009771E+03  0.55162837293E+03  0.00000000000E+00 0.  1.
        -11    1    3    3    0    0 -0.86833544138E+01  0.78338311939E+03  0.74782730769E+03  0.10830559517E+04  0.00000000000E+00 0. -1.
         22    1    1    2    0    0 -0.51877897032E+02 -0.11728496216E+04  0.11504935164E+04  0.16437465991E+04  0.00000000000E+00 0. -1.
<mgrwt>
<rscale>  0 0.23516605E+04</rscale>
<asrwt>0</asrwt>
<pdfrwt beam="1">  1        1 0.42789859E+00 0.23516605E+04</pdfrwt>
<pdfrwt beam="2">  1       -1 0.76475386E-01 0.23516605E+04</pdfrwt>
<totfact> 0.13271803E+00</totfact>
</mgrwt>
</event>
<event>
 6    1  0.5026615E-004  0.2709361E+04  0.7818608E-02  0.8331974E-01
         -2   -1    0    0    0  501 -0.00000000000E+00  0.00000000000E+00  0.10724048607E+04  0.10724048607E+04  0.00000000000E+00 0. -1.
          2   -1    0    0  501    0  0.00000000000E+00 -0.00000000000E+00 -0.17112557427E+04  0.17112557427E+04  0.00000000000E+00 0.  1.
         23    2    1    2    0    0 -0.45575962263E+03  0.10997157402E+04 -0.98079584794E+03  0.15451058397E+04  0.91104432067E+02 0.  0.
         11    1    3    3    0    0 -0.57331779789E+02  0.18419508440E+03 -0.19728867449E+03  0.27593039552E+03  0.00000000000E+00 0. -1.
        -11    1    3    3    0    0 -0.39842784284E+03  0.91552065583E+03 -0.78350717345E+03  0.12691754442E+04  0.00000000000E+00 0.  1.
         22    1    1    2    0    0  0.45575962263E+03 -0.10997157402E+04  0.34194496597E+03  0.12385547637E+04  0.00000000000E+00 0. -1.
<mgrwt>
<rscale>  0 0.27093608E+04</rscale>
<asrwt>0</asrwt>
<pdfrwt beam="1">  1        2 0.26327011E+00 0.27093608E+04</pdfrwt>
<pdfrwt beam="2">  1       -2 0.16498536E+00 0.27093608E+04</pdfrwt>
<totfact> 0.19626500E+00</totfact>
</mgrwt>
</event>
<event>
 6    1  0.5026615E-004  0.4248110E+03  0.7818608E-02  0.1035512E+00
         -1   -1    0    0    0  501 -0.00000000000E+00  0.00000000000E+00  0.67700768281E+02  0.67700768281E+02  0.00000000000E+00 0. -1.
          1   -1    0    0  501    0  0.00000000000E+00 -0.00000000000E+00 -0.66640444341E+03  0.66640444341E+03  0.00000000000E+00 0.  1.
         23    2    1    2    0    0  0.12212444076E+03 -0.40508020713E+02 -0.42799758161E+02  0.16350513837E+03  0.91360999348E+02 0.  0.
         13    1    3    3    0    0  0.13081483527E+03 -0.23481475504E+02 -0.51458089742E+02  0.14251959801E+03  0.00000000000E+00 0. -1.
        -13    1    3    3    0    0 -0.86903945049E+01 -0.17026545209E+02  0.86583315816E+01  0.20985540360E+02  0.00000000000E+00 0.  1.
         22    1    1    2    0    0 -0.12212444076E+03  0.40508020713E+02 -0.55590391697E+03  0.57060007332E+03  0.00000000000E+00 0.  1.
<mgrwt>
<rscale>  0 0.42481098E+03</rscale>
<asrwt>0</asrwt>
<pdfrwt beam="1">  1        1 0.10252376E+00 0.42481098E+03</pdfrwt>
<pdfrwt beam="2">  1       -1 0.10415503E-01 0.42481098E+03</pdfrwt>
<totfact> 0.17374056E+03</totfact>
</mgrwt>
</event>
<event>
 6    1  0.5026615E-004  0.2663714E+04  0.7818608E-02  0.8346875E-01
          2   -1    0    0  501    0  0.00000000000E+00  0.00000000000E+00  0.23729391326E+04  0.23729391326E+04  0.00000000000E+00 0. -1.
         -2   -1    0    0    0  501 -0.00000000000E+00 -0.00000000000E+00 -0.74753001572E+03  0.74753001572E+03  0.00000000000E+00 0.  1.
         23    2    1    2    0    0  0.90076609421E+03  0.78681885031E+03  0.13098730487E+03  0.12063740587E+04  0.87847799632E+02 0.  0.
         13    1    3    3    0    0  0.36653016120E+03  0.37342389907E+03  0.40078141382E+02  0.52478188315E+03  0.00000000000E+00 0. -1.
        -13    1    3    3    0    0  0.53423593300E+03  0.41339495124E+03  0.90909163483E+02  0.68159217559E+03  0.00000000000E+00 0.  1.
         22    1    1    2    0    0 -0.90076609421E+03 -0.78681885031E+03  0.14944218120E+04  0.19140950895E+04  0.00000000000E+00 0. -1.
<mgrwt>
<rscale>  0 0.26637141E+04</rscale>
<asrwt>0</asrwt>
<pdfrwt beam="1">  1        2 0.36506756E+00 0.26637141E+04</pdfrwt>
<pdfrwt beam="2">  1       -2 0.11500462E+00 0.26637141E+04</pdfrwt>
<totfact> 0.21369866E+00</totfact>
</mgrwt>
</event>
<event>
 6    1  0.5026615E-004  0.3369646E+04  0.7818608E-02  0.8145397E-01
         -2   -1    0    0    0  501 -0.00000000000E+00  0.00000000000E+00  0.91814681449E+03  0.91814681449E+03  0.00000000000E+00 0. -1.
          2   -1    0    0  501    0  0.00000000000E+00 -0.00000000000E+00 -0.30916929128E+04  0.30916929128E+04  0.00000000000E+00 0.  1.
         23    2    1    2    0    0  0.24853711004E+03  0.15326721594E+04 -0.31301794629E+03  0.15865321431E+04  0.90826005519E+02 0.  0.
         13    1    3    3    0    0  0.16525232876E+03  0.79264199659E+03 -0.19088708158E+03  0.83188192963E+03  0.00000000000E+00 0. -1.
        -13    1    3    3    0    0  0.83284781281E+02  0.74003016276E+03 -0.12213086471E+03  0.75465021348E+03  0.00000000000E+00 0.  1.
         22    1    1    2    0    0 -0.24853711004E+03 -0.15326721594E+04 -0.18605281520E+04  0.24233075842E+04  0.00000000000E+00 0.  1.
<mgrwt>
<rscale>  0 0.33696457E+04</rscale>
<asrwt>0</asrwt>
<pdfrwt beam="1">  1        2 0.47564506E+00 0.33696457E+04</pdfrwt>
<pdfrwt beam="2">  1       -2 0.14125336E+00 0.33696457E+04</pdfrwt>
<totfact> 0.44357969E-01</totfact>
</mgrwt>
</event>
<event>
 6    1  0.5026615E-004  0.6252333E+04  0.7818608E-02  0.7659879E-01
         -1   -1    0    0    0  501 -0.00000000000E+00  0.00000000000E+00  0.48228012654E+04  0.48228012654E+04  0.00000000000E+00 0.  1.
          1   -1    0    0  501    0  0.00000000000E+00 -0.00000000000E+00 -0.20263985143E+04  0.20263985143E+04  0.00000000000E+00 0. -1.
         23    2    1    2    0    0  0.93287329532E+03 -0.17700690519E+04  0.40288246958E+04  0.44992506561E+04  0.91820495555E+02 0.  0.
         13    1    3    3    0    0  0.20787155031E+03 -0.44128082383E+03  0.10571029619E+04  0.11642190597E+04  0.00000000000E+00 0.  1.
        -13    1    3    3    0    0  0.72500174500E+03 -0.13287882281E+04  0.29717217339E+04  0.33350315964E+04  0.00000000000E+00 0. -1.
         22    1    1    2    0    0 -0.93287329532E+03  0.17700690519E+04 -0.12324219447E+04  0.23499491236E+04  0.00000000000E+00 0. -1.
<mgrwt>
<rscale>  0 0.62523331E+04</rscale>
<asrwt>0</asrwt>
<pdfrwt beam="1">  1        1 0.31175362E+00 0.62523331E+04</pdfrwt>
<pdfrwt beam="2">  1       -1 0.74196942E+00 0.62523331E+04</pdfrwt>
<totfact> 0.26260513E-04</totfact>
</mgrwt>
</event>
<event>
 6    1  0.5026615E-004  0.2406898E+04  0.7818608E-02  0.8436925E-01
         -2   -1    0    0    0  501 -0.00000000000E+00  0.00000000000E+00  0.12671440834E+04  0.12671440834E+04  0.00000000000E+00 0. -1.
          2   -1    0    0  501    0  0.00000000000E+00 -0.00000000000E+00 -0.11429561155E+04  0.11429561155E+04  0.00000000000E+00 0.  1.
         23    2    1    2    0    0 -0.69975337931E+03 -0.88624186453E+03  0.47379986430E+03  0.12280224044E+04  0.92050420486E+02 0.  0.
         13    1    3    3    0    0 -0.42131077596E+03 -0.60294389396E+03  0.29786691463E+03  0.79357974270E+03  0.00000000000E+00 0. -1.
        -13    1    3    3    0    0 -0.27844260335E+03 -0.28329797057E+03  0.17593294967E+03  0.43444266165E+03  0.00000000000E+00 0.  1.
         22    1    1    2    0    0  0.69975337931E+03  0.88624186453E+03 -0.34961189640E+03  0.11820777946E+04  0.00000000000E+00 0.  1.
<mgrwt>
<rscale>  0 0.24068985E+04</rscale>
<asrwt>0</asrwt>
<pdfrwt beam="1">  1        2 0.17583940E+00 0.24068985E+04</pdfrwt>
<pdfrwt beam="2">  1       -2 0.19494524E+00 0.24068985E+04</pdfrwt>
<totfact> 0.26466531E+00</totfact>
</mgrwt>
</event>
<event>
 6    1  0.5026615E-004  0.2971886E+04  0.7818608E-02  0.8251805E-01
         -2   -1    0    0    0  501 -0.00000000000E+00  0.00000000000E+00  0.14422563227E+04  0.14422563227E+04  0.00000000000E+00 0. -1.
          2   -1    0    0  501    0  0.00000000000E+00 -0.00000000000E+00 -0.15309531769E+04  0.15309531769E+04  0.00000000000E+00 0.  1.
         23    2    1    2    0    0 -0.12866599082E+04 -0.74029159085E+03 -0.38662642365E+02  0.14879388908E+04  0.94562064923E+02 0.  0.
         13    1    3    3    0    0 -0.32996649519E+03 -0.23377641809E+03  0.73627238756E+01  0.40445458497E+03  0.00000000000E+00 0.  1.
        -13    1    3    3    0    0 -0.95669341301E+03 -0.50651517276E+03 -0.46025366241E+02  0.10834843059E+04  0.00000000000E+00 0. -1.
         22    1    1    2    0    0  0.12866599082E+04  0.74029159085E+03 -0.50034211757E+02  0.14852706087E+04  0.00000000000E+00 0.  1.
<mgrwt>
<rscale>  0 0.29718862E+04</rscale>
<asrwt>0</asrwt>
<pdfrwt beam="1">  1        2 0.23553126E+00 0.29718862E+04</pdfrwt>
<pdfrwt beam="2">  1       -2 0.22188559E+00 0.29718862E+04</pdfrwt>
<totfact> 0.10060410E+00</totfact>
</mgrwt>
</event>
<event>
 6    1  0.5026615E-004  0.2384769E+04  0.7818608E-02  0.8445228E-01
          2   -1    0    0  501    0  0.00000000000E+00  0.00000000000E+00  0.22241350140E+04  0.22241350140E+04  0.00000000000E+00 0.  1.
         -2   -1    0    0    0  501 -0.00000000000E+00 -0.00000000000E+00 -0.63925126310E+03  0.63925126310E+03  0.00000000000E+00 0. -1.
         23    2    1    2    0    0  0.40413793582E+01 -0.93862368252E+03 -0.86038197628E+02  0.94687619150E+03  0.90228600985E+02 0.  0.
         13    1    3    3    0    0  0.40990597942E+02 -0.51542990282E+03 -0.24490515980E+02  0.51763693765E+03  0.00000000000E+00 0. -1.
        -13    1    3    3    0    0 -0.36949218584E+02 -0.42319377970E+03 -0.61547681648E+02  0.42923925385E+03  0.00000000000E+00 0.  1.
         22    1    1    2    0    0 -0.40413793582E+01  0.93862368252E+03  0.16709219485E+04  0.19165100856E+04  0.00000000000E+00 0.  1.
<mgrwt>
<rscale>  0 0.23847693E+04</rscale>
<asrwt>0</asrwt>
<pdfrwt beam="1">  1        2 0.34217461E+00 0.23847693E+04</pdfrwt>
<pdfrwt beam="2">  1       -2 0.98346349E-01 0.23847693E+04</pdfrwt>
<totfact> 0.38710749E+00</totfact>
</mgrwt>
</event>
<event>
 6    1  0.5026615E-004  0.5023794E+04  0.7818608E-02  0.7824847E-01
          2   -1    0    0  501    0  0.00000000000E+00  0.00000000000E+00  0.24330647876E+04  0.24330647876E+04  0.00000000000E+00 0.  1.
         -2   -1    0    0    0  501 -0.00000000000E+00 -0.00000000000E+00 -0.25932836578E+04  0.25932836578E+04  0.00000000000E+00 0. -1.
         23    2    1    2    0    0  0.36869917312E+03  0.17121584053E+04  0.17202585362E+04  0.24565973366E+04  0.90308128182E+02 0.  0.
         11    1    3    3    0    0  0.22074974329E+03  0.10625007269E+04  0.10048947594E+04  0.14790036245E+04  0.00000000000E+00 0. -1.
        -11    1    3    3    0    0  0.14794942983E+03  0.64965767836E+03  0.71536377674E+03  0.97759371209E+03  0.00000000000E+00 0.  1.
         22    1    1    2    0    0 -0.36869917312E+03 -0.17121584053E+04 -0.18804774063E+04  0.25697511087E+04  0.00000000000E+00 0. -1.
<mgrwt>
<rscale>  0 0.50237942E+04</rscale>
<asrwt>0</asrwt>
<pdfrwt beam="1">  1        2 0.37431766E+00 0.50237942E+04</pdfrwt>
<pdfrwt beam="2">  1       -2 0.39896671E+00 0.50237942E+04</pdfrwt>
<totfact> 0.20860830E-02</totfact>
</mgrwt>
</event>
<event>
 6    1  0.5026615E-004  0.9564706E+03  0.7818608E-02  0.9357619E-01
          2   -1    0    0  501    0  0.00000000000E+00  0.00000000000E+00  0.24784629387E+04  0.24784629387E+04  0.00000000000E+00 0.  1.
         -2   -1    0    0    0  501 -0.00000000000E+00 -0.00000000000E+00 -0.92278559270E+02  0.92278559270E+02  0.00000000000E+00 0. -1.
         23    2    1    2    0    0 -0.74419045777E+02  0.35069154172E+03  0.37180065389E+03  0.52470519685E+03  0.92504408306E+02 0.  0.
         11    1    3    3    0    0 -0.51441150393E+02  0.12515750330E+03  0.87745203806E+02  0.16127558209E+03  0.00000000000E+00 0. -1.
        -11    1    3    3    0    0 -0.22977895384E+02  0.22553403842E+03  0.28405545009E+03  0.36342961476E+03  0.00000000000E+00 0.  1.
         22    1    1    2    0    0  0.74419045777E+02 -0.35069154172E+03  0.20143837255E+04  0.20460363011E+04  0.00000000000E+00 0.  1.
<mgrwt>
<rscale>  0 0.95647057E+03</rscale>
<asrwt>0</asrwt>
<pdfrwt beam="1">  1        2 0.38130194E+00 0.95647057E+03</pdfrwt>
<pdfrwt beam="2">  1       -2 0.14196703E-01 0.95647057E+03</pdfrwt>
<totfact> 0.14006601E+02</totfact>
</mgrwt>
</event>
<event>
 6    1  0.5026615E-004  0.1496939E+04  0.7818608E-02  0.8886491E-01
         -2   -1    0    0    0  501 -0.00000000000E+00  0.00000000000E+00  0.25086906947E+03  0.25086906947E+03  0.00000000000E+00 0. -1.
          2   -1    0    0  501    0  0.00000000000E+00 -0.00000000000E+00 -0.22330622315E+04  0.22330622315E+04  0.00000000000E+00 0.  1.
         23    2    1    2    0    0  0.19243686544E+02  0.59660539809E+03 -0.25327091760E+03  0.65486584348E+03  0.91623112584E+02 0.  0.
         13    1    3    3    0    0 -0.88799579862E+01  0.48878551955E+03 -0.17739089963E+03  0.52005544805E+03  0.00000000000E+00 0. -1.
        -13    1    3    3    0    0  0.28123644530E+02  0.10781987853E+03 -0.75880017966E+02  0.13481039543E+03  0.00000000000E+00 0.  1.
         22    1    1    2    0    0 -0.19243686544E+02 -0.59660539809E+03 -0.17289222444E+04  0.18290654575E+04  0.00000000000E+00 0.  1.
<mgrwt>
<rscale>  0 0.14969385E+04</rscale>
<asrwt>0</asrwt>
<pdfrwt beam="1">  1        2 0.34354804E+00 0.14969385E+04</pdfrwt>
<pdfrwt beam="2">  1       -2 0.38595241E-01 0.14969385E+04</pdfrwt>
<totfact> 0.30358752E+01</totfact>
</mgrwt>
</event>
<event>
 6    1  0.5026615E-004  0.9909738E+03  0.7818608E-02  0.9318500E-01
          2   -1    0    0  501    0  0.00000000000E+00  0.00000000000E+00  0.29326474561E+04  0.29326474561E+04  0.00000000000E+00 0.  1.
         -2   -1    0    0    0  501 -0.00000000000E+00 -0.00000000000E+00 -0.83715233429E+02  0.83715233429E+02  0.00000000000E+00 0. -1.
         23    2    1    2    0    0  0.38276828313E+03 -0.20049133775E+03  0.72335653576E+03  0.84731212860E+03  0.89357877998E+02 0.  0.
         11    1    3    3    0    0  0.29436755267E+03 -0.15475623892E+03  0.47589004812E+03  0.58057995785E+03  0.00000000000E+00 0. -1.
        -11    1    3    3    0    0  0.88400730455E+02 -0.45735098836E+02  0.24746648764E+03  0.26673217075E+03  0.00000000000E+00 0.  1.
         22    1    1    2    0    0 -0.38276828313E+03  0.20049133775E+03  0.21255756869E+04  0.21690505609E+04  0.00000000000E+00 0.  1.
<mgrwt>
<rscale>  0 0.99097380E+03</rscale>
<asrwt>0</asrwt>
<pdfrwt beam="1">  1        2 0.45117645E+00 0.99097380E+03</pdfrwt>
<pdfrwt beam="2">  1       -2 0.12879269E-01 0.99097380E+03</pdfrwt>
<totfact> 0.88937138E+01</totfact>
</mgrwt>
</event>
<event>
 6    1  0.5026615E-004  0.3702960E+04  0.7818608E-02  0.8067306E-01
          2   -1    0    0  501    0  0.00000000000E+00  0.00000000000E+00  0.21037793106E+04  0.21037793106E+04  0.00000000000E+00 0.  1.
         -2   -1    0    0    0  501 -0.00000000000E+00 -0.00000000000E+00 -0.16294380677E+04  0.16294380677E+04  0.00000000000E+00 0. -1.
         23    2    1    2    0    0  0.80187038188E+03  0.16675769577E+04  0.23971540505E+03  0.18680475997E+04  0.91265220486E+02 0.  0.
         13    1    3    3    0    0  0.42418588016E+03  0.83774241586E+03  0.79902966115E+02  0.94240675945E+03  0.00000000000E+00 0. -1.
        -13    1    3    3    0    0  0.37768450172E+03  0.82983454179E+03  0.15981243894E+03  0.92564084030E+03  0.00000000000E+00 0.  1.
         22    1    1    2    0    0 -0.80187038188E+03 -0.16675769577E+04  0.23462583785E+03  0.18651697785E+04  0.00000000000E+00 0. -1.
<mgrwt>
<rscale>  0 0.37029599E+04</rscale>
<asrwt>0</asrwt>
<pdfrwt beam="1">  1        2 0.32365835E+00 0.37029599E+04</pdfrwt>
<pdfrwt beam="2">  1       -2 0.25068278E+00 0.37029599E+04</pdfrwt>
<totfact> 0.30078715E-01</totfact>
</mgrwt>
</event>
<event>
 6    1  0.5026615E-004  0.1560777E+04  0.7818608E-02  0.8845013E-01
         -2   -1    0    0    0  501 -0.00000000000E+00  0.00000000000E+00  0.83196254005E+03  0.83196254005E+03  0.00000000000E+00 0. -1.
          2   -1    0    0  501    0  0.00000000000E+00 -0.00000000000E+00 -0.73201195549E+03  0.73201195549E+03  0.00000000000E+00 0.  1.
         23    2    1    2    0    0  0.13060581432E+03 -0.50653418826E+03  0.62671756369E+03  0.82160113064E+03  0.92837226475E+02 0.  0.
         11    1    3    3    0    0  0.92421857458E+02 -0.43675554324E+03  0.56947910076E+03  0.72360462304E+03  0.00000000000E+00 0.  1.
        -11    1    3    3    0    0  0.38183956867E+02 -0.69778645019E+02  0.57238462937E+02  0.97996507601E+02  0.00000000000E+00 0. -1.
         22    1    1    2    0    0 -0.13060581432E+03  0.50653418826E+03 -0.52676697913E+03  0.74237336490E+03  0.00000000000E+00 0.  1.
<mgrwt>
<rscale>  0 0.15607774E+04</rscale>
<asrwt>0</asrwt>
<pdfrwt beam="1">  1        2 0.11261722E+00 0.15607774E+04</pdfrwt>
<pdfrwt beam="2">  1       -2 0.12799424E+00 0.15607774E+04</pdfrwt>
<totfact> 0.16808634E+01</totfact>
</mgrwt>
</event>
<event>
 6    1  0.5026615E-004  0.9013345E+03  0.7818608E-02  0.9423915E-01
         -2   -1    0    0    0  501 -0.00000000000E+00  0.00000000000E+00  0.23803731726E+03  0.23803731726E+03  0.00000000000E+00 0. -1.
          2   -1    0    0  501    0  0.00000000000E+00 -0.00000000000E+00 -0.85323156892E+03  0.85323156892E+03  0.00000000000E+00 0.  1.
         23    2    1    2    0    0 -0.30942811124E+03 -0.15718766903E+03 -0.65006981190E+03  0.74245658132E+03  0.90538916945E+02 0.  0.
         11    1    3    3    0    0 -0.21284366017E+03 -0.60129593995E+02 -0.42175288363E+03  0.47622839751E+03  0.00000000000E+00 0.  1.
        -11    1    3    3    0    0 -0.96584451071E+02 -0.97058075038E+02 -0.22831692827E+03  0.26622818380E+03  0.00000000000E+00 0. -1.
         22    1    1    2    0    0  0.30942811124E+03  0.15718766903E+03  0.34875560245E+02  0.34881230486E+03  0.00000000000E+00 0. -1.
<mgrwt>
<rscale>  0 0.90133446E+03</rscale>
<asrwt>0</asrwt>
<pdfrwt beam="1">  1        2 0.13126639E+00 0.90133446E+03</pdfrwt>
<pdfrwt beam="2">  1       -2 0.36621126E-01 0.90133446E+03</pdfrwt>
<totfact> 0.22210940E+02</totfact>
</mgrwt>
</event>
<event>
 6    1  0.5026615E-004  0.4456052E+04  0.7818608E-02  0.7918376E-01
         -2   -1    0    0    0  501 -0.00000000000E+00  0.00000000000E+00  0.12281382505E+04  0.12281382505E+04  0.00000000000E+00 0. -1.
          2   -1    0    0  501    0  0.00000000000E+00 -0.00000000000E+00 -0.40419713443E+04  0.40419713443E+04  0.00000000000E+00 0.  1.
         23    2    1    2    0    0  0.57977999607E+03 -0.21001027912E+04 -0.19540460830E+04  0.29279289269E+04  0.88854536337E+02 0.  0.
         13    1    3    3    0    0  0.32854007951E+03 -0.13440731124E+04 -0.12564848745E+04  0.18690172164E+04  0.00000000000E+00 0.  1.
        -13    1    3    3    0    0  0.25123991656E+03 -0.75602967888E+03 -0.69756120853E+03  0.10589117105E+04  0.00000000000E+00 0. -1.
         22    1    1    2    0    0 -0.57977999607E+03  0.21001027912E+04 -0.85978701081E+03  0.23421806680E+04  0.00000000000E+00 0. -1.
<mgrwt>
<rscale>  0 0.44560519E+04</rscale>
<asrwt>0</asrwt>
<pdfrwt beam="1">  1        2 0.62184175E+00 0.44560519E+04</pdfrwt>
<pdfrwt beam="2">  1       -2 0.18894435E+00 0.44560519E+04</pdfrwt>
<totfact> 0.37712083E-02</totfact>
</mgrwt>
</event>
<event>
 6    1  0.5026615E-004  0.3760928E+04  0.7818608E-02  0.8054592E-01
          2   -1    0    0  501    0  0.00000000000E+00  0.00000000000E+00  0.22067165731E+04  0.22067165731E+04  0.00000000000E+00 0.  1.
         -2   -1    0    0    0  501 -0.00000000000E+00 -0.00000000000E+00 -0.16024462132E+04  0.16024462132E+04  0.00000000000E+00 0. -1.
         23    2    1    2    0    0 -0.32721043157E+03  0.16070467742E+04  0.12318327770E+04  0.20531728693E+04  0.91874044066E+02 0.  0.
         13    1    3    3    0    0 -0.24288416886E+03  0.11356545857E+04  0.92168514457E+03  0.14826353440E+04  0.00000000000E+00 0. -1.
        -13    1    3    3    0    0 -0.84326262714E+02  0.47139218843E+03  0.31014763242E+03  0.57053752532E+03  0.00000000000E+00 0.  1.
         22    1    1    2    0    0  0.32721043157E+03 -0.16070467742E+04 -0.62756241706E+03  0.17559899169E+04  0.00000000000E+00 0. -1.
<mgrwt>
<rscale>  0 0.37609279E+04</rscale>
<asrwt>0</asrwt>
<pdfrwt beam="1">  1        2 0.33949486E+00 0.37609279E+04</pdfrwt>
<pdfrwt beam="2">  1       -2 0.24653019E+00 0.37609279E+04</pdfrwt>
<totfact> 0.27797835E-01</totfact>
</mgrwt>
</event>
<event>
 6    1  0.5026615E-004  0.2934136E+04  0.7818608E-02  0.8262793E-01
         -2   -1    0    0    0  501 -0.00000000000E+00  0.00000000000E+00  0.20074102620E+04  0.20074102620E+04  0.00000000000E+00 0. -1.
          2   -1    0    0  501    0  0.00000000000E+00 -0.00000000000E+00 -0.10721714239E+04  0.10721714239E+04  0.00000000000E+00 0.  1.
         23    2    1    2    0    0  0.81461892157E+03  0.99722752312E+03  0.12028888672E+04  0.17643998512E+04  0.89991597289E+02 0.  0.
         11    1    3    3    0    0  0.53018699008E+03  0.57998594955E+03  0.73841828473E+03  0.10783058515E+04  0.00000000000E+00 0.  1.
        -11    1    3    3    0    0  0.28443193149E+03  0.41724157357E+03  0.46447058251E+03  0.68609399967E+03  0.00000000000E+00 0. -1.
         22    1    1    2    0    0 -0.81461892157E+03 -0.99722752312E+03 -0.26765002919E+03  0.13151818347E+04  0.00000000000E+00 0.  1.
<mgrwt>
<rscale>  0 0.29341356E+04</rscale>
<asrwt>0</asrwt>
<pdfrwt beam="1">  1        2 0.16494945E+00 0.29341356E+04</pdfrwt>
<pdfrwt beam="2">  1       -2 0.30883235E+00 0.29341356E+04</pdfrwt>
<totfact> 0.54736544E-01</totfact>
</mgrwt>
</event>
<event>
 6    1  0.5026615E-004  0.7135387E+03  0.7818608E-02  0.9694355E-01
          2   -1    0    0  501    0  0.00000000000E+00  0.00000000000E+00  0.55760169369E+03  0.55760169369E+03  0.00000000000E+00 0.  1.
         -2   -1    0    0    0  501 -0.00000000000E+00 -0.00000000000E+00 -0.22827111286E+03  0.22827111286E+03  0.00000000000E+00 0. -1.
         23    2    1    2    0    0  0.34998352906E+02 -0.22913752697E+03  0.45732638044E+03  0.52108644798E+03  0.93031054249E+02 0.  0.
         11    1    3    3    0    0 -0.12310793216E+02 -0.10307405233E+03  0.27863581501E+03  0.29734446909E+03  0.00000000000E+00 0. -1.
        -11    1    3    3    0    0  0.47309146122E+02 -0.12606347464E+03  0.17869056543E+03  0.22374197889E+03  0.00000000000E+00 0.  1.
         22    1    1    2    0    0 -0.34998352906E+02  0.22913752697E+03 -0.12799579961E+03  0.26478635858E+03  0.00000000000E+00 0. -1.
<mgrwt>
<rscale>  0 0.71353867E+03</rscale>
<asrwt>0</asrwt>
<pdfrwt beam="1">  1        2 0.85784875E-01 0.71353867E+03</pdfrwt>
<pdfrwt beam="2">  1       -2 0.35118633E-01 0.71353867E+03</pdfrwt>
<totfact> 0.41509056E+02</totfact>
</mgrwt>
</event>
<event>
 6    1  0.5026615E-004  0.4365259E+04  0.7818608E-02  0.7934660E-01
          2   -1    0    0  501    0  0.00000000000E+00  0.00000000000E+00  0.21279101637E+04  0.21279101637E+04  0.00000000000E+00 0.  1.
         -2   -1    0    0    0  501 -0.00000000000E+00 -0.00000000000E+00 -0.22387558442E+04  0.22387558442E+04  0.00000000000E+00 0. -1.
         23    2    1    2    0    0  0.15101122048E+04 -0.38999524179E+03  0.14705188677E+04  0.21455741606E+04  0.92344891178E+02 0.  0.
         11    1    3    3    0    0  0.10951358305E+04 -0.24568434684E+03  0.10280561148E+04  0.15220324111E+04  0.00000000000E+00 0. -1.
        -11    1    3    3    0    0  0.41497637427E+03 -0.14431089495E+03  0.44246275295E+03  0.62354174948E+03  0.00000000000E+00 0.  1.
         22    1    1    2    0    0 -0.15101122048E+04  0.38999524179E+03 -0.15813645482E+04  0.22210918473E+04  0.00000000000E+00 0. -1.
<mgrwt>
<rscale>  0 0.43652589E+04</rscale>
<asrwt>0</asrwt>
<pdfrwt beam="1">  1        2 0.32737079E+00 0.43652589E+04</pdfrwt>
<pdfrwt beam="2">  1       -2 0.34442398E+00 0.43652589E+04</pdfrwt>
<totfact> 0.73233192E-02</totfact>
</mgrwt>
</event>
<event>
 6    1  0.5026615E-004  0.2576599E+04  0.7818608E-02  0.8376194E-01
         -2   -1    0    0    0  501 -0.00000000000E+00  0.00000000000E+00  0.93312101374E+03  0.93312101374E+03  0.00000000000E+00 0. -1.
          2   -1    0    0  501    0  0.00000000000E+00 -0.00000000000E+00 -0.17786714662E+04  0.17786714662E+04  0.00000000000E+00 0.  1.
         23    2    1    2    0    0 -0.59198646355E+02 -0.78537059979E+03 -0.14942629771E+04  0.16914300941E+04  0.88331532105E+02 0.  0.
         13    1    3    3    0    0 -0.26168598165E+02 -0.26416541232E+03 -0.41835310725E+03  0.49546693426E+03  0.00000000000E+00 0. -1.
        -13    1    3    3    0    0 -0.33030048190E+02 -0.52120518747E+03 -0.10759098699E+04  0.11959631598E+04  0.00000000000E+00 0.  1.
         22    1    1    2    0    0  0.59198646355E+02  0.78537059979E+03  0.64871252470E+03  0.10203623858E+04  0.00000000000E+00 0. -1.
<mgrwt>
<rscale>  0 0.25765991E+04</rscale>
<asrwt>0</asrwt>
<pdfrwt beam="1">  1        2 0.27364176E+00 0.25765991E+04</pdfrwt>
<pdfrwt beam="2">  1       -2 0.14355708E+00 0.25765991E+04</pdfrwt>
<totfact> 0.26440034E+00</totfact>
</mgrwt>
</event>
<event>
 6    1  0.5026615E-004  0.1066042E+04  0.7818608E-02  0.9238937E-01
         -2   -1    0    0    0  501 -0.00000000000E+00  0.00000000000E+00  0.29084410685E+03  0.29084410685E+03  0.00000000000E+00 0. -1.
          2   -1    0    0  501    0  0.00000000000E+00 -0.00000000000E+00 -0.97685049722E+03  0.97685049722E+03  0.00000000000E+00 0.  1.
         23    2    1    2    0    0 -0.31281295408E+03  0.76774536560E+02  0.15472950764E+03  0.36737070463E+03  0.85286226241E+02 0.  0.
         11    1    3    3    0    0 -0.16362289314E+03 -0.37371049066E+01  0.76773740384E+02  0.18077783139E+03  0.00000000000E+00 0. -1.
        -11    1    3    3    0    0 -0.14919006094E+03  0.80511641467E+02  0.77955767253E+02  0.18659287324E+03  0.00000000000E+00 0.  1.
         22    1    1    2    0    0  0.31281295408E+03 -0.76774536560E+02 -0.84073589800E+03  0.90032389944E+03  0.00000000000E+00 0.  1.
<mgrwt>
<rscale>  0 0.10660417E+04</rscale>
<asrwt>0</asrwt>
<pdfrwt beam="1">  1        2 0.15028469E+00 0.10660417E+04</pdfrwt>
<pdfrwt beam="2">  1       -2 0.44745247E-01 0.10660417E+04</pdfrwt>
<totfact> 0.12279858E+02</totfact>
</mgrwt>
</event>
<event>
 6    1  0.5026615E-004  0.2086115E+04  0.7818608E-02  0.8567385E-01
          2   -1    0    0  501    0  0.00000000000E+00  0.00000000000E+00  0.23048061752E+04  0.23048061752E+04  0.00000000000E+00 0.  1.
         -2   -1    0    0    0  501 -0.00000000000E+00 -0.00000000000E+00 -0.47204365038E+03  0.47204365038E+03  0.00000000000E+00 0. -1.
         23    2    1    2    0    0  0.20283667107E+02 -0.70504227525E+03  0.19373863776E+04  0.20637985037E+04  0.91116687510E+02 0.  0.
         11    1    3    3    0    0  0.29998437904E+02 -0.37899697495E+03  0.11613565261E+04  0.12220014705E+04  0.00000000000E+00 0.  1.
        -11    1    3    3    0    0 -0.97147707962E+01 -0.32604530030E+03  0.77602985154E+03  0.84179703320E+03  0.00000000000E+00 0. -1.
         22    1    1    2    0    0 -0.20283667107E+02  0.70504227525E+03 -0.10462385280E+03  0.71305132187E+03  0.00000000000E+00 0. -1.
<mgrwt>
<rscale>  0 0.20861152E+04</rscale>
<asrwt>0</asrwt>
<pdfrwt beam="1">  1        2 0.35458556E+00 0.20861152E+04</pdfrwt>
<pdfrwt beam="2">  1       -2 0.72622102E-01 0.20861152E+04</pdfrwt>
<totfact> 0.71275928E+00</totfact>
</mgrwt>
</event>
<event>
 6    1  0.5026615E-004  0.6932618E+03  0.7818608E-02  0.9728825E-01
          2   -1    0    0  501    0  0.00000000000E+00  0.00000000000E+00  0.32077376056E+03  0.32077376056E+03  0.00000000000E+00 0.  1.
         -2   -1    0    0    0  501 -0.00000000000E+00 -0.00000000000E+00 -0.37457229638E+03  0.37457229638E+03  0.00000000000E+00 0. -1.
         23    2    1    2    0    0  0.14356660120E+02  0.10725849720E+03  0.29670841138E+03  0.32851418953E+03  0.90416770722E+02 0.  0.
         13    1    3    3    0    0  0.29973733812E+02  0.10416368919E+03  0.17556279365E+03  0.20632690900E+03  0.00000000000E+00 0.  1.
        -13    1    3    3    0    0 -0.15617073692E+02  0.30948080093E+01  0.12114561773E+03  0.12218728053E+03  0.00000000000E+00 0. -1.
         22    1    1    2    0    0 -0.14356660120E+02 -0.10725849720E+03 -0.35050694720E+03  0.36683186741E+03  0.00000000000E+00 0. -1.
<mgrwt>
<rscale>  0 0.69326175E+03</rscale>
<asrwt>0</asrwt>
<pdfrwt beam="1">  1        2 0.49349810E-01 0.69326175E+03</pdfrwt>
<pdfrwt beam="2">  1       -2 0.57626507E-01 0.69326175E+03</pdfrwt>
<totfact> 0.29009574E+02</totfact>
</mgrwt>
</event>
<event>
 6    1  0.5026615E-004  0.2814676E+04  0.7818608E-02  0.8298726E-01
          2   -1    0    0  501    0  0.00000000000E+00  0.00000000000E+00  0.96067274783E+03  0.96067274783E+03  0.00000000000E+00 0.  1.
         -2   -1    0    0    0  501 -0.00000000000E+00 -0.00000000000E+00 -0.20616809335E+04  0.20616809335E+04  0.00000000000E+00 0. -1.
         23    2    1    2    0    0 -0.97076231473E+03  0.89640013793E+03 -0.10668326586E+04  0.17005818986E+04  0.89074090557E+02 0.  0.
         13    1    3    3    0    0 -0.43035619575E+03  0.34028024592E+03 -0.45855762636E+03  0.71503300461E+03  0.00000000000E+00 0.  1.
        -13    1    3    3    0    0 -0.54040611898E+03  0.55611989201E+03 -0.60827503221E+03  0.98554889403E+03  0.00000000000E+00 0. -1.
         22    1    1    2    0    0  0.97076231473E+03 -0.89640013793E+03 -0.34175527154E+02  0.13217717827E+04  0.00000000000E+00 0.  1.
<mgrwt>
<rscale>  0 0.28146763E+04</rscale>
<asrwt>0</asrwt>
<pdfrwt beam="1">  1        2 0.14779581E+00 0.28146763E+04</pdfrwt>
<pdfrwt beam="2">  1       -2 0.31718168E+00 0.28146763E+04</pdfrwt>
<totfact> 0.57865462E-01</totfact>
</mgrwt>
</event>
<event>
 6    1  0.5026615E-004  0.4233184E+04  0.7818608E-02  0.7959090E-01
          2   -1    0    0  501    0  0.00000000000E+00  0.00000000000E+00  0.34039006878E+04  0.34039006878E+04  0.00000000000E+00 0.  1.
         -2   -1    0    0    0  501 -0.00000000000E+00 -0.00000000000E+00 -0.13161261491E+04  0.13161261491E+04  0.00000000000E+00 0. -1.
         23    2    1    2    0    0 -0.10985899080E+04  0.15505530000E+04  0.20811998986E+04  0.28197222251E+04  0.91247011027E+02 0.  0.
         13    1    3    3    0    0 -0.62060657612E+03  0.94706703715E+03  0.12650881550E+04  0.16978034442E+04  0.00000000000E+00 0. -1.
        -13    1    3    3    0    0 -0.47798333193E+03  0.60348596280E+03  0.81611174357E+03  0.11219187809E+04  0.00000000000E+00 0.  1.
         22    1    1    2    0    0  0.10985899080E+04 -0.15505530000E+04  0.65746401642E+01  0.19003046118E+04  0.00000000000E+00 0. -1.
<mgrwt>
<rscale>  0 0.42331845E+04</rscale>
<asrwt>0</asrwt>
<pdfrwt beam="1">  1        2 0.52367703E+00 0.42331845E+04</pdfrwt>
<pdfrwt beam="2">  1       -2 0.20248095E+00 0.42331845E+04</pdfrwt>
<totfact> 0.93837098E-02</totfact>
</mgrwt>
</event>
<event>
 6    1  0.5026615E-004  0.6655979E+03  0.7818608E-02  0.9777943E-01
          2   -1    0    0  501    0  0.00000000000E+00  0.00000000000E+00  0.17963843294E+03  0.17963843294E+03  0.00000000000E+00 0.  1.
         -2   -1    0    0    0  501 -0.00000000000E+00 -0.00000000000E+00 -0.61654485294E+03  0.61654485294E+03  0.00000000000E+00 0. -1.
         23    2    1    2    0    0  0.21141209571E+03 -0.18682821839E+03 -0.25118139600E+02  0.29701453157E+03  0.89369198436E+02 0.  0.
         11    1    3    3    0    0  0.41292857626E+02 -0.69124422960E+01 -0.26225464861E+02  0.49403005542E+02  0.00000000000E+00 0.  1.
        -11    1    3    3    0    0  0.17011923808E+03 -0.17991577610E+03  0.11073252615E+01  0.24761152603E+03  0.00000000000E+00 0. -1.
         22    1    1    2    0    0 -0.21141209571E+03  0.18682821839E+03 -0.41178828040E+03  0.49916875430E+03  0.00000000000E+00 0. -1.
<mgrwt>
<rscale>  0 0.66559793E+03</rscale>
<asrwt>0</asrwt>
<pdfrwt beam="1">  1        2 0.27636682E-01 0.66559793E+03</pdfrwt>
<pdfrwt beam="2">  1       -2 0.94853054E-01 0.66559793E+03</pdfrwt>
<totfact> 0.18473985E+02</totfact>
</mgrwt>
</event>
<event>
 6    1  0.5026615E-004  0.2074979E+04  0.7818608E-02  0.8572346E-01
         -2   -1    0    0    0  501 -0.00000000000E+00  0.00000000000E+00  0.71629479219E+03  0.71629479219E+03  0.00000000000E+00 0. -1.
          2   -1    0    0  501    0  0.00000000000E+00 -0.00000000000E+00 -0.15027115056E+04  0.15027115056E+04  0.00000000000E+00 0.  1.
         23    2    1    2    0    0  0.41844412637E+03 -0.62059314737E+02  0.61677487747E+03  0.75343695923E+03  0.91154575425E+02 0.  0.
         11    1    3    3    0    0  0.55622459105E+02 -0.77951738192E+01  0.36708363148E+02  0.67097888319E+02  0.00000000000E+00 0.  1.
        -11    1    3    3    0    0  0.36282166727E+03 -0.54264140918E+02  0.58006651432E+03  0.68633907091E+03  0.00000000000E+00 0. -1.
         22    1    1    2    0    0 -0.41844412637E+03  0.62059314737E+02 -0.14031915908E+04  0.14655693385E+04  0.00000000000E+00 0.  1.
<mgrwt>
<rscale>  0 0.20749790E+04</rscale>
<asrwt>0</asrwt>
<pdfrwt beam="1">  1        2 0.23118638E+00 0.20749790E+04</pdfrwt>
<pdfrwt beam="2">  1       -2 0.11019920E+00 0.20749790E+04</pdfrwt>
<totfact> 0.76418412E+00</totfact>
</mgrwt>
</event>
<event>
 6    1  0.5026615E-004  0.2755480E+04  0.7818608E-02  0.8317225E-01
         -2   -1    0    0    0  501 -0.00000000000E+00  0.00000000000E+00  0.50671972021E+03  0.50671972021E+03  0.00000000000E+00 0.  1.
          2   -1    0    0  501    0  0.00000000000E+00 -0.00000000000E+00 -0.37459908834E+04  0.37459908834E+04  0.00000000000E+00 0. -1.
         23    2    1    2    0    0 -0.13562002626E+04  0.87525579946E+02 -0.12871872982E+04  0.18741456381E+04  0.92902383197E+02 0.  0.
         11    1    3    3    0    0 -0.31338301234E+03  0.18413889552E+02 -0.24507161887E+03  0.39825630206E+03  0.00000000000E+00 0. -1.
        -11    1    3    3    0    0 -0.10428172502E+04  0.69111690394E+02 -0.10421156794E+04  0.14758893361E+04  0.00000000000E+00 0.  1.
         22    1    1    2    0    0  0.13562002626E+04 -0.87525579946E+02 -0.19520838649E+04  0.23785649655E+04  0.00000000000E+00 0. -1.
<mgrwt>
<rscale>  0 0.27554800E+04</rscale>
<asrwt>0</asrwt>
<pdfrwt beam="1">  1        2 0.57630629E+00 0.27554800E+04</pdfrwt>
<pdfrwt beam="2">  1       -2 0.77956880E-01 0.27554800E+04</pdfrwt>
<totfact> 0.69047923E-01</totfact>
</mgrwt>
</event>
<event>
 6    1  0.5026615E-004  0.4776482E+04  0.7818608E-02  0.7863943E-01
          4   -1    0    0  501    0  0.00000000000E+00  0.00000000000E+00  0.20407808999E+04  0.20407808999E+04  0.00000000000E+00 0. -1.
         -4   -1    0    0    0  501 -0.00000000000E+00 -0.00000000000E+00 -0.27948588463E+04  0.27948588463E+04  0.00000000000E+00 0.  1.
         23    2    1    2    0    0 -0.36180876122E+03  0.17677519392E+04  0.12055531840E+04  0.21718066686E+04  0.86794169878E+02 0.  0.
         13    1    3    3    0    0 -0.19588291394E+03  0.91215633643E+03  0.67425392000E+03  0.11510941085E+04  0.00000000000E+00 0. -1.
        -13    1    3    3    0    0 -0.16592584728E+03  0.85559560279E+03  0.53129926396E+03  0.10207125600E+04  0.00000000000E+00 0.  1.
         22    1    1    2    0    0  0.36180876122E+03 -0.17677519392E+04 -0.19596311304E+04  0.26638330776E+04  0.00000000000E+00 0.  1.
<mgrwt>
<rscale>  0 0.47764818E+04</rscale>
<asrwt>0</asrwt>
<pdfrwt beam="1">  1        4 0.31396629E+00 0.47764818E+04</pdfrwt>
<pdfrwt beam="2">  1       -4 0.42997828E+00 0.47764818E+04</pdfrwt>
<totfact> 0.15047959E-04</totfact>
</mgrwt>
</event>
<event>
 6    1  0.5026615E-004  0.1193973E+04  0.7818608E-02  0.9118149E-01
          2   -1    0    0  501    0  0.00000000000E+00  0.00000000000E+00  0.14330765835E+04  0.14330765835E+04  0.00000000000E+00 0.  1.
         -2   -1    0    0    0  501 -0.00000000000E+00 -0.00000000000E+00 -0.24869066028E+03  0.24869066028E+03  0.00000000000E+00 0. -1.
         23    2    1    2    0    0 -0.40439464763E+03 -0.88012267559E+02  0.11948709066E+04  0.12677731314E+04  0.90835229981E+02 0.  0.
         13    1    3    3    0    0 -0.14214527609E+03 -0.75638962209E+02  0.47093783132E+03  0.49770370010E+03  0.00000000000E+00 0. -1.
        -13    1    3    3    0    0 -0.26224937154E+03 -0.12373305351E+02  0.72393307523E+03  0.77006943126E+03  0.00000000000E+00 0.  1.
         22    1    1    2    0    0  0.40439464763E+03  0.88012267559E+02 -0.10484983296E+02  0.41399411246E+03  0.00000000000E+00 0. -1.
<mgrwt>
<rscale>  0 0.11939728E+04</rscale>
<asrwt>0</asrwt>
<pdfrwt beam="1">  1        2 0.22047332E+00 0.11939728E+04</pdfrwt>
<pdfrwt beam="2">  1       -2 0.38260103E-01 0.11939728E+04</pdfrwt>
<totfact> 0.88165474E+01</totfact>
</mgrwt>
</event>
<event>
 6    1  0.9901037E-004  0.3247649E+04  0.7818608E-02  0.8176345E-01
          2   -1    0    0  501    0  0.00000000000E+00  0.00000000000E+00  0.29579333372E+04  0.29579333372E+04  0.00000000000E+00 0.  1.
         -2   -1    0    0    0  501 -0.00000000000E+00 -0.00000000000E+00 -0.89143521637E+03  0.89143521637E+03  0.00000000000E+00 0. -1.
         23    2    1    2    0    0 -0.45282805380E+03 -0.34960512171E+03 -0.76532538728E+03  0.96033733732E+03  0.96165823478E+02 0.  0.
         11    1    3    3    0    0 -0.23138511024E+03 -0.19625460025E+03 -0.32880276825E+03  0.44739937167E+03  0.00000000000E+00 0. -1.
        -11    1    3    3    0    0 -0.22144294356E+03 -0.15335052146E+03 -0.43652261903E+03  0.51293796565E+03  0.00000000000E+00 0.  1.
         22    1    1    2    0    0  0.45282805380E+03  0.34960512171E+03  0.28318235081E+04  0.28890312162E+04  0.00000000000E+00 0.  1.
<mgrwt>
<rscale>  0 0.32476490E+04</rscale>
<asrwt>0</asrwt>
<pdfrwt beam="1">  1        2 0.45506666E+00 0.32476490E+04</pdfrwt>
<pdfrwt beam="2">  1       -2 0.13714388E+00 0.32476490E+04</pdfrwt>
<totfact> 0.58745918E-01</totfact>
</mgrwt>
</event>
<event>
 6    1  0.5026615E-004  0.2962665E+04  0.7818608E-02  0.8254473E-01
          2   -1    0    0  501    0  0.00000000000E+00  0.00000000000E+00  0.21862677263E+04  0.21862677263E+04  0.00000000000E+00 0.  1.
         -2   -1    0    0    0  501 -0.00000000000E+00 -0.00000000000E+00 -0.10036950976E+04  0.10036950976E+04  0.00000000000E+00 0. -1.
         23    2    1    2    0    0  0.10150947279E+04  0.66140451369E+02 -0.56538632021E+03  0.11675503158E+04  0.93381919175E+02 0.  0.
         11    1    3    3    0    0  0.33045593072E+03  0.55338937893E+02 -0.15406513230E+03  0.36878121588E+03  0.00000000000E+00 0.  1.
        -11    1    3    3    0    0  0.68463879722E+03  0.10801513476E+02 -0.41132118791E+03  0.79876909992E+03  0.00000000000E+00 0. -1.
         22    1    1    2    0    0 -0.10150947279E+04 -0.66140451369E+02  0.17479589488E+04  0.20224125081E+04  0.00000000000E+00 0.  1.
<mgrwt>
<rscale>  0 0.29626652E+04</rscale>
<asrwt>0</asrwt>
<pdfrwt beam="1">  1        2 0.33634888E+00 0.29626652E+04</pdfrwt>
<pdfrwt beam="2">  1       -2 0.15441463E+00 0.29626652E+04</pdfrwt>
<totfact> 0.12516685E+00</totfact>
</mgrwt>
</event>
<event>
 6    1  0.5026615E-004  0.1364291E+04  0.7818608E-02  0.8980080E-01
          1   -1    0    0  501    0  0.00000000000E+00  0.00000000000E+00  0.16098247619E+04  0.16098247619E+04  0.00000000000E+00 0.  1.
         -1   -1    0    0    0  501 -0.00000000000E+00 -0.00000000000E+00 -0.28905151341E+03  0.28905151341E+03  0.00000000000E+00 0. -1.
         23    2    1    2    0    0 -0.65693116010E+03 -0.15845186810E+03  0.75712047219E+03  0.10188933233E+04  0.90811074515E+02 0.  0.
         11    1    3    3    0    0 -0.52691670872E+03 -0.15702919615E+03  0.58018291033E+03  0.79931945792E+03  0.00000000000E+00 0. -1.
        -11    1    3    3    0    0 -0.13001445137E+03 -0.14226719484E+01  0.17693756186E+03  0.21957386538E+03  0.00000000000E+00 0.  1.
         22    1    1    2    0    0  0.65693116010E+03  0.15845186810E+03  0.56365277634E+03  0.87998295204E+03  0.00000000000E+00 0. -1.
<mgrwt>
<rscale>  0 0.13642907E+04</rscale>
<asrwt>0</asrwt>
<pdfrwt beam="1">  1        1 0.24766534E+00 0.13642907E+04</pdfrwt>
<pdfrwt beam="2">  1       -1 0.44469465E-01 0.13642907E+04</pdfrwt>
<totfact> 0.26898040E+01</totfact>
</mgrwt>
</event>
<event>
 6    1  0.5026615E-004  0.1557336E+04  0.7818608E-02  0.8847195E-01
         -2   -1    0    0    0  501 -0.00000000000E+00  0.00000000000E+00  0.38588146027E+03  0.38588146027E+03  0.00000000000E+00 0. -1.
          2   -1    0    0  501    0  0.00000000000E+00 -0.00000000000E+00 -0.15712706449E+04  0.15712706449E+04  0.00000000000E+00 0.  1.
         23    2    1    2    0    0 -0.63849154399E+02  0.63952113211E+03 -0.48004670896E+02  0.65074193796E+03  0.89981267230E+02 0.  0.
         13    1    3    3    0    0 -0.65797867602E+02  0.30985681401E+03  0.51865689590E+01  0.31680830966E+03  0.00000000000E+00 0.  1.
        -13    1    3    3    0    0  0.19487132026E+01  0.32966431810E+03 -0.53191239855E+02  0.33393362830E+03  0.00000000000E+00 0. -1.
         22    1    1    2    0    0  0.63849154399E+02 -0.63952113211E+03 -0.11373845138E+04  0.13064101673E+04  0.00000000000E+00 0.  1.
<mgrwt>
<rscale>  0 0.15573365E+04</rscale>
<asrwt>0</asrwt>
<pdfrwt beam="1">  1        2 0.24173395E+00 0.15573365E+04</pdfrwt>
<pdfrwt beam="2">  1       -2 0.59366378E-01 0.15573365E+04</pdfrwt>
<totfact> 0.29486967E+01</totfact>
</mgrwt>
</event>
<event>
 6    1  0.5026615E-004  0.3001703E+04  0.7818608E-02  0.8243245E-01
          2   -1    0    0  501    0  0.00000000000E+00  0.00000000000E+00  0.19712477944E+04  0.19712477944E+04  0.00000000000E+00 0.  1.
         -2   -1    0    0    0  501 -0.00000000000E+00 -0.00000000000E+00 -0.11427056329E+04  0.11427056329E+04  0.00000000000E+00 0. -1.
         23    2    1    2    0    0 -0.14232271265E+04  0.31603822839E+03  0.77884485090E+03  0.16552123817E+04  0.87596297347E+02 0.  0.
         13    1    3    3    0    0 -0.12233695029E+04  0.26686363987E+03  0.63369379853E+03  0.14033591747E+04  0.00000000000E+00 0. -1.
        -13    1    3    3    0    0 -0.19985762360E+03  0.49174588515E+02  0.14515105237E+03  0.25185320698E+03  0.00000000000E+00 0.  1.
         22    1    1    2    0    0  0.14232271265E+04 -0.31603822839E+03  0.49697310539E+02  0.14587410456E+04  0.00000000000E+00 0. -1.
<mgrwt>
<rscale>  0 0.30017035E+04</rscale>
<asrwt>0</asrwt>
<pdfrwt beam="1">  1        2 0.30326889E+00 0.30017035E+04</pdfrwt>
<pdfrwt beam="2">  1       -2 0.17580087E+00 0.30017035E+04</pdfrwt>
<totfact> 0.11508265E+00</totfact>
</mgrwt>
</event>
<event>
 6    1  0.5026615E-004  0.2896234E+04  0.7818608E-02  0.8273999E-01
          2   -1    0    0  501    0  0.00000000000E+00  0.00000000000E+00  0.10263917268E+04  0.10263917268E+04  0.00000000000E+00 0.  1.
         -2   -1    0    0    0  501 -0.00000000000E+00 -0.00000000000E+00 -0.20431211747E+04  0.20431211747E+04  0.00000000000E+00 0. -1.
         23    2    1    2    0    0  0.58970722415E+03  0.75856948614E+03  0.63714914829E+03  0.11567931921E+04  0.95021979679E+02 0.  0.
         11    1    3    3    0    0  0.26191415452E+03  0.26546543404E+03  0.22863671369E+03  0.43743075778E+03  0.00000000000E+00 0. -1.
        -11    1    3    3    0    0  0.32779306963E+03  0.49310405210E+03  0.40851243460E+03  0.71936243432E+03  0.00000000000E+00 0.  1.
         22    1    1    2    0    0 -0.58970722415E+03 -0.75856948614E+03 -0.16538785962E+04  0.19127197093E+04  0.00000000000E+00 0. -1.
<mgrwt>
<rscale>  0 0.28962339E+04</rscale>
<asrwt>0</asrwt>
<pdfrwt beam="1">  1        2 0.15790642E+00 0.28962339E+04</pdfrwt>
<pdfrwt beam="2">  1       -2 0.31432633E+00 0.28962339E+04</pdfrwt>
<totfact> 0.54283678E-01</totfact>
</mgrwt>
</event>
<event>
 6    1  0.5026615E-004  0.1595314E+04  0.7818608E-02  0.8823432E-01
          2   -1    0    0  501    0  0.00000000000E+00  0.00000000000E+00  0.97489362018E+03  0.97489362018E+03  0.00000000000E+00 0.  1.
         -2   -1    0    0    0  501 -0.00000000000E+00 -0.00000000000E+00 -0.65264185228E+03  0.65264185228E+03  0.00000000000E+00 0. -1.
         23    2    1    2    0    0 -0.30018426456E+03  0.15286062814E+02 -0.58897688204E+03  0.66801376407E+03  0.94891332629E+02 0.  0.
         13    1    3    3    0    0 -0.73555673707E+02 -0.30689932194E+02 -0.10687992388E+03  0.13332526842E+03  0.00000000000E+00 0. -1.
        -13    1    3    3    0    0 -0.22662859085E+03  0.45975995008E+02 -0.48209695816E+03  0.53468849565E+03  0.00000000000E+00 0.  1.
         22    1    1    2    0    0  0.30018426456E+03 -0.15286062814E+02  0.91122864993E+03  0.95952170839E+03  0.00000000000E+00 0.  1.
<mgrwt>
<rscale>  0 0.15953136E+04</rscale>
<asrwt>0</asrwt>
<pdfrwt beam="1">  1        2 0.14998364E+00 0.15953136E+04</pdfrwt>
<pdfrwt beam="2">  1       -2 0.10040644E+00 0.15953136E+04</pdfrwt>
<totfact> 0.20524896E+01</totfact>
</mgrwt>
</event>
<event>
 6    1  0.5026615E-004  0.3179502E+04  0.7818608E-02  0.8194252E-01
         -1   -1    0    0    0  501 -0.00000000000E+00  0.00000000000E+00  0.81215919217E+03  0.81215919217E+03  0.00000000000E+00 0. -1.
          1   -1    0    0  501    0  0.00000000000E+00 -0.00000000000E+00 -0.31118384486E+04  0.31118384486E+04  0.00000000000E+00 0.  1.
         23    2    1    2    0    0 -0.10216520904E+04  0.55123823964E+03 -0.24888894124E+04  0.27478016223E+04  0.90590604755E+02 0.  0.
         13    1    3    3    0    0 -0.57457902670E+03  0.31639703437E+03 -0.13001155260E+04  0.14562103289E+04  0.00000000000E+00 0. -1.
        -13    1    3    3    0    0 -0.44707306372E+03  0.23484120528E+03 -0.11887738865E+04  0.12915912934E+04  0.00000000000E+00 0.  1.
         22    1    1    2    0    0  0.10216520904E+04 -0.55123823964E+03  0.18921015599E+03  0.11761960185E+04  0.00000000000E+00 0. -1.
<mgrwt>
<rscale>  0 0.31795020E+04</rscale>
<asrwt>0</asrwt>
<pdfrwt beam="1">  1        1 0.47874437E+00 0.31795020E+04</pdfrwt>
<pdfrwt beam="2">  1       -1 0.12494757E+00 0.31795020E+04</pdfrwt>
<totfact> 0.23199776E-01</totfact>
</mgrwt>
</event>
<event>
 6    1  0.5026615E-004  0.6019976E+04  0.7818608E-02  0.7687930E-01
          2   -1    0    0  501    0  0.00000000000E+00  0.00000000000E+00  0.35414331974E+04  0.35414331974E+04  0.00000000000E+00 0.  1.
         -2   -1    0    0    0  501 -0.00000000000E+00 -0.00000000000E+00 -0.25582945366E+04  0.25582945366E+04  0.00000000000E+00 0. -1.
         23    2    1    2    0    0 -0.67683910431E+03  0.11840846364E+04 -0.22264762942E+04  0.26123511041E+04  0.83749646171E+02 0.  0.
         11    1    3    3    0    0 -0.94352529422E+02  0.22516581824E+03 -0.37580537432E+03  0.44814252742E+03  0.00000000000E+00 0. -1.
        -11    1    3    3    0    0 -0.58248657488E+03  0.95891881816E+03 -0.18506709198E+04  0.21642085767E+04  0.00000000000E+00 0.  1.
         22    1    1    2    0    0  0.67683910431E+03 -0.11840846364E+04  0.32096149550E+04  0.34873766299E+04  0.00000000000E+00 0.  1.
<mgrwt>
<rscale>  0 0.60199765E+04</rscale>
<asrwt>0</asrwt>
<pdfrwt beam="1">  1        2 0.54483588E+00 0.60199765E+04</pdfrwt>
<pdfrwt beam="2">  1       -2 0.39358378E+00 0.60199765E+04</pdfrwt>
<totfact> 0.41705415E-03</totfact>
</mgrwt>
</event>
<event>
 6    1  0.5026615E-004  0.2241733E+04  0.7818608E-02  0.8501256E-01
         -2   -1    0    0    0  501 -0.00000000000E+00  0.00000000000E+00  0.53346433798E+03  0.53346433798E+03  0.00000000000E+00 0. -1.
          2   -1    0    0  501    0  0.00000000000E+00 -0.00000000000E+00 -0.23550618898E+04  0.23550618898E+04  0.00000000000E+00 0.  1.
         23    2    1    2    0    0  0.74948695227E+03 -0.74634286778E+03 -0.13830431951E+04  0.17434985898E+04  0.90666891815E+02 0.  0.
         13    1    3    3    0    0  0.97013847425E+02 -0.10926842729E+03 -0.14496162244E+03  0.20582795674E+03  0.00000000000E+00 0.  1.
        -13    1    3    3    0    0  0.65247310484E+03 -0.63707444049E+03 -0.12380815727E+04  0.15376706331E+04  0.00000000000E+00 0. -1.
         22    1    1    2    0    0 -0.74948695227E+03  0.74634286778E+03 -0.43855435672E+03  0.11450276380E+04  0.00000000000E+00 0.  1.
<mgrwt>
<rscale>  0 0.22417328E+04</rscale>
<asrwt>0</asrwt>
<pdfrwt beam="1">  1        2 0.36231722E+00 0.22417328E+04</pdfrwt>
<pdfrwt beam="2">  1       -2 0.82071435E-01 0.22417328E+04</pdfrwt>
<totfact> 0.50128871E+00</totfact>
</mgrwt>
</event>
<event>
 6    1  0.5026615E-004  0.3313619E+04  0.7818608E-02  0.8159439E-01
          2   -1    0    0  501    0  0.00000000000E+00  0.00000000000E+00  0.12910875630E+04  0.12910875630E+04  0.00000000000E+00 0.  1.
         -2   -1    0    0    0  501 -0.00000000000E+00 -0.00000000000E+00 -0.21261279341E+04  0.21261279341E+04  0.00000000000E+00 0. -1.
         23    2    1    2    0    0 -0.14008148838E+04  0.48354540876E+03  0.34356572410E+03  0.15237502008E+04  0.87628572703E+02 0.  0.
         13    1    3    3    0    0 -0.10079642590E+04  0.38159074920E+03  0.27274979427E+03  0.11117535238E+04  0.00000000000E+00 0.  1.
        -13    1    3    3    0    0 -0.39285062472E+03  0.10195465955E+03  0.70815929828E+02  0.41199667701E+03  0.00000000000E+00 0. -1.
         22    1    1    2    0    0  0.14008148838E+04 -0.48354540876E+03 -0.11786060951E+04  0.18934652963E+04  0.00000000000E+00 0. -1.
<mgrwt>
<rscale>  0 0.33136188E+04</rscale>
<asrwt>0</asrwt>
<pdfrwt beam="1">  1        2 0.19862886E+00 0.33136188E+04</pdfrwt>
<pdfrwt beam="2">  1       -2 0.32709661E+00 0.33136188E+04</pdfrwt>
<totfact> 0.30196580E-01</totfact>
</mgrwt>
</event>
<event>
 6    1  0.5026615E-004  0.6984330E+03  0.7818608E-02  0.9719916E-01
         -2   -1    0    0    0  501 -0.00000000000E+00  0.00000000000E+00  0.10800530215E+03  0.10800530215E+03  0.00000000000E+00 0. -1.
          2   -1    0    0  501    0  0.00000000000E+00 -0.00000000000E+00 -0.11291313245E+04  0.11291313245E+04  0.00000000000E+00 0.  1.
         23    2    1    2    0    0 -0.82161129256E+02 -0.16855794448E+03 -0.11789870918E+02  0.21052974064E+03  0.94981781559E+02 0.  0.
         11    1    3    3    0    0 -0.26132775392E+02 -0.90948733546E+02 -0.50520995447E+02  0.10727052281E+03  0.00000000000E+00 0. -1.
        -11    1    3    3    0    0 -0.56028353864E+02 -0.77609210934E+02  0.38731124529E+02  0.10325921782E+03  0.00000000000E+00 0.  1.
         22    1    1    2    0    0  0.82161129256E+02  0.16855794448E+03 -0.10093361515E+04  0.10266068860E+04  0.00000000000E+00 0.  1.
<mgrwt>
<rscale>  0 0.69843302E+03</rscale>
<asrwt>0</asrwt>
<pdfrwt beam="1">  1        2 0.17371251E+00 0.69843302E+03</pdfrwt>
<pdfrwt beam="2">  1       -2 0.16616200E-01 0.69843302E+03</pdfrwt>
<totfact> 0.62050369E+02</totfact>
</mgrwt>
</event>
<event>
 6    1  0.5026615E-004  0.9422048E+03  0.7818608E-02  0.9374309E-01
         -2   -1    0    0    0  501 -0.00000000000E+00  0.00000000000E+00  0.17472887941E+03  0.17472887941E+03  0.00000000000E+00 0. -1.
          2   -1    0    0  501    0  0.00000000000E+00 -0.00000000000E+00 -0.12701819866E+04  0.12701819866E+04  0.00000000000E+00 0.  1.
         23    2    1    2    0    0 -0.36478959446E+02  0.44024841617E+03 -0.32215759678E+03  0.55432941053E+03  0.91357516314E+02 0.  0.
         11    1    3    3    0    0 -0.10939056770E+02  0.22343892804E+03 -0.21832273941E+03  0.31258508613E+03  0.00000000000E+00 0. -1.
        -11    1    3    3    0    0 -0.25539902676E+02  0.21680948813E+03 -0.10383485737E+03  0.24174432440E+03  0.00000000000E+00 0.  1.
         22    1    1    2    0    0  0.36478959446E+02 -0.44024841617E+03 -0.77329551042E+03  0.89058145548E+03  0.00000000000E+00 0.  1.
<mgrwt>
<rscale>  0 0.94220481E+03</rscale>
<asrwt>0</asrwt>
<pdfrwt beam="1">  1        2 0.19541262E+00 0.94220481E+03</pdfrwt>
<pdfrwt beam="2">  1       -2 0.26881365E-01 0.94220481E+03</pdfrwt>
<totfact> 0.21616380E+02</totfact>
</mgrwt>
</event>
<event>
 6    1  0.5026615E-004  0.1727948E+04  0.7818608E-02  0.8745583E-01
         -3   -1    0    0    0  501 -0.00000000000E+00  0.00000000000E+00  0.44405801831E+03  0.44405801831E+03  0.00000000000E+00 0.  1.
          3   -1    0    0  501    0  0.00000000000E+00 -0.00000000000E+00 -0.16809768057E+04  0.16809768057E+04  0.00000000000E+00 0. -1.
         23    2    1    2    0    0 -0.79145402373E+03 -0.87744539969E+02 -0.21591124671E+03  0.83021631392E+03  0.92427731087E+02 0.  0.
         11    1    3    3    0    0 -0.51159862178E+03 -0.12076131947E+02 -0.13667593483E+03  0.52967848166E+03  0.00000000000E+00 0.  1.
        -11    1    3    3    0    0 -0.27985540194E+03 -0.75668408022E+02 -0.79235311873E+02  0.30053783226E+03  0.00000000000E+00 0. -1.
         22    1    1    2    0    0  0.79145402373E+03  0.87744539969E+02 -0.10210075407E+04  0.12948185101E+04  0.00000000000E+00 0.  1.
<mgrwt>
<rscale>  0 0.17279482E+04</rscale>
<asrwt>0</asrwt>
<pdfrwt beam="1">  1        3 0.25861182E+00 0.17279482E+04</pdfrwt>
<pdfrwt beam="2">  1       -3 0.68316618E-01 0.17279482E+04</pdfrwt>
<totfact> 0.33748578E-01</totfact>
</mgrwt>
</event>
<event>
 6    1  0.5026615E-004  0.4667802E+04  0.7818608E-02  0.7881901E-01
         -2   -1    0    0    0  501 -0.00000000000E+00  0.00000000000E+00  0.19842858326E+04  0.19842858326E+04  0.00000000000E+00 0. -1.
          2   -1    0    0  501    0  0.00000000000E+00 -0.00000000000E+00 -0.27451156784E+04  0.27451156784E+04  0.00000000000E+00 0.  1.
         23    2    1    2    0    0  0.77186278445E+03 -0.22010777063E+04 -0.39173147621E+03  0.23678874134E+04  0.11367508940E+03 0.  0.
         13    1    3    3    0    0  0.48093734131E+03 -0.13137189092E+04 -0.28788774541E+03  0.14282987967E+04  0.00000000000E+00 0. -1.
        -13    1    3    3    0    0  0.29092544314E+03 -0.88735879704E+03 -0.10384373079E+03  0.93958861667E+03  0.00000000000E+00 0.  1.
         22    1    1    2    0    0 -0.77186278445E+03  0.22010777063E+04 -0.36909836957E+03  0.23615140977E+04  0.00000000000E+00 0. -1.
<mgrwt>
<rscale>  0 0.46678021E+04</rscale>
<asrwt>0</asrwt>
<pdfrwt beam="1">  1        2 0.42232549E+00 0.46678021E+04</pdfrwt>
<pdfrwt beam="2">  1       -2 0.30527475E+00 0.46678021E+04</pdfrwt>
<totfact> 0.55027613E-02</totfact>
</mgrwt>
</event>
<event>
 6    1  0.5026615E-004  0.1883063E+04  0.7818608E-02  0.8663333E-01
          2   -1    0    0  501    0  0.00000000000E+00  0.00000000000E+00  0.12165694834E+04  0.12165694834E+04  0.00000000000E+00 0.  1.
         -2   -1    0    0    0  501 -0.00000000000E+00 -0.00000000000E+00 -0.72867331565E+03  0.72867331565E+03  0.00000000000E+00 0. -1.
         23    2    1    2    0    0 -0.29177948020E+03 -0.52591093458E+03  0.98989050506E+03  0.11618425879E+04  0.90980277941E+02 0.  0.
         11    1    3    3    0    0 -0.14869044384E+03 -0.31146903401E+03  0.48942435469E+03  0.59888062767E+03  0.00000000000E+00 0.  1.
        -11    1    3    3    0    0 -0.14308903636E+03 -0.21444190057E+03  0.50046615037E+03  0.56296196027E+03  0.00000000000E+00 0. -1.
         22    1    1    2    0    0  0.29177948020E+03  0.52591093458E+03 -0.50199433727E+03  0.78340021115E+03  0.00000000000E+00 0. -1.
<mgrwt>
<rscale>  0 0.18830632E+04</rscale>
<asrwt>0</asrwt>
<pdfrwt beam="1">  1        2 0.18716454E+00 0.18830632E+04</pdfrwt>
<pdfrwt beam="2">  1       -2 0.11210359E+00 0.18830632E+04</pdfrwt>
<totfact> 0.10897026E+01</totfact>
</mgrwt>
</event>
<event>
 6    1  0.5026615E-004  0.4441916E+04  0.7818608E-02  0.7920885E-01
          2   -1    0    0  501    0  0.00000000000E+00  0.00000000000E+00  0.33524093839E+04  0.33524093839E+04  0.00000000000E+00 0.  1.
         -2   -1    0    0    0  501 -0.00000000000E+00 -0.00000000000E+00 -0.14713759043E+04  0.14713759043E+04  0.00000000000E+00 0. -1.
         23    2    1    2    0    0 -0.89430527871E+02 -0.21891091485E+04  0.55222791910E+03  0.22613799923E+04  0.93204675285E+02 0.  0.
         13    1    3    3    0    0 -0.28589669219E+02 -0.16662346632E+04  0.42508305097E+03  0.17198403770E+04  0.00000000000E+00 0. -1.
        -13    1    3    3    0    0 -0.60840858652E+02 -0.52287448527E+03  0.12714486813E+03  0.54153961528E+03  0.00000000000E+00 0.  1.
         22    1    1    2    0    0  0.89430527871E+02  0.21891091485E+04  0.13288055604E+04  0.25624052959E+04  0.00000000000E+00 0. -1.
<mgrwt>
<rscale>  0 0.44419160E+04</rscale>
<asrwt>0</asrwt>
<pdfrwt beam="1">  1        2 0.51575529E+00 0.44419160E+04</pdfrwt>
<pdfrwt beam="2">  1       -2 0.22636552E+00 0.44419160E+04</pdfrwt>
<totfact> 0.70355403E-02</totfact>
</mgrwt>
</event>
<event>
 6    1  0.5026615E-004  0.2034466E+04  0.7818608E-02  0.8590674E-01
          1   -1    0    0  501    0  0.00000000000E+00  0.00000000000E+00  0.19905999539E+04  0.19905999539E+04  0.00000000000E+00 0.  1.
         -1   -1    0    0    0  501 -0.00000000000E+00 -0.00000000000E+00 -0.51982445763E+03  0.51982445763E+03  0.00000000000E+00 0. -1.
         23    2    1    2    0    0  0.88997421077E+03  0.42604257587E+03  0.44449090159E+03  0.10867578630E+04  0.99519439326E+02 0.  0.
         13    1    3    3    0    0  0.56673374619E+03  0.22145353940E+03  0.29258739254E+03  0.67515641999E+03  0.00000000000E+00 0. -1.
        -13    1    3    3    0    0  0.32324046458E+03  0.20458903647E+03  0.15190350905E+03  0.41160144296E+03  0.00000000000E+00 0.  1.
         22    1    1    2    0    0 -0.88997421077E+03 -0.42604257587E+03  0.10262845947E+04  0.14236665486E+04  0.00000000000E+00 0.  1.
<mgrwt>
<rscale>  0 0.20344656E+04</rscale>
<asrwt>0</asrwt>
<pdfrwt beam="1">  1        1 0.30624614E+00 0.20344656E+04</pdfrwt>
<pdfrwt beam="2">  1       -1 0.79972994E-01 0.20344656E+04</pdfrwt>
<totfact> 0.43657659E+00</totfact>
</mgrwt>
</event>
<event>
 6    1  0.5026615E-004  0.3246099E+04  0.7818608E-02  0.8176747E-01
         -2   -1    0    0    0  501 -0.00000000000E+00  0.00000000000E+00  0.24763084044E+04  0.24763084044E+04  0.00000000000E+00 0. -1.
          2   -1    0    0  501    0  0.00000000000E+00 -0.00000000000E+00 -0.10637972825E+04  0.10637972825E+04  0.00000000000E+00 0.  1.
         23    2    1    2    0    0  0.13702308777E+04 -0.52038430673E+03 -0.50237201709E+02  0.14693654466E+04  0.90435360533E+02 0.  0.
         11    1    3    3    0    0  0.87019283225E+03 -0.29692244016E+03 -0.61971422855E+02  0.92154162034E+03  0.00000000000E+00 0. -1.
        -11    1    3    3    0    0  0.50003804543E+03 -0.22346186658E+03  0.11734221146E+02  0.54782382628E+03  0.00000000000E+00 0.  1.
         22    1    1    2    0    0 -0.13702308777E+04  0.52038430673E+03  0.14627483236E+04  0.20707402404E+04  0.00000000000E+00 0. -1.
<mgrwt>
<rscale>  0 0.32460993E+04</rscale>
<asrwt>0</asrwt>
<pdfrwt beam="1">  1        2 0.16366112E+00 0.32460993E+04</pdfrwt>
<pdfrwt beam="2">  1       -2 0.38097052E+00 0.32460993E+04</pdfrwt>
<totfact> 0.18982765E-01</totfact>
</mgrwt>
</event>
<event>
 6    1  0.6718074E-004  0.2865329E+04  0.7818608E-02  0.8283269E-01
         -2   -1    0    0    0  501 -0.00000000000E+00  0.00000000000E+00  0.18096057032E+04  0.18096057032E+04  0.00000000000E+00 0. -1.
          2   -1    0    0  501    0  0.00000000000E+00 -0.00000000000E+00 -0.11342399343E+04  0.11342399343E+04  0.00000000000E+00 0.  1.
         23    2    1    2    0    0 -0.24276229082E+03 -0.30619541813E+03  0.17526341830E+04  0.17978978202E+04  0.89559078193E+02 0.  0.
         13    1    3    3    0    0 -0.18965031471E+03 -0.21634994108E+03  0.14349565915E+04  0.14635145911E+04  0.00000000000E+00 0. -1.
        -13    1    3    3    0    0 -0.53111976112E+02 -0.89845477054E+02  0.31767759147E+03  0.33438322906E+03  0.00000000000E+00 0.  1.
         22    1    1    2    0    0  0.24276229082E+03  0.30619541813E+03 -0.10772684141E+04  0.11459478173E+04  0.00000000000E+00 0.  1.
<mgrwt>
<rscale>  0 0.28653286E+04</rscale>
<asrwt>0</asrwt>
<pdfrwt beam="1">  1        2 0.17449845E+00 0.28653286E+04</pdfrwt>
<pdfrwt beam="2">  1       -2 0.27840088E+00 0.28653286E+04</pdfrwt>
<totfact> 0.77370621E-01</totfact>
</mgrwt>
</event>
<event>
 6    1  0.5026615E-004  0.3718318E+04  0.7818608E-02  0.8063914E-01
         -2   -1    0    0    0  501 -0.00000000000E+00  0.00000000000E+00  0.13652554982E+04  0.13652554982E+04  0.00000000000E+00 0. -1.
          2   -1    0    0  501    0  0.00000000000E+00 -0.00000000000E+00 -0.25317407255E+04  0.25317407255E+04  0.00000000000E+00 0.  1.
         23    2    1    2    0    0 -0.13704642771E+04 -0.10402027295E+04  0.15091302340E+03  0.17300324021E+04  0.10021635699E+03 0.  0.
         11    1    3    3    0    0 -0.10518585462E+04 -0.75382190392E+03  0.13825971472E+03  0.13014490434E+04  0.00000000000E+00 0. -1.
        -11    1    3    3    0    0 -0.31860573098E+03 -0.28638082560E+03  0.12653308681E+02  0.42858335864E+03  0.00000000000E+00 0.  1.
         22    1    1    2    0    0  0.13704642771E+04  0.10402027295E+04 -0.13173982507E+04  0.21669638217E+04  0.00000000000E+00 0. -1.
<mgrwt>
<rscale>  0 0.37183184E+04</rscale>
<asrwt>0</asrwt>
<pdfrwt beam="1">  1        2 0.38949857E+00 0.37183184E+04</pdfrwt>
<pdfrwt beam="2">  1       -2 0.21003931E+00 0.37183184E+04</pdfrwt>
<totfact> 0.30817605E-01</totfact>
</mgrwt>
</event>
<event>
 6    1  0.5026615E-004  0.2241124E+04  0.7818608E-02  0.8501504E-01
          1   -1    0    0  501    0  0.00000000000E+00  0.00000000000E+00  0.16250285286E+04  0.16250285286E+04  0.00000000000E+00 0. -1.
         -1   -1    0    0    0  501 -0.00000000000E+00 -0.00000000000E+00 -0.77270011854E+03  0.77270011854E+03  0.00000000000E+00 0.  1.
         23    2    1    2    0    0  0.54380760916E+03  0.23806198768E+03  0.14415265373E+04  0.15613348052E+04  0.85833504358E+02 0.  0.
         13    1    3    3    0    0  0.94041216888E+02  0.67376191833E+02  0.22153088048E+03  0.24991845211E+03  0.00000000000E+00 0.  1.
        -13    1    3    3    0    0  0.44976639227E+03  0.17068579584E+03  0.12199956568E+04  0.13114163531E+04  0.00000000000E+00 0. -1.
         22    1    1    2    0    0 -0.54380760916E+03 -0.23806198768E+03 -0.58919812721E+03  0.83639384195E+03  0.00000000000E+00 0.  1.
<mgrwt>
<rscale>  0 0.22411245E+04</rscale>
<asrwt>0</asrwt>
<pdfrwt beam="1">  1        1 0.25000439E+00 0.22411245E+04</pdfrwt>
<pdfrwt beam="2">  1       -1 0.11887694E+00 0.22411245E+04</pdfrwt>
<totfact> 0.30867756E+00</totfact>
</mgrwt>
</event>
<event>
 6    1  0.5026615E-004  0.9693951E+03  0.7818608E-02  0.9342764E-01
          2   -1    0    0  501    0  0.00000000000E+00  0.00000000000E+00  0.12329109306E+04  0.12329109306E+04  0.00000000000E+00 0.  1.
         -2   -1    0    0    0  501 -0.00000000000E+00 -0.00000000000E+00 -0.19055044717E+03  0.19055044717E+03  0.00000000000E+00 0. -1.
         23    2    1    2    0    0  0.25685522171E+03  0.55093290227E+02  0.11163022753E+04  0.11505561485E+04  0.92945175392E+02 0.  0.
         13    1    3    3    0    0  0.20334646561E+03  0.42093256984E+02  0.10067523818E+04  0.10279455168E+04  0.00000000000E+00 0. -1.
        -13    1    3    3    0    0  0.53508756104E+02  0.13000033243E+02  0.10954989347E+03  0.12261063169E+03  0.00000000000E+00 0.  1.
         22    1    1    2    0    0 -0.25685522171E+03 -0.55093290227E+02 -0.73941791860E+02  0.27290522921E+03  0.00000000000E+00 0. -1.
<mgrwt>
<rscale>  0 0.96939513E+03</rscale>
<asrwt>0</asrwt>
<pdfrwt beam="1">  1        2 0.18967860E+00 0.96939513E+03</pdfrwt>
<pdfrwt beam="2">  1       -2 0.29315454E-01 0.96939513E+03</pdfrwt>
<totfact> 0.19349499E+02</totfact>
</mgrwt>
</event>
<event>
 6    1  0.5026615E-004  0.1033667E+04  0.7818608E-02  0.9272372E-01
          1   -1    0    0  501    0  0.00000000000E+00  0.00000000000E+00  0.49291234782E+03  0.49291234782E+03  0.00000000000E+00 0.  1.
         -1   -1    0    0    0  501 -0.00000000000E+00 -0.00000000000E+00 -0.54191508936E+03  0.54191508936E+03  0.00000000000E+00 0. -1.
         23    2    1    2    0    0 -0.30468381112E+03  0.38902277479E+03  0.11144817908E+03  0.51529356726E+03  0.94529465115E+02 0.  0.
         11    1    3    3    0    0 -0.19514013731E+03  0.19510407528E+03  0.95502008978E+02  0.29200326556E+03  0.00000000000E+00 0.  1.
        -11    1    3    3    0    0 -0.10954367381E+03  0.19391869951E+03  0.15946170104E+02  0.22329030170E+03  0.00000000000E+00 0. -1.
         22    1    1    2    0    0  0.30468381112E+03 -0.38902277479E+03 -0.16045092062E+03  0.51953386992E+03  0.00000000000E+00 0. -1.
<mgrwt>
<rscale>  0 0.10336666E+04</rscale>
<asrwt>0</asrwt>
<pdfrwt beam="1">  1        1 0.75832670E-01 0.10336666E+04</pdfrwt>
<pdfrwt beam="2">  1       -1 0.83371551E-01 0.10336666E+04</pdfrwt>
<totfact> 0.64618195E+01</totfact>
</mgrwt>
</event>
<event>
 6    1  0.5026615E-004  0.7871316E+03  0.7818608E-02  0.9578833E-01
          2   -1    0    0  501    0  0.00000000000E+00  0.00000000000E+00  0.24985382543E+04  0.24985382543E+04  0.00000000000E+00 0.  1.
         -2   -1    0    0    0  501 -0.00000000000E+00 -0.00000000000E+00 -0.61993862296E+02  0.61993862296E+02  0.00000000000E+00 0. -1.
         23    2    1    2    0    0  0.89448765486E+02 -0.34734986803E+03  0.75367570920E+03  0.83986363718E+03  0.93224685380E+02 0.  0.
         13    1    3    3    0    0 -0.93319758156E+01 -0.93797761436E+02  0.25351640513E+03  0.27047305503E+03  0.00000000000E+00 0.  1.
        -13    1    3    3    0    0  0.98780741302E+02 -0.25355210659E+03  0.50015930406E+03  0.56939058216E+03  0.00000000000E+00 0. -1.
         22    1    1    2    0    0 -0.89448765486E+02  0.34734986803E+03  0.16828686828E+04  0.17206684794E+04  0.00000000000E+00 0.  1.
<mgrwt>
<rscale>  0 0.78713159E+03</rscale>
<asrwt>0</asrwt>
<pdfrwt beam="1">  1        2 0.38439042E+00 0.78713159E+03</pdfrwt>
<pdfrwt beam="2">  1       -2 0.95375192E-02 0.78713159E+03</pdfrwt>
<totfact> 0.26742822E+02</totfact>
</mgrwt>
</event>
<event>
 6    1  0.5026615E-004  0.1794165E+04  0.7818608E-02  0.8709409E-01
         -2   -1    0    0    0  501 -0.00000000000E+00  0.00000000000E+00  0.59098467153E+03  0.59098467153E+03  0.00000000000E+00 0. -1.
          2   -1    0    0  501    0  0.00000000000E+00 -0.00000000000E+00 -0.13617226239E+04  0.13617226239E+04  0.00000000000E+00 0.  1.
         23    2    1    2    0    0  0.60698556012E+02 -0.56529743192E+03 -0.11382922154E+04  0.12756979620E+04  0.91927260829E+02 0.  0.
         11    1    3    3    0    0  0.17152093940E+02 -0.94596074827E+02 -0.27702917577E+03  0.29323672336E+03  0.00000000000E+00 0. -1.
        -11    1    3    3    0    0  0.43546462071E+02 -0.47070135710E+03 -0.86126303965E+03  0.98246123863E+03  0.00000000000E+00 0.  1.
         22    1    1    2    0    0 -0.60698556012E+02  0.56529743192E+03  0.36755426307E+03  0.67700933342E+03  0.00000000000E+00 0. -1.
<mgrwt>
<rscale>  0 0.17941652E+04</rscale>
<asrwt>0</asrwt>
<pdfrwt beam="1">  1        2 0.20949579E+00 0.17941652E+04</pdfrwt>
<pdfrwt beam="2">  1       -2 0.90920720E-01 0.17941652E+04</pdfrwt>
<totfact> 0.14842932E+01</totfact>
</mgrwt>
</event>
<event>
 6    1  0.5026615E-004  0.1379142E+04  0.7818608E-02  0.8969056E-01
          2   -1    0    0  501    0  0.00000000000E+00  0.00000000000E+00  0.18519017484E+04  0.18519017484E+04  0.00000000000E+00 0.  1.
         -2   -1    0    0    0  501 -0.00000000000E+00 -0.00000000000E+00 -0.25676756815E+03  0.25676756815E+03  0.00000000000E+00 0. -1.
         23    2    1    2    0    0  0.22687683769E+03  0.30114248395E+03 -0.76117619587E+02  0.39541438119E+03  0.91644670962E+02 0.  0.
         13    1    3    3    0    0  0.93682079984E+02  0.67148247230E+02  0.12619996156E+01  0.11526843392E+03  0.00000000000E+00 0.  1.
        -13    1    3    3    0    0  0.13319475771E+03  0.23399423672E+03 -0.77379619203E+02  0.28014594726E+03  0.00000000000E+00 0. -1.
         22    1    1    2    0    0 -0.22687683769E+03 -0.30114248395E+03  0.16712517998E+04  0.17132549354E+04  0.00000000000E+00 0.  1.
<mgrwt>
<rscale>  0 0.13791422E+04</rscale>
<asrwt>0</asrwt>
<pdfrwt beam="1">  1        2 0.28490795E+00 0.13791422E+04</pdfrwt>
<pdfrwt beam="2">  1       -2 0.39502704E-01 0.13791422E+04</pdfrwt>
<totfact> 0.47714879E+01</totfact>
</mgrwt>
</event>
<event>
 6    1  0.5026615E-004  0.4247934E+04  0.7818608E-02  0.7956316E-01
          2   -1    0    0  501    0  0.00000000000E+00  0.00000000000E+00  0.19032759230E+04  0.19032759230E+04  0.00000000000E+00 0.  1.
         -2   -1    0    0    0  501 -0.00000000000E+00 -0.00000000000E+00 -0.23702482993E+04  0.23702482993E+04  0.00000000000E+00 0. -1.
         23    2    1    2    0    0 -0.15432800448E+04 -0.14576797371E+04 -0.25438026219E+03  0.21400437515E+04  0.92381965949E+02 0.  0.
         13    1    3    3    0    0 -0.14074020607E+04 -0.13034050838E+04 -0.24956602520E+03  0.19344065172E+04  0.00000000000E+00 0.  1.
        -13    1    3    3    0    0 -0.13587798407E+03 -0.15427465338E+03 -0.48142369973E+01  0.20563723424E+03  0.00000000000E+00 0. -1.
         22    1    1    2    0    0  0.15432800448E+04  0.14576797371E+04 -0.21259211409E+03  0.21334804709E+04  0.00000000000E+00 0.  1.
<mgrwt>
<rscale>  0 0.42479343E+04</rscale>
<asrwt>0</asrwt>
<pdfrwt beam="1">  1        2 0.29281168E+00 0.42479343E+04</pdfrwt>
<pdfrwt beam="2">  1       -2 0.36465358E+00 0.42479343E+04</pdfrwt>
<totfact> 0.73430432E-02</totfact>
</mgrwt>
</event>
<event>
 6    1  0.5026615E-004  0.2883715E+04  0.7818608E-02  0.8277739E-01
          2   -1    0    0  501    0  0.00000000000E+00  0.00000000000E+00  0.23540005645E+04  0.23540005645E+04  0.00000000000E+00 0.  1.
         -2   -1    0    0    0  501 -0.00000000000E+00 -0.00000000000E+00 -0.88315743740E+03  0.88315743740E+03  0.00000000000E+00 0. -1.
         23    2    1    2    0    0  0.49241364506E+02  0.10765631065E+04 -0.33692958487E+03  0.11325309536E+04  0.87703942272E+02 0.  0.
         11    1    3    3    0    0  0.36653058016E+02  0.70400819245E+03 -0.26351490974E+03  0.75260287626E+03  0.00000000000E+00 0. -1.
        -11    1    3    3    0    0  0.12588306489E+02  0.37255491404E+03 -0.73414675138E+02  0.37992807735E+03  0.00000000000E+00 0.  1.
         22    1    1    2    0    0 -0.49241364506E+02 -0.10765631065E+04  0.18077727120E+04  0.21046270483E+04  0.00000000000E+00 0.  1.
<mgrwt>
<rscale>  0 0.28837150E+04</rscale>
<asrwt>0</asrwt>
<pdfrwt beam="1">  1        2 0.36215393E+00 0.28837150E+04</pdfrwt>
<pdfrwt beam="2">  1       -2 0.13587038E+00 0.28837150E+04</pdfrwt>
<totfact> 0.14164157E+00</totfact>
</mgrwt>
</event>
<event>
 6    1  0.5026615E-004  0.1486281E+04  0.7818608E-02  0.8893627E-01
         -2   -1    0    0    0  501 -0.00000000000E+00  0.00000000000E+00  0.40774673163E+03  0.40774673163E+03  0.00000000000E+00 0. -1.
          2   -1    0    0  501    0  0.00000000000E+00 -0.00000000000E+00 -0.13544140808E+04  0.13544140808E+04  0.00000000000E+00 0.  1.
         23    2    1    2    0    0 -0.49783251395E+03 -0.51288455992E+03 -0.24655995965E+03  0.76164187677E+03  0.91753751921E+02 0.  0.
         13    1    3    3    0    0 -0.32965518180E+03 -0.27508119843E+03 -0.14445177093E+03  0.45299946881E+03  0.00000000000E+00 0. -1.
        -13    1    3    3    0    0 -0.16817733215E+03 -0.23780336150E+03 -0.10210818872E+03  0.30864240796E+03  0.00000000000E+00 0.  1.
         22    1    1    2    0    0  0.49783251395E+03  0.51288455992E+03 -0.70010738950E+03  0.10005189356E+04  0.00000000000E+00 0. -1.
<mgrwt>
<rscale>  0 0.14862812E+04</rscale>
<asrwt>0</asrwt>
<pdfrwt beam="1">  1        2 0.20837140E+00 0.14862812E+04</pdfrwt>
<pdfrwt beam="2">  1       -2 0.62730266E-01 0.14862812E+04</pdfrwt>
<totfact> 0.35025168E+01</totfact>
</mgrwt>
</event>
<event>
 6    1  0.5026615E-004  0.2000540E+04  0.7818608E-02  0.8606368E-01
         -2   -1    0    0    0  501 -0.00000000000E+00  0.00000000000E+00  0.39900686235E+03  0.39900686235E+03  0.00000000000E+00 0. -1.
          2   -1    0    0  501    0  0.00000000000E+00 -0.00000000000E+00 -0.25075762777E+04  0.25075762777E+04  0.00000000000E+00 0.  1.
         23    2    1    2    0    0  0.59840066831E+03  0.41421325110E+03 -0.20491172051E+04  0.21763841655E+04  0.90059637537E+02 0.  0.
         11    1    3    3    0    0  0.26943687197E+03  0.18700400391E+03 -0.10579572225E+04  0.11076281913E+04  0.00000000000E+00 0.  1.
        -11    1    3    3    0    0  0.32896379634E+03  0.22720924719E+03 -0.99115998257E+03  0.10687559742E+04  0.00000000000E+00 0. -1.
         22    1    1    2    0    0 -0.59840066831E+03 -0.41421325110E+03 -0.59452210308E+02  0.73019897462E+03  0.00000000000E+00 0. -1.
<mgrwt>
<rscale>  0 0.20005401E+04</rscale>
<asrwt>0</asrwt>
<pdfrwt beam="1">  1        2 0.38578096E+00 0.20005401E+04</pdfrwt>
<pdfrwt beam="2">  1       -2 0.61385672E-01 0.20005401E+04</pdfrwt>
<totfact> 0.79039009E+00</totfact>
</mgrwt>
</event>
<event>
 6    1  0.5026615E-004  0.1797743E+04  0.7818608E-02  0.8707500E-01
          2   -1    0    0  501    0  0.00000000000E+00  0.00000000000E+00  0.79237313722E+03  0.79237313722E+03  0.00000000000E+00 0.  1.
         -2   -1    0    0    0  501 -0.00000000000E+00 -0.00000000000E+00 -0.10196841780E+04  0.10196841780E+04  0.00000000000E+00 0. -1.
         23    2    1    2    0    0  0.53290449039E+03  0.60313019930E+03  0.28442810889E+03  0.85831196633E+03  0.89704231970E+02 0.  0.
         13    1    3    3    0    0  0.38875819039E+03  0.38330309113E+03  0.21182590023E+03  0.58559747461E+03  0.00000000000E+00 0. -1.
        -13    1    3    3    0    0  0.14414630000E+03  0.21982710817E+03  0.72602208661E+02  0.27271449172E+03  0.00000000000E+00 0.  1.
         22    1    1    2    0    0 -0.53290449039E+03 -0.60313019930E+03 -0.51173914964E+03  0.95374534885E+03  0.00000000000E+00 0. -1.
<mgrwt>
<rscale>  0 0.17977434E+04</rscale>
<asrwt>0</asrwt>
<pdfrwt beam="1">  1        2 0.12190356E+00 0.17977434E+04</pdfrwt>
<pdfrwt beam="2">  1       -2 0.15687449E+00 0.17977434E+04</pdfrwt>
<totfact> 0.87507889E+00</totfact>
</mgrwt>
</event>
<event>
 6    1  0.5026615E-004  0.2488976E+04  0.7818608E-02  0.8406924E-01
          2   -1    0    0  501    0  0.00000000000E+00  0.00000000000E+00  0.10760307169E+04  0.10760307169E+04  0.00000000000E+00 0.  1.
         -2   -1    0    0    0  501 -0.00000000000E+00 -0.00000000000E+00 -0.14393175692E+04  0.14393175692E+04  0.00000000000E+00 0. -1.
         23    2    1    2    0    0 -0.66836000917E+03 -0.76713488497E+03 -0.90390103022E+03  0.13631917329E+04  0.77804849254E+02 0.  0.
         11    1    3    3    0    0 -0.28656212197E+03 -0.37345492079E+03 -0.38356982431E+03  0.60721679631E+03  0.00000000000E+00 0. -1.
        -11    1    3    3    0    0 -0.38179788720E+03 -0.39367996418E+03 -0.52033120592E+03  0.75597493657E+03  0.00000000000E+00 0.  1.
         22    1    1    2    0    0  0.66836000917E+03  0.76713488497E+03  0.54061417798E+03  0.11521565532E+04  0.00000000000E+00 0.  1.
<mgrwt>
<rscale>  0 0.24889756E+04</rscale>
<asrwt>0</asrwt>
<pdfrwt beam="1">  1        2 0.16554319E+00 0.24889756E+04</pdfrwt>
<pdfrwt beam="2">  1       -2 0.22143347E+00 0.24889756E+04</pdfrwt>
<totfact> 0.19477671E+00</totfact>
</mgrwt>
</event>
<event>
 6    1  0.5026615E-004  0.2479337E+04  0.7818608E-02  0.8410384E-01
          2   -1    0    0  501    0  0.00000000000E+00  0.00000000000E+00  0.25154786403E+04  0.25154786403E+04  0.00000000000E+00 0.  1.
         -2   -1    0    0    0  501 -0.00000000000E+00 -0.00000000000E+00 -0.61092890308E+03  0.61092890308E+03  0.00000000000E+00 0. -1.
         23    2    1    2    0    0 -0.27450435560E+03 -0.41785141026E+03 -0.47454560404E+03  0.69534870305E+03  0.91454066175E+02 0.  0.
         13    1    3    3    0    0 -0.85435272812E+02 -0.21125048296E+03 -0.20065417872E+03  0.30362485377E+03  0.00000000000E+00 0. -1.
        -13    1    3    3    0    0 -0.18906908279E+03 -0.20660092730E+03 -0.27389142533E+03  0.39172384928E+03  0.00000000000E+00 0.  1.
         22    1    1    2    0    0  0.27450435560E+03  0.41785141026E+03  0.23790953413E+04  0.24310588404E+04  0.00000000000E+00 0.  1.
<mgrwt>
<rscale>  0 0.24793375E+04</rscale>
<asrwt>0</asrwt>
<pdfrwt beam="1">  1        2 0.38699671E+00 0.24793375E+04</pdfrwt>
<pdfrwt beam="2">  1       -2 0.93989064E-01 0.24793375E+04</pdfrwt>
<totfact> 0.29105806E+00</totfact>
</mgrwt>
</event>
<event>
 6    1  0.5026615E-004  0.1816368E+04  0.7818608E-02  0.8697643E-01
          2   -1    0    0  501    0  0.00000000000E+00  0.00000000000E+00  0.81225371200E+03  0.81225371200E+03  0.00000000000E+00 0.  1.
         -2   -1    0    0    0  501 -0.00000000000E+00 -0.00000000000E+00 -0.10154441978E+04  0.10154441978E+04  0.00000000000E+00 0. -1.
         23    2    1    2    0    0 -0.17514134939E+03 -0.87291671294E+03  0.68108974908E+02  0.89696622053E+03  0.85155671069E+02 0.  0.
         11    1    3    3    0    0 -0.68787499188E+02 -0.44233131916E+03 -0.37111674135E+01  0.44766336540E+03  0.00000000000E+00 0.  1.
        -11    1    3    3    0    0 -0.10635385020E+03 -0.43058539377E+03  0.71820142322E+02  0.44930285513E+03  0.00000000000E+00 0. -1.
         22    1    1    2    0    0  0.17514134939E+03  0.87291671294E+03 -0.27129946068E+03  0.93073168924E+03  0.00000000000E+00 0. -1.
<mgrwt>
<rscale>  0 0.18163682E+04</rscale>
<asrwt>0</asrwt>
<pdfrwt beam="1">  1        2 0.12496211E+00 0.18163682E+04</pdfrwt>
<pdfrwt beam="2">  1       -2 0.15622218E+00 0.18163682E+04</pdfrwt>
<totfact> 0.85496553E+00</totfact>
</mgrwt>
</event>
<event>
 6    1  0.5026615E-004  0.1815474E+04  0.7818608E-02  0.8698113E-01
          2   -1    0    0  501    0  0.00000000000E+00  0.00000000000E+00  0.29667374518E+04  0.29667374518E+04  0.00000000000E+00 0.  1.
         -2   -1    0    0    0  501 -0.00000000000E+00 -0.00000000000E+00 -0.27774169186E+03  0.27774169186E+03  0.00000000000E+00 0. -1.
         23    2    1    2    0    0  0.46413791863E+03  0.54311494706E+03  0.23415774426E+04  0.24500627916E+04  0.97081974435E+02 0.  0.
         11    1    3    3    0    0  0.19902580489E+03  0.30743500550E+03  0.12003824745E+04  0.12550082226E+04  0.00000000000E+00 0. -1.
        -11    1    3    3    0    0  0.26511211375E+03  0.23567994156E+03  0.11411949680E+04  0.11950545690E+04  0.00000000000E+00 0.  1.
         22    1    1    2    0    0 -0.46413791863E+03 -0.54311494706E+03  0.34741831733E+03  0.79441635207E+03  0.00000000000E+00 0. -1.
<mgrwt>
<rscale>  0 0.18154742E+04</rscale>
<asrwt>0</asrwt>
<pdfrwt beam="1">  1        2 0.45642112E+00 0.18154742E+04</pdfrwt>
<pdfrwt beam="2">  1       -2 0.42729493E-01 0.18154742E+04</pdfrwt>
<totfact> 0.89740207E+00</totfact>
</mgrwt>
</event>
<event>
 6    1  0.5026615E-004  0.1039054E+04  0.7818608E-02  0.9266719E-01
          2   -1    0    0  501    0  0.00000000000E+00  0.00000000000E+00  0.16196633201E+04  0.16196633201E+04  0.00000000000E+00 0.  1.
         -2   -1    0    0    0  501 -0.00000000000E+00 -0.00000000000E+00 -0.16664453889E+03  0.16664453889E+03  0.00000000000E+00 0. -1.
         23    2    1    2    0    0  0.38284684919E+03  0.13164265460E+03  0.18361923844E+03  0.45391276081E+03  0.91756586972E+02 0.  0.
         11    1    3    3    0    0  0.17983250608E+03  0.23905229448E+02  0.50493435879E+02  0.18831032182E+03  0.00000000000E+00 0. -1.
        -11    1    3    3    0    0  0.20301434312E+03  0.10773742515E+03  0.13312580256E+03  0.26560243899E+03  0.00000000000E+00 0.  1.
         22    1    1    2    0    0 -0.38284684919E+03 -0.13164265460E+03  0.12693995428E+04  0.13323950982E+04  0.00000000000E+00 0.  1.
<mgrwt>
<rscale>  0 0.10390535E+04</rscale>
<asrwt>0</asrwt>
<pdfrwt beam="1">  1        2 0.24917896E+00 0.10390535E+04</pdfrwt>
<pdfrwt beam="2">  1       -2 0.25637622E-01 0.10390535E+04</pdfrwt>
<totfact> 0.14840285E+02</totfact>
</mgrwt>
</event>
<event>
 6    1  0.5026615E-004  0.2515897E+04  0.7818608E-02  0.8397344E-01
         -2   -1    0    0    0  501 -0.00000000000E+00  0.00000000000E+00  0.77852744435E+03  0.77852744435E+03  0.00000000000E+00 0. -1.
          2   -1    0    0  501    0  0.00000000000E+00 -0.00000000000E+00 -0.20325996678E+04  0.20325996678E+04  0.00000000000E+00 0.  1.
         23    2    1    2    0    0 -0.76393323648E+03 -0.22670624240E+03  0.45750512554E+03  0.92314227860E+03  0.88831393618E+02 0.  0.
         13    1    3    3    0    0 -0.57026700901E+03 -0.14898107385E+03  0.29783307356E+03  0.66038198161E+03  0.00000000000E+00 0.  1.
        -13    1    3    3    0    0 -0.19366622748E+03 -0.77725168549E+02  0.15967205197E+03  0.26276029699E+03  0.00000000000E+00 0. -1.
         22    1    1    2    0    0  0.76393323648E+03  0.22670624240E+03 -0.17115773490E+04  0.18879848336E+04  0.00000000000E+00 0.  1.
<mgrwt>
<rscale>  0 0.25158972E+04</rscale>
<asrwt>0</asrwt>
<pdfrwt beam="1">  1        2 0.31270764E+00 0.25158972E+04</pdfrwt>
<pdfrwt beam="2">  1       -2 0.11977345E+00 0.25158972E+04</pdfrwt>
<totfact> 0.30448709E+00</totfact>
</mgrwt>
</event>
<event>
 6    1  0.5026615E-004  0.2229128E+04  0.7818608E-02  0.8506401E-01
          2   -1    0    0  501    0  0.00000000000E+00  0.00000000000E+00  0.18109059880E+04  0.18109059880E+04  0.00000000000E+00 0.  1.
         -2   -1    0    0    0  501 -0.00000000000E+00 -0.00000000000E+00 -0.68598421457E+03  0.68598421457E+03  0.00000000000E+00 0. -1.
         23    2    1    2    0    0  0.20279167414E+03 -0.37906657334E+03 -0.58588687277E+03  0.73289412717E+03  0.95154841335E+02 0.  0.
         11    1    3    3    0    0  0.53877891935E+02 -0.19517449481E+03 -0.24324929626E+03  0.31649033286E+03  0.00000000000E+00 0. -1.
        -11    1    3    3    0    0  0.14891378221E+03 -0.18389207853E+03 -0.34263757651E+03  0.41640379431E+03  0.00000000000E+00 0.  1.
         22    1    1    2    0    0 -0.20279167414E+03  0.37906657334E+03  0.17108086462E+04  0.17639960754E+04  0.00000000000E+00 0.  1.
<mgrwt>
<rscale>  0 0.22291280E+04</rscale>
<asrwt>0</asrwt>
<pdfrwt beam="1">  1        2 0.27860092E+00 0.22291280E+04</pdfrwt>
<pdfrwt beam="2">  1       -2 0.10553603E+00 0.22291280E+04</pdfrwt>
<totfact> 0.56344744E+00</totfact>
</mgrwt>
</event>
<event>
 6    1  0.5026615E-004  0.2345053E+04  0.7818608E-02  0.8460366E-01
         -2   -1    0    0    0  501 -0.00000000000E+00  0.00000000000E+00  0.93605605360E+03  0.93605605360E+03  0.00000000000E+00 0. -1.
          2   -1    0    0  501    0  0.00000000000E+00 -0.00000000000E+00 -0.14687345162E+04  0.14687345162E+04  0.00000000000E+00 0.  1.
         23    2    1    2    0    0 -0.10604565271E+04 -0.23437690127E+03  0.18175494833E+03  0.11048230023E+04  0.89991263104E+02 0.  0.
         11    1    3    3    0    0 -0.61445677974E+03 -0.11688382542E+03  0.14555835223E+03  0.64218859903E+03  0.00000000000E+00 0. -1.
        -11    1    3    3    0    0 -0.44599974740E+03 -0.11749307585E+03  0.36196596099E+02  0.46263440331E+03  0.00000000000E+00 0.  1.
         22    1    1    2    0    0  0.10604565271E+04  0.23437690127E+03 -0.71443341094E+03  0.12999675675E+04  0.00000000000E+00 0.  1.
<mgrwt>
<rscale>  0 0.23450525E+04</rscale>
<asrwt>0</asrwt>
<pdfrwt beam="1">  1        2 0.22595915E+00 0.23450525E+04</pdfrwt>
<pdfrwt beam="2">  1       -2 0.14400863E+00 0.23450525E+04</pdfrwt>
<totfact> 0.39853434E+00</totfact>
</mgrwt>
</event>
<event>
 6    1  0.5026615E-004  0.2789692E+04  0.7818608E-02  0.8306476E-01
          2   -1    0    0  501    0  0.00000000000E+00  0.00000000000E+00  0.13347373090E+04  0.13347373090E+04  0.00000000000E+00 0.  1.
         -2   -1    0    0    0  501 -0.00000000000E+00 -0.00000000000E+00 -0.14576611680E+04  0.14576611680E+04  0.00000000000E+00 0. -1.
         23    2    1    2    0    0  0.97052316870E+03  0.97629010696E+03 -0.27665352414E+03  0.14072304713E+04  0.93288976490E+02 0.  0.
         13    1    3    3    0    0  0.36967503050E+03  0.40834245563E+03 -0.14923623452E+03  0.57067910680E+03  0.00000000000E+00 0.  1.
        -13    1    3    3    0    0  0.60084813820E+03  0.56794765133E+03 -0.12741728963E+03  0.83655136455E+03  0.00000000000E+00 0. -1.
         22    1    1    2    0    0 -0.97052316870E+03 -0.97629010696E+03  0.15372966522E+03  0.13851680057E+04  0.00000000000E+00 0. -1.
<mgrwt>
<rscale>  0 0.27896916E+04</rscale>
<asrwt>0</asrwt>
<pdfrwt beam="1">  1        2 0.20534420E+00 0.27896916E+04</pdfrwt>
<pdfrwt beam="2">  1       -2 0.22425556E+00 0.27896916E+04</pdfrwt>
<totfact> 0.12767236E+00</totfact>
</mgrwt>
</event>
<event>
 6    1  0.5026615E-004  0.3044617E+04  0.7818608E-02  0.8231104E-01
          1   -1    0    0  501    0  0.00000000000E+00  0.00000000000E+00  0.22944890572E+04  0.22944890572E+04  0.00000000000E+00 0.  1.
         -1   -1    0    0    0  501 -0.00000000000E+00 -0.00000000000E+00 -0.10099953771E+04  0.10099953771E+04  0.00000000000E+00 0. -1.
         23    2    1    2    0    0 -0.32871388563E+03  0.47233926497E+03  0.21711150932E+04  0.22474817237E+04  0.79222161522E+02 0.  0.
         11    1    3    3    0    0 -0.82574618584E+02  0.14700660578E+03  0.76634287988E+03  0.78467249176E+03  0.00000000000E+00 0.  1.
        -11    1    3    3    0    0 -0.24613926704E+03  0.32533265919E+03  0.14047722133E+04  0.14628092320E+04  0.00000000000E+00 0. -1.
         22    1    1    2    0    0  0.32871388563E+03 -0.47233926497E+03 -0.88662141310E+03  0.10570027105E+04  0.00000000000E+00 0. -1.
<mgrwt>
<rscale>  0 0.30446171E+04</rscale>
<asrwt>0</asrwt>
<pdfrwt beam="1">  1        1 0.35299831E+00 0.30446171E+04</pdfrwt>
<pdfrwt beam="2">  1       -1 0.15538390E+00 0.30446171E+04</pdfrwt>
<totfact> 0.50441136E-01</totfact>
</mgrwt>
</event>
<event>
 6    1  0.5026615E-004  0.1919549E+04  0.7818608E-02  0.8645186E-01
         -2   -1    0    0    0  501 -0.00000000000E+00  0.00000000000E+00  0.33383508356E+03  0.33383508356E+03  0.00000000000E+00 0. -1.
          2   -1    0    0  501    0  0.00000000000E+00 -0.00000000000E+00 -0.27593490228E+04  0.27593490228E+04  0.00000000000E+00 0.  1.
         23    2    1    2    0    0  0.89347452463E+03 -0.31450179290E+03 -0.98895275756E+03  0.13724528279E+04  0.91602970977E+02 0.  0.
         11    1    3    3    0    0  0.41823099553E+03 -0.11914050874E+03 -0.50718649172E+03  0.66809412797E+03  0.00000000000E+00 0. -1.
        -11    1    3    3    0    0  0.47524352910E+03 -0.19536128416E+03 -0.48176626585E+03  0.70435869996E+03  0.00000000000E+00 0.  1.
         22    1    1    2    0    0 -0.89347452463E+03  0.31450179290E+03 -0.14365611816E+04  0.17207312784E+04  0.00000000000E+00 0. -1.
<mgrwt>
<rscale>  0 0.19195494E+04</rscale>
<asrwt>0</asrwt>
<pdfrwt beam="1">  1        2 0.42451521E+00 0.19195494E+04</pdfrwt>
<pdfrwt beam="2">  1       -2 0.51359247E-01 0.19195494E+04</pdfrwt>
<totfact> 0.82096698E+00</totfact>
</mgrwt>
</event>
<event>
 6    1  0.5026615E-004  0.2333773E+04  0.7818608E-02  0.8464723E-01
         -2   -1    0    0    0  501 -0.00000000000E+00  0.00000000000E+00  0.11388428039E+04  0.11388428039E+04  0.00000000000E+00 0. -1.
          2   -1    0    0  501    0  0.00000000000E+00 -0.00000000000E+00 -0.11956206560E+04  0.11956206560E+04  0.00000000000E+00 0.  1.
         23    2    1    2    0    0  0.75617282798E+03  0.71008322033E+03  0.50233192170E+03  0.11560665553E+04  0.90205295104E+02 0.  0.
         13    1    3    3    0    0  0.37474189054E+03  0.41254530844E+03  0.25964699774E+03  0.61485094086E+03  0.00000000000E+00 0. -1.
        -13    1    3    3    0    0  0.38143093743E+03  0.29753791189E+03  0.24268492396E+03  0.54121561448E+03  0.00000000000E+00 0.  1.
         22    1    1    2    0    0 -0.75617282798E+03 -0.71008322033E+03 -0.55910977382E+03  0.11783969046E+04  0.00000000000E+00 0.  1.
<mgrwt>
<rscale>  0 0.23337729E+04</rscale>
<asrwt>0</asrwt>
<pdfrwt beam="1">  1        2 0.18394164E+00 0.23337729E+04</pdfrwt>
<pdfrwt beam="2">  1       -2 0.17520659E+00 0.23337729E+04</pdfrwt>
<totfact> 0.33737665E+00</totfact>
</mgrwt>
</event>
<event>
 6    1  0.5026615E-004  0.2693914E+04  0.7818608E-02  0.8336982E-01
         -4   -1    0    0    0  501 -0.00000000000E+00  0.00000000000E+00  0.11845667962E+04  0.11845667962E+04  0.00000000000E+00 0. -1.
          4   -1    0    0  501    0  0.00000000000E+00 -0.00000000000E+00 -0.15316085859E+04  0.15316085859E+04  0.00000000000E+00 0.  1.
         23    2    1    2    0    0  0.12007562687E+04  0.38931466776E+03 -0.64315027138E+03  0.14196177242E+04  0.91053193165E+02 0.  0.
         11    1    3    3    0    0  0.33015176192E+03  0.13898629894E+03 -0.15165273262E+03  0.38899348131E+03  0.00000000000E+00 0. -1.
        -11    1    3    3    0    0  0.87060450679E+03  0.25032836882E+03 -0.49149753876E+03  0.10306242429E+04  0.00000000000E+00 0.  1.
         22    1    1    2    0    0 -0.12007562687E+04 -0.38931466776E+03  0.29610848170E+03  0.12965576579E+04  0.00000000000E+00 0.  1.
<mgrwt>
<rscale>  0 0.26939136E+04</rscale>
<asrwt>0</asrwt>
<pdfrwt beam="1">  1        4 0.23563209E+00 0.26939136E+04</pdfrwt>
<pdfrwt beam="2">  1       -4 0.18224105E+00 0.26939136E+04</pdfrwt>
<totfact> 0.23540710E-02</totfact>
</mgrwt>
</event>
<event>
 6    1  0.5026615E-004  0.2768270E+03  0.7818608E-02  0.1097435E+00
         -3   -1    0    0    0  501 -0.00000000000E+00  0.00000000000E+00  0.95353545358E+01  0.95353545358E+01  0.00000000000E+00 0. -1.
          3   -1    0    0  501    0  0.00000000000E+00 -0.00000000000E+00 -0.20091856750E+04  0.20091856750E+04  0.00000000000E+00 0.  1.
         23    2    1    2    0    0 -0.70482557271E+02  0.39658867744E+01 -0.18467781643E+04  0.18503363055E+04  0.90395444670E+02 0.  0.
         11    1    3    3    0    0 -0.41201722388E+02  0.16135097105E+02 -0.16792975368E+04  0.16798803947E+04  0.00000000000E+00 0.  1.
        -11    1    3    3    0    0 -0.29280834883E+02 -0.12169210331E+02 -0.16748062745E+03  0.17045591084E+03  0.00000000000E+00 0. -1.
         22    1    1    2    0    0  0.70482557271E+02 -0.39658867744E+01 -0.15287215619E+03  0.16838472399E+03  0.00000000000E+00 0. -1.
<mgrwt>
<rscale>  0 0.27682701E+03</rscale>
<asrwt>0</asrwt>
<pdfrwt beam="1">  1        3 0.30910568E+00 0.27682701E+03</pdfrwt>
<pdfrwt beam="2">  1       -3 0.14669767E-02 0.27682701E+03</pdfrwt>
<totfact> 0.15458734E+02</totfact>
</mgrwt>
</event>
<event>
 6    1  0.5026615E-004  0.1486848E+04  0.7818608E-02  0.8893246E-01
          2   -1    0    0  501    0  0.00000000000E+00  0.00000000000E+00  0.45249463701E+04  0.45249463701E+04  0.00000000000E+00 0.  1.
         -2   -1    0    0    0  501 -0.00000000000E+00 -0.00000000000E+00 -0.12214049271E+03  0.12214049271E+03  0.00000000000E+00 0. -1.
         23    2    1    2    0    0 -0.39503645793E+03 -0.47066613040E+03  0.35021744435E+04  0.35568036936E+04  0.89701017291E+02 0.  0.
         11    1    3    3    0    0 -0.17825196079E+03 -0.21604075934E+03  0.13439548752E+04  0.13728299522E+04  0.00000000000E+00 0. -1.
        -11    1    3    3    0    0 -0.21678449715E+03 -0.25462537106E+03  0.21582195683E+04  0.21839737414E+04  0.00000000000E+00 0.  1.
         22    1    1    2    0    0  0.39503645793E+03  0.47066613040E+03  0.90063143387E+03  0.10902831692E+04  0.00000000000E+00 0. -1.
<mgrwt>
<rscale>  0 0.14868479E+04</rscale>
<asrwt>0</asrwt>
<pdfrwt beam="1">  1        2 0.69614547E+00 0.14868479E+04</pdfrwt>
<pdfrwt beam="2">  1       -2 0.18790848E-01 0.14868479E+04</pdfrwt>
<totfact> 0.27834077E+00</totfact>
</mgrwt>
</event>
<event>
 6    1  0.5026615E-004  0.1413786E+04  0.7818608E-02  0.8943900E-01
          1   -1    0    0  501    0  0.00000000000E+00  0.00000000000E+00  0.36884537316E+04  0.36884537316E+04  0.00000000000E+00 0. -1.
         -1   -1    0    0    0  501 -0.00000000000E+00 -0.00000000000E+00 -0.13547614459E+03  0.13547614459E+03  0.00000000000E+00 0.  1.
         23    2    1    2    0    0 -0.17525526417E+03 -0.64406848456E+03  0.23890410613E+04  0.24821821889E+04  0.90402466615E+02 0.  0.
         11    1    3    3    0    0 -0.69161031066E+02 -0.36793042006E+03  0.12096418004E+04  0.12662501047E+04  0.00000000000E+00 0.  1.
        -11    1    3    3    0    0 -0.10609423311E+03 -0.27613806450E+03  0.11793992608E+04  0.12159320842E+04  0.00000000000E+00 0. -1.
         22    1    1    2    0    0  0.17525526417E+03  0.64406848456E+03  0.11639365257E+04  0.13417476873E+04  0.00000000000E+00 0. -1.
<mgrwt>
<rscale>  0 0.14137857E+04</rscale>
<asrwt>0</asrwt>
<pdfrwt beam="1">  1        1 0.56745434E+00 0.14137857E+04</pdfrwt>
<pdfrwt beam="2">  1       -1 0.20842487E-01 0.14137857E+04</pdfrwt>
<totfact> 0.33342614E+00</totfact>
</mgrwt>
</event>
<event>
 6    1  0.5026615E-004  0.1193561E+04  0.7818608E-02  0.9118512E-01
         -2   -1    0    0    0  501 -0.00000000000E+00  0.00000000000E+00  0.36932148475E+03  0.36932148475E+03  0.00000000000E+00 0. -1.
          2   -1    0    0  501    0  0.00000000000E+00 -0.00000000000E+00 -0.96432720442E+03  0.96432720442E+03  0.00000000000E+00 0.  1.
         23    2    1    2    0    0  0.31025440164E+03  0.23636727276E+03  0.20011944607E+03  0.44801258411E+03  0.92413210399E+02 0.  0.
         13    1    3    3    0    0  0.22301981894E+03  0.12017072942E+03  0.14945116202E+03  0.29413346236E+03  0.00000000000E+00 0.  1.
        -13    1    3    3    0    0  0.87234582704E+02  0.11619654334E+03  0.50668284054E+02  0.15387912176E+03  0.00000000000E+00 0. -1.
         22    1    1    2    0    0 -0.31025440164E+03 -0.23636727276E+03 -0.79512516575E+03  0.88563610505E+03  0.00000000000E+00 0.  1.
<mgrwt>
<rscale>  0 0.11935606E+04</rscale>
<asrwt>0</asrwt>
<pdfrwt beam="1">  1        2 0.14835803E+00 0.11935606E+04</pdfrwt>
<pdfrwt beam="2">  1       -2 0.56818691E-01 0.11935606E+04</pdfrwt>
<totfact> 0.76187507E+01</totfact>
</mgrwt>
</event>
<event>
 6    1  0.5026615E-004  0.3699650E+04  0.7818608E-02  0.8068040E-01
          2   -1    0    0  501    0  0.00000000000E+00  0.00000000000E+00  0.24163339191E+04  0.24163339191E+04  0.00000000000E+00 0.  1.
         -2   -1    0    0    0  501 -0.00000000000E+00 -0.00000000000E+00 -0.14161335982E+04  0.14161335982E+04  0.00000000000E+00 0. -1.
         23    2    1    2    0    0 -0.99506749506E+03 -0.19868738924E+03 -0.11003578253E+04  0.14996622266E+04  0.92538921862E+02 0.  0.
         13    1    3    3    0    0 -0.73432516569E+03 -0.12908723654E+03 -0.75154187621E+03  0.10586369327E+04  0.00000000000E+00 0.  1.
        -13    1    3    3    0    0 -0.26074232937E+03 -0.69600152698E+02 -0.34881594905E+03  0.44102529394E+03  0.00000000000E+00 0. -1.
         22    1    1    2    0    0  0.99506749506E+03  0.19868738924E+03  0.21005581462E+04  0.23328052906E+04  0.00000000000E+00 0.  1.
<mgrwt>
<rscale>  0 0.36996495E+04</rscale>
<asrwt>0</asrwt>
<pdfrwt beam="1">  1        2 0.37174368E+00 0.36996495E+04</pdfrwt>
<pdfrwt beam="2">  1       -2 0.21786671E+00 0.36996495E+04</pdfrwt>
<totfact> 0.32070674E-01</totfact>
</mgrwt>
</event>
<event>
 6    1  0.5026615E-004  0.1152854E+04  0.7818608E-02  0.9155155E-01
         -2   -1    0    0    0  501 -0.00000000000E+00  0.00000000000E+00  0.64840488461E+03  0.64840488461E+03  0.00000000000E+00 0. -1.
          2   -1    0    0  501    0  0.00000000000E+00 -0.00000000000E+00 -0.51243894757E+03  0.51243894757E+03  0.00000000000E+00 0.  1.
         23    2    1    2    0    0  0.38503679573E+03 -0.40494872990E+03 -0.58140281132E+02  0.56930851468E+03  0.92168783721E+02 0.  0.
         11    1    3    3    0    0  0.25738500738E+03 -0.24716797405E+03  0.46125604355E+01  0.35687578390E+03  0.00000000000E+00 0.  1.
        -11    1    3    3    0    0  0.12765178835E+03 -0.15778075584E+03 -0.62752841567E+02  0.21243273078E+03  0.00000000000E+00 0. -1.
         22    1    1    2    0    0 -0.38503679573E+03  0.40494872990E+03  0.19410621817E+03  0.59153531749E+03  0.00000000000E+00 0. -1.
<mgrwt>
<rscale>  0 0.11528537E+04</rscale>
<asrwt>0</asrwt>
<pdfrwt beam="1">  1        2 0.78836761E-01 0.11528537E+04</pdfrwt>
<pdfrwt beam="2">  1       -2 0.99754598E-01 0.11528537E+04</pdfrwt>
<totfact> 0.49215271E+01</totfact>
</mgrwt>
</event>
<event>
 6    1  0.5026615E-004  0.8687625E+03  0.7818608E-02  0.9465495E-01
         -2   -1    0    0    0  501 -0.00000000000E+00  0.00000000000E+00  0.18147222768E+03  0.18147222768E+03  0.00000000000E+00 0. -1.
          2   -1    0    0  501    0  0.00000000000E+00 -0.00000000000E+00 -0.10397573494E+04  0.10397573494E+04  0.00000000000E+00 0.  1.
         23    2    1    2    0    0  0.10154340117E+03 -0.41119482212E+03 -0.53311884520E+03  0.68725827498E+03  0.93359463174E+02 0.  0.
         13    1    3    3    0    0  0.32328841714E+01 -0.13356805178E+03 -0.21999659681E+03  0.25738954642E+03  0.00000000000E+00 0. -1.
        -13    1    3    3    0    0  0.98310516995E+02 -0.27762677034E+03 -0.31312224839E+03  0.42986872856E+03  0.00000000000E+00 0.  1.
         22    1    1    2    0    0 -0.10154340117E+03  0.41119482212E+03 -0.32516627647E+03  0.53397130205E+03  0.00000000000E+00 0. -1.
<mgrwt>
<rscale>  0 0.86876253E+03</rscale>
<asrwt>0</asrwt>
<pdfrwt beam="1">  1        2 0.15996267E+00 0.86876253E+03</pdfrwt>
<pdfrwt beam="2">  1       -2 0.27918805E-01 0.86876253E+03</pdfrwt>
<totfact> 0.27903291E+02</totfact>
</mgrwt>
</event>
<event>
 6    1  0.5026615E-004  0.3490191E+04  0.7818608E-02  0.8116118E-01
          2   -1    0    0  501    0  0.00000000000E+00  0.00000000000E+00  0.46108659262E+04  0.46108659262E+04  0.00000000000E+00 0.  1.
         -2   -1    0    0    0  501 -0.00000000000E+00 -0.00000000000E+00 -0.66047438290E+03  0.66047438290E+03  0.00000000000E+00 0. -1.
         23    2    1    2    0    0  0.32314194718E+03  0.10226244190E+04 -0.10044296104E+03  0.10809415689E+04  0.90357438428E+02 0.  0.
         13    1    3    3    0    0  0.21668555404E+03  0.65390931835E+03 -0.10684466021E+03  0.69711247828E+03  0.00000000000E+00 0. -1.
        -13    1    3    3    0    0  0.10645639314E+03  0.36871510062E+03  0.64016991694E+01  0.38382909063E+03  0.00000000000E+00 0.  1.
         22    1    1    2    0    0 -0.32314194718E+03 -0.10226244190E+04  0.40508345043E+04  0.41903987402E+04  0.00000000000E+00 0.  1.
<mgrwt>
<rscale>  0 0.34901913E+04</rscale>
<asrwt>0</asrwt>
<pdfrwt beam="1">  1        2 0.70936397E+00 0.34901913E+04</pdfrwt>
<pdfrwt beam="2">  1       -2 0.10161145E+00 0.34901913E+04</pdfrwt>
<totfact> 0.61953159E-02</totfact>
</mgrwt>
</event>
<event>
 6    1  0.5026615E-004  0.8623100E+03  0.7818608E-02  0.9473962E-01
         -2   -1    0    0    0  501 -0.00000000000E+00  0.00000000000E+00  0.55019690873E+02  0.55019690873E+02  0.00000000000E+00 0. -1.
          2   -1    0    0  501    0  0.00000000000E+00 -0.00000000000E+00 -0.33786928392E+04  0.33786928392E+04  0.00000000000E+00 0.  1.
         23    2    1    2    0    0 -0.34346598868E+03 -0.62499350696E+02 -0.26561330848E+04  0.26803966663E+04  0.87225399076E+02 0.  0.
         11    1    3    3    0    0 -0.94158635688E+02 -0.26178474477E+02 -0.10608356156E+04  0.10653278203E+04  0.00000000000E+00 0. -1.
        -11    1    3    3    0    0 -0.24930735299E+03 -0.36320876219E+02 -0.15952974692E+04  0.16150688461E+04  0.00000000000E+00 0.  1.
         22    1    1    2    0    0  0.34346598868E+03  0.62499350696E+02 -0.66754006352E+03  0.75331586378E+03  0.00000000000E+00 0. -1.
<mgrwt>
<rscale>  0 0.86231000E+03</rscale>
<asrwt>0</asrwt>
<pdfrwt beam="1">  1        2 0.51979897E+00 0.86231000E+03</pdfrwt>
<pdfrwt beam="2">  1       -2 0.84645666E-02 0.86231000E+03</pdfrwt>
<totfact> 0.93502482E+01</totfact>
</mgrwt>
</event>
<event>
 6    1  0.5026615E-004  0.2386111E+04  0.7818608E-02  0.8444722E-01
          2   -1    0    0  501    0  0.00000000000E+00  0.00000000000E+00  0.13389585859E+04  0.13389585859E+04  0.00000000000E+00 0.  1.
         -2   -1    0    0    0  501 -0.00000000000E+00 -0.00000000000E+00 -0.10630514442E+04  0.10630514442E+04  0.00000000000E+00 0. -1.
         23    2    1    2    0    0 -0.91881252925E+03  0.75236273584E+03  0.23021093437E+03  0.12135848984E+04  0.97596522038E+02 0.  0.
         11    1    3    3    0    0 -0.67584816576E+03  0.50045295482E+03  0.14499911323E+03  0.85337485667E+03  0.00000000000E+00 0.  1.
        -11    1    3    3    0    0 -0.24296436349E+03  0.25190978102E+03  0.85211821138E+02  0.36021004172E+03  0.00000000000E+00 0. -1.
         22    1    1    2    0    0  0.91881252925E+03 -0.75236273584E+03  0.45696207330E+02  0.11884251317E+04  0.00000000000E+00 0.  1.
<mgrwt>
<rscale>  0 0.23861114E+04</rscale>
<asrwt>0</asrwt>
<pdfrwt beam="1">  1        2 0.20599363E+00 0.23861114E+04</pdfrwt>
<pdfrwt beam="2">  1       -2 0.16354638E+00 0.23861114E+04</pdfrwt>
<totfact> 0.33514189E+00</totfact>
</mgrwt>
</event>
<event>
 6    1  0.5026615E-004  0.3908244E+04  0.7818608E-02  0.8023317E-01
         -2   -1    0    0    0  501 -0.00000000000E+00  0.00000000000E+00  0.16593138348E+04  0.16593138348E+04  0.00000000000E+00 0. -1.
          2   -1    0    0  501    0  0.00000000000E+00 -0.00000000000E+00 -0.23013085543E+04  0.23013085543E+04  0.00000000000E+00 0.  1.
         23    2    1    2    0    0 -0.15332823265E+04 -0.95061193493E+03  0.43750572588E+03  0.18582573030E+04  0.84209264595E+02 0.  0.
         13    1    3    3    0    0 -0.51106663847E+03 -0.27522299960E+03  0.15833738862E+03  0.60167062178E+03  0.00000000000E+00 0.  1.
        -13    1    3    3    0    0 -0.10222156880E+04 -0.67538893532E+03  0.27916833726E+03  0.12565866812E+04  0.00000000000E+00 0. -1.
         22    1    1    2    0    0  0.15332823265E+04  0.95061193493E+03 -0.10795004454E+04  0.21023650861E+04  0.00000000000E+00 0.  1.
<mgrwt>
<rscale>  0 0.39082442E+04</rscale>
<asrwt>0</asrwt>
<pdfrwt beam="1">  1        2 0.35404747E+00 0.39082442E+04</pdfrwt>
<pdfrwt beam="2">  1       -2 0.25527905E+00 0.39082442E+04</pdfrwt>
<totfact> 0.21451791E-01</totfact>
</mgrwt>
</event>
<event>
 6    1  0.5026615E-004  0.9639624E+03  0.7818608E-02  0.9348978E-01
          2   -1    0    0  501    0  0.00000000000E+00  0.00000000000E+00  0.17647587523E+04  0.17647587523E+04  0.00000000000E+00 0.  1.
         -2   -1    0    0    0  501 -0.00000000000E+00 -0.00000000000E+00 -0.13163606467E+03  0.13163606467E+03  0.00000000000E+00 0. -1.
         23    2    1    2    0    0 -0.36747282025E+03 -0.12994428119E+02  0.22417610899E+03  0.44025760152E+03  0.91469662006E+02 0.  0.
         13    1    3    3    0    0 -0.30122957256E+03 -0.21884868649E+02  0.14033228315E+03  0.33303356070E+03  0.00000000000E+00 0.  1.
        -13    1    3    3    0    0 -0.66243247693E+02  0.88904405304E+01  0.83843825839E+02  0.10722404082E+03  0.00000000000E+00 0. -1.
         22    1    1    2    0    0  0.36747282025E+03  0.12994428119E+02  0.14089465786E+04  0.14561372154E+04  0.00000000000E+00 0.  1.
<mgrwt>
<rscale>  0 0.96396244E+03</rscale>
<asrwt>0</asrwt>
<pdfrwt beam="1">  1        2 0.27150133E+00 0.96396244E+03</pdfrwt>
<pdfrwt beam="2">  1       -2 0.20251704E-01 0.96396244E+03</pdfrwt>
<totfact> 0.18904916E+02</totfact>
</mgrwt>
</event>
<event>
 6    1  0.5026615E-004  0.1919861E+04  0.7818608E-02  0.8645033E-01
         -2   -1    0    0    0  501 -0.00000000000E+00  0.00000000000E+00  0.62511790873E+03  0.62511790873E+03  0.00000000000E+00 0. -1.
          2   -1    0    0  501    0  0.00000000000E+00 -0.00000000000E+00 -0.14740679303E+04  0.14740679303E+04  0.00000000000E+00 0.  1.
         23    2    1    2    0    0 -0.30967429058E+03  0.18928739891E+03  0.54369113316E+03  0.66002731006E+03  0.91148867894E+02 0.  0.
         13    1    3    3    0    0 -0.30200536371E+03  0.15640776005E+03  0.50234917578E+03  0.60665090581E+03  0.00000000000E+00 0. -1.
        -13    1    3    3    0    0 -0.76689268704E+01  0.32879638860E+02  0.41341957386E+02  0.53376404257E+02  0.00000000000E+00 0.  1.
         22    1    1    2    0    0  0.30967429058E+03 -0.18928739891E+03 -0.13926411548E+04  0.14391585290E+04  0.00000000000E+00 0.  1.
<mgrwt>
<rscale>  0 0.19198607E+04</rscale>
<asrwt>0</asrwt>
<pdfrwt beam="1">  1        2 0.22677968E+00 0.19198607E+04</pdfrwt>
<pdfrwt beam="2">  1       -2 0.96171987E-01 0.19198607E+04</pdfrwt>
<totfact> 0.11120059E+01</totfact>
</mgrwt>
</event>
<event>
 6    1  0.5026615E-004  0.6281939E+04  0.7818608E-02  0.7656395E-01
          2   -1    0    0  501    0  0.00000000000E+00  0.00000000000E+00  0.25608831217E+04  0.25608831217E+04  0.00000000000E+00 0. -1.
         -2   -1    0    0    0  501 -0.00000000000E+00 -0.00000000000E+00 -0.38524561773E+04  0.38524561773E+04  0.00000000000E+00 0.  1.
         23    2    1    2    0    0 -0.82747593576E+03 -0.20255035038E+04  0.16538322739E+04  0.27441713519E+04  0.89074970962E+02 0.  0.
         11    1    3    3    0    0 -0.52670055369E+03 -0.11776077394E+04  0.95962821861E+03  0.16078121094E+04  0.00000000000E+00 0.  1.
        -11    1    3    3    0    0 -0.30077538207E+03 -0.84789576446E+03  0.69420405525E+03  0.11363592426E+04  0.00000000000E+00 0. -1.
         22    1    1    2    0    0  0.82747593576E+03  0.20255035038E+04 -0.29454053295E+04  0.36691679470E+04  0.00000000000E+00 0.  1.
<mgrwt>
<rscale>  0 0.62819392E+04</rscale>
<asrwt>0</asrwt>
<pdfrwt beam="1">  1        2 0.39398202E+00 0.62819392E+04</pdfrwt>
<pdfrwt beam="2">  1       -2 0.59268557E+00 0.62819392E+04</pdfrwt>
<totfact> 0.11747860E-03</totfact>
</mgrwt>
</event>
<event>
 6    1  0.5026615E-004  0.4728154E+03  0.7818608E-02  0.1021129E+00
         -1   -1    0    0    0  501 -0.00000000000E+00  0.00000000000E+00  0.32083776596E+02  0.32083776596E+02  0.00000000000E+00 0. -1.
          1   -1    0    0  501    0  0.00000000000E+00 -0.00000000000E+00 -0.17419585379E+04  0.17419585379E+04  0.00000000000E+00 0.  1.
         23    2    1    2    0    0 -0.93106648849E+02 -0.20583858787E+03 -0.78357077008E+03  0.82058677989E+03  0.91329837919E+02 0.  0.
         13    1    3    3    0    0 -0.68049777366E+02 -0.81979547304E+02 -0.24110029123E+03  0.26359204997E+03  0.00000000000E+00 0.  1.
        -13    1    3    3    0    0 -0.25056871483E+02 -0.12385904056E+03 -0.54247047885E+03  0.55699472992E+03  0.00000000000E+00 0. -1.
         22    1    1    2    0    0  0.93106648849E+02  0.20583858787E+03 -0.92630399127E+03  0.95345553465E+03  0.00000000000E+00 0.  1.
<mgrwt>
<rscale>  0 0.47281543E+03</rscale>
<asrwt>0</asrwt>
<pdfrwt beam="1">  1        1 0.26799365E+00 0.47281543E+03</pdfrwt>
<pdfrwt beam="2">  1       -1 0.49359651E-02 0.47281543E+03</pdfrwt>
<totfact> 0.87744084E+02</totfact>
</mgrwt>
</event>
<event>
 6    1  0.5026615E-004  0.9740990E+03  0.7818608E-02  0.9337418E-01
         -2   -1    0    0    0  501 -0.00000000000E+00  0.00000000000E+00  0.70726580826E+03  0.70726580826E+03  0.00000000000E+00 0. -1.
          2   -1    0    0  501    0  0.00000000000E+00 -0.00000000000E+00 -0.33540035389E+03  0.33540035389E+03  0.00000000000E+00 0.  1.
         23    2    1    2    0    0 -0.24982252063E+03  0.66098791667E+02 -0.25012555497E+03  0.36912836978E+03  0.83142155707E+02 0.  0.
         11    1    3    3    0    0 -0.20168659068E+03  0.17910795331E+02 -0.17391723140E+03  0.26691849098E+03  0.00000000000E+00 0. -1.
        -11    1    3    3    0    0 -0.48135929941E+02  0.48187996336E+02 -0.76208323566E+02  0.10220987879E+03  0.00000000000E+00 0.  1.
         22    1    1    2    0    0  0.24982252063E+03 -0.66098791667E+02  0.62199100934E+03  0.67353779238E+03  0.00000000000E+00 0. -1.
<mgrwt>
<rscale>  0 0.97409897E+03</rscale>
<asrwt>0</asrwt>
<pdfrwt beam="1">  1        2 0.51600055E-01 0.97409897E+03</pdfrwt>
<pdfrwt beam="2">  1       -2 0.10881012E+00 0.97409897E+03</pdfrwt>
<totfact> 0.65360712E+01</totfact>
</mgrwt>
</event>
<event>
 6    1  0.5026615E-004  0.2512053E+04  0.7818608E-02  0.8398704E-01
          2   -1    0    0  501    0  0.00000000000E+00  0.00000000000E+00  0.11813841797E+04  0.11813841797E+04  0.00000000000E+00 0.  1.
         -2   -1    0    0    0  501 -0.00000000000E+00 -0.00000000000E+00 -0.13353853812E+04  0.13353853812E+04  0.00000000000E+00 0. -1.
         23    2    1    2    0    0 -0.39306994367E+03 -0.21920496423E+03 -0.12501633936E+04  0.13318111868E+04  0.90872051735E+02 0.  0.
         11    1    3    3    0    0 -0.28382394148E+03 -0.19851904783E+03 -0.89650395536E+03  0.96108541977E+03  0.00000000000E+00 0. -1.
        -11    1    3    3    0    0 -0.10924600219E+03 -0.20685916398E+02 -0.35365943820E+03  0.37072576706E+03  0.00000000000E+00 0.  1.
         22    1    1    2    0    0  0.39306994367E+03  0.21920496423E+03  0.10961621921E+04  0.11849583741E+04  0.00000000000E+00 0.  1.
<mgrwt>
<rscale>  0 0.25120535E+04</rscale>
<asrwt>0</asrwt>
<pdfrwt beam="1">  1        2 0.18175141E+00 0.25120535E+04</pdfrwt>
<pdfrwt beam="2">  1       -2 0.20544391E+00 0.25120535E+04</pdfrwt>
<totfact> 0.21218599E+00</totfact>
</mgrwt>
</event>
<event>
 6    1  0.5026615E-004  0.2950277E+04  0.7818608E-02  0.8258074E-01
          2   -1    0    0  501    0  0.00000000000E+00  0.00000000000E+00  0.21184728929E+04  0.21184728929E+04  0.00000000000E+00 0.  1.
         -2   -1    0    0    0  501 -0.00000000000E+00 -0.00000000000E+00 -0.10271706119E+04  0.10271706119E+04  0.00000000000E+00 0. -1.
         23    2    1    2    0    0  0.12731923069E+04 -0.26262787335E+03 -0.19397786216E+03  0.13175469273E+04  0.91161638668E+02 0.  0.
         11    1    3    3    0    0  0.10196298444E+04 -0.20058204773E+03 -0.11908640081E+03  0.10459731107E+04  0.00000000000E+00 0. -1.
        -11    1    3    3    0    0  0.25356246257E+03 -0.62045825622E+02 -0.74891461352E+02  0.27157381664E+03  0.00000000000E+00 0.  1.
         22    1    1    2    0    0 -0.12731923069E+04  0.26262787335E+03  0.12852801431E+04  0.18280965775E+04  0.00000000000E+00 0.  1.
<mgrwt>
<rscale>  0 0.29502767E+04</rscale>
<asrwt>0</asrwt>
<pdfrwt beam="1">  1        2 0.32591891E+00 0.29502767E+04</pdfrwt>
<pdfrwt beam="2">  1       -2 0.15802625E+00 0.29502767E+04</pdfrwt>
<totfact> 0.12849182E+00</totfact>
</mgrwt>
</event>
<event>
 6    1  0.5026615E-004  0.3126302E+04  0.7818608E-02  0.8208557E-01
         -2   -1    0    0    0  501 -0.00000000000E+00  0.00000000000E+00  0.63459730854E+03  0.63459730854E+03  0.00000000000E+00 0. -1.
          2   -1    0    0  501    0  0.00000000000E+00 -0.00000000000E+00 -0.38503795274E+04  0.38503795274E+04  0.00000000000E+00 0.  1.
         23    2    1    2    0    0  0.33633808746E+03  0.37129707471E+03 -0.37314372569E+04  0.37660297272E+04  0.91493590338E+02 0.  0.
         11    1    3    3    0    0  0.25866862655E+03  0.22156495094E+03 -0.24888729753E+04  0.25120687039E+04  0.00000000000E+00 0. -1.
        -11    1    3    3    0    0  0.77669460907E+02  0.14973212377E+03 -0.12425642816E+04  0.12539610233E+04  0.00000000000E+00 0.  1.
         22    1    1    2    0    0 -0.33633808746E+03 -0.37129707471E+03  0.51565503812E+03  0.71894710869E+03  0.00000000000E+00 0. -1.
<mgrwt>
<rscale>  0 0.31263016E+04</rscale>
<asrwt>0</asrwt>
<pdfrwt beam="1">  1        2 0.59236608E+00 0.31263016E+04</pdfrwt>
<pdfrwt beam="2">  1       -2 0.97630356E-01 0.31263016E+04</pdfrwt>
<totfact> 0.33232885E-01</totfact>
</mgrwt>
</event>
<event>
 6    1  0.5026615E-004  0.6224491E+04  0.7818608E-02  0.7663174E-01
          2   -1    0    0  501    0  0.00000000000E+00  0.00000000000E+00  0.39039445029E+04  0.39039445029E+04  0.00000000000E+00 0.  1.
         -2   -1    0    0    0  501 -0.00000000000E+00 -0.00000000000E+00 -0.24810985789E+04  0.24810985789E+04  0.00000000000E+00 0. -1.
         23    2    1    2    0    0 -0.26620726915E+04  0.63585482109E+03  0.22299659871E+04  0.35315565890E+04  0.90560861995E+02 0.  0.
         13    1    3    3    0    0 -0.12011971018E+04  0.27746215956E+03  0.10614354159E+04  0.16268081846E+04  0.00000000000E+00 0.  1.
        -13    1    3    3    0    0 -0.14608755898E+04  0.35839266153E+03  0.11685305711E+04  0.19047484045E+04  0.00000000000E+00 0. -1.
         22    1    1    2    0    0  0.26620726915E+04 -0.63585482109E+03 -0.80712006300E+03  0.28534864928E+04  0.00000000000E+00 0. -1.
<mgrwt>
<rscale>  0 0.62244907E+04</rscale>
<asrwt>0</asrwt>
<pdfrwt beam="1">  1        2 0.60060684E+00 0.62244907E+04</pdfrwt>
<pdfrwt beam="2">  1       -2 0.38170748E+00 0.62244907E+04</pdfrwt>
<totfact> 0.26252129E-03</totfact>
</mgrwt>
</event>
<event>
 6    1  0.5026615E-004  0.4048947E+04  0.7818608E-02  0.7994745E-01
          2   -1    0    0  501    0  0.00000000000E+00  0.00000000000E+00  0.23063527361E+04  0.23063527361E+04  0.00000000000E+00 0.  1.
         -2   -1    0    0    0  501 -0.00000000000E+00 -0.00000000000E+00 -0.17770449117E+04  0.17770449117E+04  0.00000000000E+00 0. -1.
         23    2    1    2    0    0 -0.11414569244E+03 -0.16008390808E+04  0.15075623816E+04  0.22038506331E+04  0.92186098402E+02 0.  0.
         13    1    3    3    0    0 -0.56586845449E+02 -0.30361291957E+03  0.27591447634E+03  0.41413967965E+03  0.00000000000E+00 0. -1.
        -13    1    3    3    0    0 -0.57558846986E+02 -0.12972261612E+04  0.12316479053E+04  0.17897109534E+04  0.00000000000E+00 0.  1.
         22    1    1    2    0    0  0.11414569244E+03  0.16008390808E+04 -0.97825455726E+03  0.18795470147E+04  0.00000000000E+00 0. -1.
<mgrwt>
<rscale>  0 0.40489467E+04</rscale>
<asrwt>0</asrwt>
<pdfrwt beam="1">  1        2 0.35482350E+00 0.40489467E+04</pdfrwt>
<pdfrwt beam="2">  1       -2 0.27339152E+00 0.40489467E+04</pdfrwt>
<totfact> 0.16326618E-01</totfact>
</mgrwt>
</event>
<event>
 6    1  0.5026615E-004  0.3263602E+04  0.7818608E-02  0.8172219E-01
          1   -1    0    0  501    0  0.00000000000E+00  0.00000000000E+00  0.20538923535E+04  0.20538923535E+04  0.00000000000E+00 0.  1.
         -1   -1    0    0    0  501 -0.00000000000E+00 -0.00000000000E+00 -0.12964530391E+04  0.12964530391E+04  0.00000000000E+00 0. -1.
         23    2    1    2    0    0 -0.15398326793E+03  0.34420563301E+03 -0.12494637540E+04  0.13083247536E+04  0.91463784335E+02 0.  0.
         11    1    3    3    0    0 -0.10525180173E+03  0.12791366799E+03 -0.57204941097E+03  0.59555048217E+03  0.00000000000E+00 0. -1.
        -11    1    3    3    0    0 -0.48731466197E+02  0.21629196502E+03 -0.67741434300E+03  0.71277427144E+03  0.00000000000E+00 0.  1.
         22    1    1    2    0    0  0.15398326793E+03 -0.34420563301E+03  0.20069030683E+04  0.20420206391E+04  0.00000000000E+00 0.  1.
<mgrwt>
<rscale>  0 0.32636023E+04</rscale>
<asrwt>0</asrwt>
<pdfrwt beam="1">  1        1 0.31598344E+00 0.32636023E+04</pdfrwt>
<pdfrwt beam="2">  1       -1 0.19945431E+00 0.32636023E+04</pdfrwt>
<totfact> 0.34606228E-01</totfact>
</mgrwt>
</event>
<event>
 6    1  0.5026615E-004  0.3151099E+04  0.7818608E-02  0.8201852E-01
         -2   -1    0    0    0  501 -0.00000000000E+00  0.00000000000E+00  0.86970952242E+03  0.86970952242E+03  0.00000000000E+00 0. -1.
          2   -1    0    0  501    0  0.00000000000E+00 -0.00000000000E+00 -0.28542363264E+04  0.28542363264E+04  0.00000000000E+00 0.  1.
         23    2    1    2    0    0 -0.93207874837E+03 -0.36218104441E+03 -0.24299762419E+04  0.26292444722E+04  0.90532073277E+02 0.  0.
         11    1    3    3    0    0 -0.29855433182E+03 -0.10817609303E+03 -0.88381100731E+03  0.93912653716E+03  0.00000000000E+00 0. -1.
        -11    1    3    3    0    0 -0.63352441654E+03 -0.25400495138E+03 -0.15461652346E+04  0.16901179351E+04  0.00000000000E+00 0.  1.
         22    1    1    2    0    0  0.93207874837E+03  0.36218104441E+03  0.44544943796E+03  0.10947013766E+04  0.00000000000E+00 0. -1.
<mgrwt>
<rscale>  0 0.31510992E+04</rscale>
<asrwt>0</asrwt>
<pdfrwt beam="1">  1        2 0.43911329E+00 0.31510992E+04</pdfrwt>
<pdfrwt beam="2">  1       -2 0.13380146E+00 0.31510992E+04</pdfrwt>
<totfact> 0.73095038E-01</totfact>
</mgrwt>
</event>
<event>
 6    1  0.5026615E-004  0.2824260E+04  0.7818608E-02  0.8295776E-01
          2   -1    0    0  501    0  0.00000000000E+00  0.00000000000E+00  0.42951991297E+04  0.42951991297E+04  0.00000000000E+00 0.  1.
         -2   -1    0    0    0  501 -0.00000000000E+00 -0.00000000000E+00 -0.46426523026E+03  0.46426523026E+03  0.00000000000E+00 0. -1.
         23    2    1    2    0    0 -0.12065417867E+04 -0.48286200332E+03  0.99286872862E+03  0.16380043312E+04  0.91493602576E+02 0.  0.
         13    1    3    3    0    0 -0.10413371428E+04 -0.38245484589E+03  0.83754287775E+03  0.13900118079E+04  0.00000000000E+00 0.  1.
        -13    1    3    3    0    0 -0.16520464396E+03 -0.10040715743E+03  0.15532585086E+03  0.24799252326E+03  0.00000000000E+00 0. -1.
         22    1    1    2    0    0  0.12065417867E+04  0.48286200332E+03  0.28380651708E+04  0.31214600287E+04  0.00000000000E+00 0.  1.
<mgrwt>
<rscale>  0 0.28242603E+04</rscale>
<asrwt>0</asrwt>
<pdfrwt beam="1">  1        2 0.66079984E+00 0.28242603E+04</pdfrwt>
<pdfrwt beam="2">  1       -2 0.71425423E-01 0.28242603E+04</pdfrwt>
<totfact> 0.29618603E-01</totfact>
</mgrwt>
</event>
<event>
 6    1  0.5026615E-004  0.4785446E+04  0.7818608E-02  0.7862484E-01
          2   -1    0    0  501    0  0.00000000000E+00  0.00000000000E+00  0.34951523552E+04  0.34951523552E+04  0.00000000000E+00 0.  1.
         -2   -1    0    0    0  501 -0.00000000000E+00 -0.00000000000E+00 -0.16380185471E+04  0.16380185471E+04  0.00000000000E+00 0. -1.
         23    2    1    2    0    0  0.16508706709E+04 -0.44103661352E+03  0.27241311065E+04  0.32170363606E+04  0.92441297941E+02 0.  0.
         11    1    3    3    0    0  0.14245829402E+04 -0.36222830980E+03  0.22899870102E+04  0.27211553445E+04  0.00000000000E+00 0. -1.
        -11    1    3    3    0    0  0.22628773072E+03 -0.78808303714E+02  0.43414409632E+03  0.49588101615E+03  0.00000000000E+00 0.  1.
         22    1    1    2    0    0 -0.16508706709E+04  0.44103661352E+03 -0.86699729845E+03  0.19161345417E+04  0.00000000000E+00 0. -1.
<mgrwt>
<rscale>  0 0.47854464E+04</rscale>
<asrwt>0</asrwt>
<pdfrwt beam="1">  1        2 0.53771574E+00 0.47854464E+04</pdfrwt>
<pdfrwt beam="2">  1       -2 0.25200286E+00 0.47854464E+04</pdfrwt>
<totfact> 0.37826739E-02</totfact>
</mgrwt>
</event>
<event>
 6    1  0.5026615E-004  0.6047892E+03  0.7818608E-02  0.9895520E-01
         -2   -1    0    0    0  501 -0.00000000000E+00  0.00000000000E+00  0.60822534966E+02  0.60822534966E+02  0.00000000000E+00 0. -1.
          2   -1    0    0  501    0  0.00000000000E+00 -0.00000000000E+00 -0.15034311117E+04  0.15034311117E+04  0.00000000000E+00 0.  1.
         23    2    1    2    0    0 -0.20785490321E+03  0.20205344666E+03 -0.59128074333E+03  0.66492704525E+03  0.92118412759E+02 0.  0.
         13    1    3    3    0    0 -0.67569769599E+02  0.11567746611E+03 -0.32860595240E+03  0.35486451200E+03  0.00000000000E+00 0. -1.
        -13    1    3    3    0    0 -0.14028513361E+03  0.86375980554E+02 -0.26267479094E+03  0.31006253324E+03  0.00000000000E+00 0.  1.
         22    1    1    2    0    0  0.20785490321E+03 -0.20205344666E+03 -0.85132783339E+03  0.89932660141E+03  0.00000000000E+00 0. -1.
<mgrwt>
<rscale>  0 0.60478919E+03</rscale>
<asrwt>0</asrwt>
<pdfrwt beam="1">  1        2 0.23129708E+00 0.60478919E+03</pdfrwt>
<pdfrwt beam="2">  1       -2 0.93573135E-02 0.60478919E+03</pdfrwt>
<totfact> 0.98424358E+02</totfact>
</mgrwt>
</event>
<event>
 6    1  0.5026615E-004  0.4986498E+04  0.7818608E-02  0.7830593E-01
          2   -1    0    0  501    0  0.00000000000E+00  0.00000000000E+00  0.39975023792E+04  0.39975023792E+04  0.00000000000E+00 0.  1.
         -2   -1    0    0    0  501 -0.00000000000E+00 -0.00000000000E+00 -0.15550433374E+04  0.15550433374E+04  0.00000000000E+00 0. -1.
         23    2    1    2    0    0  0.18314309082E+03 -0.24851579357E+04  0.12766036330E+04  0.28014059180E+04  0.92773510006E+02 0.  0.
         13    1    3    3    0    0  0.15272947381E+03 -0.15852973070E+04  0.84526313443E+03  0.18030428753E+04  0.00000000000E+00 0. -1.
        -13    1    3    3    0    0  0.30413617009E+02 -0.89986062874E+03  0.43134049854E+03  0.99836304266E+03  0.00000000000E+00 0.  1.
         22    1    1    2    0    0 -0.18314309082E+03  0.24851579357E+04  0.11658554088E+04  0.27511397986E+04  0.00000000000E+00 0.  1.
<mgrwt>
<rscale>  0 0.49864975E+04</rscale>
<asrwt>0</asrwt>
<pdfrwt beam="1">  1        2 0.61500036E+00 0.49864975E+04</pdfrwt>
<pdfrwt beam="2">  1       -2 0.23923744E+00 0.49864975E+04</pdfrwt>
<totfact> 0.18672623E-02</totfact>
</mgrwt>
</event>
<event>
 6    1  0.5026615E-004  0.3398187E+04  0.7818608E-02  0.8138351E-01
         -2   -1    0    0    0  501 -0.00000000000E+00  0.00000000000E+00  0.12323867089E+04  0.12323867089E+04  0.00000000000E+00 0. -1.
          2   -1    0    0  501    0  0.00000000000E+00 -0.00000000000E+00 -0.23425435532E+04  0.23425435532E+04  0.00000000000E+00 0.  1.
         23    2    1    2    0    0  0.49893815911E+03 -0.12292685507E+04  0.55818593146E+03  0.14434030928E+04  0.10863009695E+03 0.  0.
         13    1    3    3    0    0  0.13341456176E+03 -0.32763593110E+03  0.20184511157E+03  0.40729129343E+03  0.00000000000E+00 0.  1.
        -13    1    3    3    0    0  0.36552359735E+03 -0.90163261957E+03  0.35634081988E+03  0.10361117994E+04  0.00000000000E+00 0. -1.
         22    1    1    2    0    0 -0.49893815911E+03  0.12292685507E+04 -0.16683427757E+04  0.21315271693E+04  0.00000000000E+00 0.  1.
<mgrwt>
<rscale>  0 0.33981875E+04</rscale>
<asrwt>0</asrwt>
<pdfrwt beam="1">  1        2 0.36039131E+00 0.33981875E+04</pdfrwt>
<pdfrwt beam="2">  1       -2 0.18959796E+00 0.33981875E+04</pdfrwt>
<totfact> 0.55409327E-01</totfact>
</mgrwt>
</event>
<event>
 6    1  0.5026615E-004  0.3809209E+04  0.7818608E-02  0.8044182E-01
         -2   -1    0    0    0  501 -0.00000000000E+00  0.00000000000E+00  0.12805614171E+04  0.12805614171E+04  0.00000000000E+00 0. -1.
          2   -1    0    0  501    0  0.00000000000E+00 -0.00000000000E+00 -0.28327555054E+04  0.28327555054E+04  0.00000000000E+00 0.  1.
         23    2    1    2    0    0 -0.17718481671E+04 -0.46072419536E+03 -0.13384694125E+04  0.22701156452E+04  0.10105425701E+03 0.  0.
         11    1    3    3    0    0 -0.10829693142E+04 -0.31653628535E+03 -0.77987282220E+03  0.13715755080E+04  0.00000000000E+00 0. -1.
        -11    1    3    3    0    0 -0.68887885297E+03 -0.14418791000E+03 -0.55859659034E+03  0.89854013722E+03  0.00000000000E+00 0.  1.
         22    1    1    2    0    0  0.17718481671E+04  0.46072419536E+03 -0.21372467572E+03  0.18432012773E+04  0.00000000000E+00 0.  1.
<mgrwt>
<rscale>  0 0.38092085E+04</rscale>
<asrwt>0</asrwt>
<pdfrwt beam="1">  1        2 0.43580854E+00 0.38092085E+04</pdfrwt>
<pdfrwt beam="2">  1       -2 0.19700945E+00 0.38092085E+04</pdfrwt>
<totfact> 0.24622498E-01</totfact>
</mgrwt>
</event>
<event>
 6    1  0.5026615E-004  0.4548777E+04  0.7818608E-02  0.7902153E-01
          2   -1    0    0  501    0  0.00000000000E+00  0.00000000000E+00  0.25533282998E+04  0.25533282998E+04  0.00000000000E+00 0.  1.
         -2   -1    0    0    0  501 -0.00000000000E+00 -0.00000000000E+00 -0.20259216551E+04  0.20259216551E+04  0.00000000000E+00 0. -1.
         23    2    1    2    0    0 -0.95056482974E+03  0.12411842913E+04 -0.13983687520E+04  0.20987816888E+04  0.73057992379E+02 0.  0.
         11    1    3    3    0    0 -0.14638839774E+03  0.21591916257E+03 -0.26440424640E+03  0.37143001127E+03  0.00000000000E+00 0.  1.
        -11    1    3    3    0    0 -0.80417643201E+03  0.10252651287E+04 -0.11339645056E+04  0.17273516775E+04  0.00000000000E+00 0. -1.
         22    1    1    2    0    0  0.95056482974E+03 -0.12411842913E+04  0.19257753967E+04  0.24804682660E+04  0.00000000000E+00 0.  1.
<mgrwt>
<rscale>  0 0.45487770E+04</rscale>
<asrwt>0</asrwt>
<pdfrwt beam="1">  1        2 0.39281974E+00 0.45487770E+04</pdfrwt>
<pdfrwt beam="2">  1       -2 0.31168025E+00 0.45487770E+04</pdfrwt>
<totfact> 0.65911349E-02</totfact>
</mgrwt>
</event>
<event>
 6    1  0.5026615E-004  0.2066840E+04  0.7818608E-02  0.8575993E-01
          2   -1    0    0  501    0  0.00000000000E+00  0.00000000000E+00  0.10486120461E+04  0.10486120461E+04  0.00000000000E+00 0.  1.
         -2   -1    0    0    0  501 -0.00000000000E+00 -0.00000000000E+00 -0.10184480432E+04  0.10184480432E+04  0.00000000000E+00 0. -1.
         23    2    1    2    0    0 -0.16891643587E+03 -0.83632849890E+03 -0.56448469697E+03  0.10270672063E+04  0.90807228956E+02 0.  0.
         11    1    3    3    0    0 -0.10312634365E+03 -0.30698079355E+03 -0.23452217423E+03  0.39984109415E+03  0.00000000000E+00 0.  1.
        -11    1    3    3    0    0 -0.65790092223E+02 -0.52934770535E+03 -0.32996252274E+03  0.62722611219E+03  0.00000000000E+00 0. -1.
         22    1    1    2    0    0  0.16891643587E+03  0.83632849890E+03  0.59464869986E+03  0.10399928830E+04  0.00000000000E+00 0.  1.
<mgrwt>
<rscale>  0 0.20668400E+04</rscale>
<asrwt>0</asrwt>
<pdfrwt beam="1">  1        2 0.16132493E+00 0.20668400E+04</pdfrwt>
<pdfrwt beam="2">  1       -2 0.15668431E+00 0.20668400E+04</pdfrwt>
<totfact> 0.57784663E+00</totfact>
</mgrwt>
</event>
<event>
 6    1  0.5026615E-004  0.4936171E+04  0.7818608E-02  0.7838430E-01
          2   -1    0    0  501    0  0.00000000000E+00  0.00000000000E+00  0.28375467167E+04  0.28375467167E+04  0.00000000000E+00 0.  1.
         -2   -1    0    0    0  501 -0.00000000000E+00 -0.00000000000E+00 -0.21467298002E+04  0.21467298002E+04  0.00000000000E+00 0. -1.
         23    2    1    2    0    0  0.85214925451E+03  0.22743404233E+04  0.78406001660E+03  0.25537463301E+04  0.89930505525E+02 0.  0.
         13    1    3    3    0    0  0.22115242612E+03  0.67309152543E+03  0.25894414430E+03  0.75432928291E+03  0.00000000000E+00 0.  1.
        -13    1    3    3    0    0  0.63099682839E+03  0.16012488979E+04  0.52511587231E+03  0.17994170472E+04  0.00000000000E+00 0. -1.
         22    1    1    2    0    0 -0.85214925451E+03 -0.22743404233E+04 -0.93243100067E+02  0.24305301868E+04  0.00000000000E+00 0. -1.
<mgrwt>
<rscale>  0 0.49361710E+04</rscale>
<asrwt>0</asrwt>
<pdfrwt beam="1">  1        2 0.43654565E+00 0.49361710E+04</pdfrwt>
<pdfrwt beam="2">  1       -2 0.33026612E+00 0.49361710E+04</pdfrwt>
<totfact> 0.33193257E-02</totfact>
</mgrwt>
</event>
<event>
 6    1  0.5026615E-004  0.4951488E+03  0.7818608E-02  0.1015053E+00
         -2   -1    0    0    0  501 -0.00000000000E+00  0.00000000000E+00  0.25545776879E+02  0.25545776879E+02  0.00000000000E+00 0. -1.
          2   -1    0    0  501    0  0.00000000000E+00 -0.00000000000E+00 -0.23993430217E+04  0.23993430217E+04  0.00000000000E+00 0.  1.
         23    2    1    2    0    0 -0.14635783020E+03  0.18536782047E+03 -0.12860487969E+04  0.13117946744E+04  0.10536563220E+03 0.  0.
         11    1    3    3    0    0 -0.84111407852E+02  0.92631679319E+02 -0.41034359338E+03  0.42899559622E+03  0.00000000000E+00 0. -1.
        -11    1    3    3    0    0 -0.62246422348E+02  0.92736141151E+02 -0.87570520354E+03  0.88279907821E+03  0.00000000000E+00 0.  1.
         22    1    1    2    0    0  0.14635783020E+03 -0.18536782047E+03 -0.10877484479E+04  0.11130941241E+04  0.00000000000E+00 0.  1.
<mgrwt>
<rscale>  0 0.49514879E+03</rscale>
<asrwt>0</asrwt>
<pdfrwt beam="1">  1        2 0.36912970E+00 0.49514879E+03</pdfrwt>
<pdfrwt beam="2">  1       -2 0.39301195E-02 0.49514879E+03</pdfrwt>
<totfact> 0.12558850E+03</totfact>
</mgrwt>
</event>
<event>
 6    1  0.5026615E-004  0.1810773E+04  0.7818608E-02  0.8700592E-01
         -1   -1    0    0    0  501 -0.00000000000E+00  0.00000000000E+00  0.29294067752E+03  0.29294067752E+03  0.00000000000E+00 0. -1.
          1   -1    0    0  501    0  0.00000000000E+00 -0.00000000000E+00 -0.27982607405E+04  0.27982607405E+04  0.00000000000E+00 0.  1.
         23    2    1    2    0    0 -0.24808011885E+03  0.86182057074E+03 -0.14378226448E+04  0.16969886726E+04  0.90322509629E+02 0.  0.
         13    1    3    3    0    0 -0.33256208584E+02  0.50711189606E+02 -0.12490973130E+03  0.13885258778E+03  0.00000000000E+00 0.  1.
        -13    1    3    3    0    0 -0.21482391026E+03  0.81110938113E+03 -0.13129129135E+04  0.15581360848E+04  0.00000000000E+00 0. -1.
         22    1    1    2    0    0  0.24808011885E+03 -0.86182057074E+03 -0.10674974183E+04  0.13942127454E+04  0.00000000000E+00 0. -1.
<mgrwt>
<rscale>  0 0.18107726E+04</rscale>
<asrwt>0</asrwt>
<pdfrwt beam="1">  1        1 0.43050164E+00 0.18107726E+04</pdfrwt>
<pdfrwt beam="2">  1       -1 0.45067797E-01 0.18107726E+04</pdfrwt>
<totfact> 0.38560780E+00</totfact>
</mgrwt>
</event>
<event>
 6    1  0.5026615E-004  0.2733301E+04  0.7818608E-02  0.8324280E-01
          2   -1    0    0  501    0  0.00000000000E+00  0.00000000000E+00  0.29744969368E+04  0.29744969368E+04  0.00000000000E+00 0.  1.
         -2   -1    0    0    0  501 -0.00000000000E+00 -0.00000000000E+00 -0.62791586928E+03  0.62791586928E+03  0.00000000000E+00 0. -1.
         23    2    1    2    0    0 -0.13594322033E+04  0.83477877384E+02  0.12966171149E+04  0.18826893478E+04  0.90987725094E+02 0.  0.
         11    1    3    3    0    0 -0.73996003906E+03  0.87971055333E+02  0.68618375214E+03  0.10129797173E+04  0.00000000000E+00 0. -1.
        -11    1    3    3    0    0 -0.61947216423E+03 -0.44931779491E+01  0.61043336280E+03  0.86970963046E+03  0.00000000000E+00 0.  1.
         22    1    1    2    0    0  0.13594322033E+04 -0.83477877384E+02  0.10499639526E+04  0.17197234583E+04  0.00000000000E+00 0. -1.
<mgrwt>
<rscale>  0 0.27333012E+04</rscale>
<asrwt>0</asrwt>
<pdfrwt beam="1">  1        2 0.45761490E+00 0.27333012E+04</pdfrwt>
<pdfrwt beam="2">  1       -2 0.96602443E-01 0.27333012E+04</pdfrwt>
<totfact> 0.14158281E+00</totfact>
</mgrwt>
</event>
<event>
 6    1  0.5669187E-004  0.3786016E+04  0.7818608E-02  0.8049163E-01
         -2   -1    0    0    0  501 -0.00000000000E+00  0.00000000000E+00  0.19121004609E+04  0.19121004609E+04  0.00000000000E+00 0. -1.
          2   -1    0    0  501    0  0.00000000000E+00 -0.00000000000E+00 -0.18741060225E+04  0.18741060225E+04  0.00000000000E+00 0.  1.
         23    2    1    2    0    0 -0.67110331073E+03  0.91375366578E+03 -0.14956833642E+04  0.18789852016E+04  0.90505504974E+02 0.  0.
         13    1    3    3    0    0 -0.28140837611E+03  0.34462562287E+03 -0.52469619411E+03  0.68794156016E+03  0.00000000000E+00 0. -1.
        -13    1    3    3    0    0 -0.38969493462E+03  0.56912804291E+03 -0.97098717011E+03  0.11910436414E+04  0.00000000000E+00 0.  1.
         22    1    1    2    0    0  0.67110331073E+03 -0.91375366578E+03  0.15336778026E+04  0.19072212818E+04  0.00000000000E+00 0. -1.
<mgrwt>
<rscale>  0 0.37860158E+04</rscale>
<asrwt>0</asrwt>
<pdfrwt beam="1">  1        2 0.28832400E+00 0.37860158E+04</pdfrwt>
<pdfrwt beam="2">  1       -2 0.29416930E+00 0.37860158E+04</pdfrwt>
<totfact> 0.21740119E-01</totfact>
</mgrwt>
</event>
<event>
 6    1  0.5026615E-004  0.3043241E+04  0.7818608E-02  0.8231490E-01
          2   -1    0    0  501    0  0.00000000000E+00  0.00000000000E+00  0.15725279578E+04  0.15725279578E+04  0.00000000000E+00 0.  1.
         -2   -1    0    0    0  501 -0.00000000000E+00 -0.00000000000E+00 -0.14723608022E+04  0.14723608022E+04  0.00000000000E+00 0. -1.
         23    2    1    2    0    0 -0.12518931579E+03  0.14243182059E+04 -0.46658438272E+03  0.15068503916E+04  0.92425106249E+02 0.  0.
         11    1    3    3    0    0 -0.98756458503E+02  0.10451503002E+04 -0.38447016485E+03  0.11179934238E+04  0.00000000000E+00 0.  1.
        -11    1    3    3    0    0 -0.26432857283E+02  0.37916790567E+03 -0.82114217866E+02  0.38885696781E+03  0.00000000000E+00 0. -1.
         22    1    1    2    0    0  0.12518931579E+03 -0.14243182059E+04  0.56675153840E+03  0.15380383684E+04  0.00000000000E+00 0.  1.
<mgrwt>
<rscale>  0 0.30432407E+04</rscale>
<asrwt>0</asrwt>
<pdfrwt beam="1">  1        2 0.24192738E+00 0.30432407E+04</pdfrwt>
<pdfrwt beam="2">  1       -2 0.22651705E+00 0.30432407E+04</pdfrwt>
<totfact> 0.88617350E-01</totfact>
</mgrwt>
</event>
<event>
 6    1  0.5026615E-004  0.3038245E+04  0.7818608E-02  0.8232893E-01
          3   -1    0    0  501    0  0.00000000000E+00  0.00000000000E+00  0.11144363304E+04  0.11144363304E+04  0.00000000000E+00 0.  1.
         -3   -1    0    0    0  501 -0.00000000000E+00 -0.00000000000E+00 -0.20707628507E+04  0.20707628507E+04  0.00000000000E+00 0. -1.
         23    2    1    2    0    0 -0.12383494684E+04 -0.51615004416E+03 -0.12226895916E+04  0.18174018425E+04  0.89773857709E+02 0.  0.
         13    1    3    3    0    0 -0.38143085696E+03 -0.14578300123E+03 -0.42641228680E+03  0.59039784927E+03  0.00000000000E+00 0.  1.
        -13    1    3    3    0    0 -0.85691861142E+03 -0.37036704293E+03 -0.79627730484E+03  0.12270039932E+04  0.00000000000E+00 0. -1.
         22    1    1    2    0    0  0.12383494684E+04  0.51615004416E+03  0.26636307128E+03  0.13677973387E+04  0.00000000000E+00 0.  1.
<mgrwt>
<rscale>  0 0.30382451E+04</rscale>
<asrwt>0</asrwt>
<pdfrwt beam="1">  1        3 0.17145174E+00 0.30382451E+04</pdfrwt>
<pdfrwt beam="2">  1       -3 0.31857890E+00 0.30382451E+04</pdfrwt>
<totfact> 0.15026323E-02</totfact>
</mgrwt>
</event>
<event>
 6    1  0.5026615E-004  0.2488223E+04  0.7818608E-02  0.8407193E-01
          2   -1    0    0  501    0  0.00000000000E+00  0.00000000000E+00  0.37631336295E+04  0.37631336295E+04  0.00000000000E+00 0.  1.
         -2   -1    0    0    0  501 -0.00000000000E+00 -0.00000000000E+00 -0.41130955892E+03  0.41130955892E+03  0.00000000000E+00 0. -1.
         23    2    1    2    0    0  0.11195021186E+04 -0.37504341619E+03  0.10294210082E+04  0.15691603742E+04  0.92812231734E+02 0.  0.
         13    1    3    3    0    0  0.43090500948E+03 -0.10275696496E+03  0.41395848418E+03  0.60630004756E+03  0.00000000000E+00 0. -1.
        -13    1    3    3    0    0  0.68859710914E+03 -0.27228645122E+03  0.61546252399E+03  0.96286032667E+03  0.00000000000E+00 0.  1.
         22    1    1    2    0    0 -0.11195021186E+04  0.37504341619E+03  0.23224030624E+04  0.26052828142E+04  0.00000000000E+00 0.  1.
<mgrwt>
<rscale>  0 0.24882225E+04</rscale>
<asrwt>0</asrwt>
<pdfrwt beam="1">  1        2 0.57894361E+00 0.24882225E+04</pdfrwt>
<pdfrwt beam="2">  1       -2 0.63278396E-01 0.24882225E+04</pdfrwt>
<totfact> 0.10838618E+00</totfact>
</mgrwt>
</event>
<event>
 6    1  0.5026615E-004  0.2114293E+04  0.7818608E-02  0.8554973E-01
          2   -1    0    0  501    0  0.00000000000E+00  0.00000000000E+00  0.17906625930E+04  0.17906625930E+04  0.00000000000E+00 0.  1.
         -2   -1    0    0    0  501 -0.00000000000E+00 -0.00000000000E+00 -0.62410355078E+03  0.62410355078E+03  0.00000000000E+00 0. -1.
         23    2    1    2    0    0 -0.40440369910E+03 -0.96350836516E+03  0.41870223224E+03  0.11297834475E+04  0.95960186138E+02 0.  0.
         11    1    3    3    0    0 -0.33814708555E+03 -0.74174609521E+03  0.29188163656E+03  0.86586697072E+03  0.00000000000E+00 0.  1.
        -11    1    3    3    0    0 -0.66256613548E+02 -0.22176226995E+03  0.12682059568E+03  0.26391647676E+03  0.00000000000E+00 0. -1.
         22    1    1    2    0    0  0.40440369910E+03  0.96350836516E+03  0.74785680998E+03  0.12849826963E+04  0.00000000000E+00 0. -1.
<mgrwt>
<rscale>  0 0.21142932E+04</rscale>
<asrwt>0</asrwt>
<pdfrwt beam="1">  1        2 0.27548655E+00 0.21142932E+04</pdfrwt>
<pdfrwt beam="2">  1       -2 0.96015932E-01 0.21142932E+04</pdfrwt>
<totfact> 0.73070845E+00</totfact>
</mgrwt>
</event>
<event>
 6    1  0.5026615E-004  0.6066280E+04  0.7818608E-02  0.7682238E-01
          2   -1    0    0  501    0  0.00000000000E+00  0.00000000000E+00  0.42190468886E+04  0.42190468886E+04  0.00000000000E+00 0.  1.
         -2   -1    0    0    0  501 -0.00000000000E+00 -0.00000000000E+00 -0.21805725112E+04  0.21805725112E+04  0.00000000000E+00 0. -1.
         23    2    1    2    0    0 -0.25752343845E+04  0.14528477342E+04  0.17296703249E+04  0.34267489660E+04  0.90831543253E+02 0.  0.
         13    1    3    3    0    0 -0.12354032840E+03  0.57789842079E+02  0.98831390416E+02  0.16843254531E+03  0.00000000000E+00 0.  1.
        -13    1    3    3    0    0 -0.24516940561E+04  0.13950578921E+04  0.16308389345E+04  0.32583164207E+04  0.00000000000E+00 0. -1.
         22    1    1    2    0    0  0.25752343845E+04 -0.14528477342E+04  0.30880405248E+03  0.29728704339E+04  0.00000000000E+00 0. -1.
<mgrwt>
<rscale>  0 0.60662798E+04</rscale>
<asrwt>0</asrwt>
<pdfrwt beam="1">  1        2 0.64908413E+00 0.60662798E+04</pdfrwt>
<pdfrwt beam="2">  1       -2 0.33547270E+00 0.60662798E+04</pdfrwt>
<totfact> 0.28541549E-03</totfact>
</mgrwt>
</event>
<event>
 6    1  0.5026615E-004  0.1710681E+04  0.7818608E-02  0.8755296E-01
         -2   -1    0    0    0  501 -0.00000000000E+00  0.00000000000E+00  0.63791217887E+03  0.63791217887E+03  0.00000000000E+00 0. -1.
          2   -1    0    0  501    0  0.00000000000E+00 -0.00000000000E+00 -0.11468779450E+04  0.11468779450E+04  0.00000000000E+00 0.  1.
         23    2    1    2    0    0  0.63219325070E+03 -0.65749006036E+01 -0.85241156609E+03  0.10652996424E+04  0.92446278961E+02 0.  0.
         13    1    3    3    0    0  0.20004331721E+03  0.35731733317E+02 -0.23818908250E+03  0.31309443392E+03  0.00000000000E+00 0. -1.
        -13    1    3    3    0    0  0.43214993349E+03 -0.42306633921E+02 -0.61422248359E+03  0.75220520846E+03  0.00000000000E+00 0.  1.
         22    1    1    2    0    0 -0.63219325070E+03  0.65749006036E+01  0.34344579991E+03  0.71949048154E+03  0.00000000000E+00 0. -1.
<mgrwt>
<rscale>  0 0.17106810E+04</rscale>
<asrwt>0</asrwt>
<pdfrwt beam="1">  1        2 0.17644276E+00 0.17106810E+04</pdfrwt>
<pdfrwt beam="2">  1       -2 0.98140337E-01 0.17106810E+04</pdfrwt>
<totfact> 0.16743437E+01</totfact>
</mgrwt>
</event>
<event>
 6    1  0.5026615E-004  0.8591874E+03  0.7818608E-02  0.9478088E-01
         -2   -1    0    0    0  501 -0.00000000000E+00  0.00000000000E+00  0.96704913157E+02  0.96704913157E+02  0.00000000000E+00 0. -1.
          2   -1    0    0  501    0  0.00000000000E+00 -0.00000000000E+00 -0.19083906940E+04  0.19083906940E+04  0.00000000000E+00 0.  1.
         23    2    1    2    0    0  0.15520257572E+03 -0.92592289189E+02 -0.18130198849E+04  0.18243666627E+04  0.92797873934E+02 0.  0.
         13    1    3    3    0    0  0.11793758224E+03 -0.26272760595E+02 -0.88096069327E+03  0.88920822890E+03  0.00000000000E+00 0.  1.
        -13    1    3    3    0    0  0.37264993484E+02 -0.66319528594E+02 -0.93205919161E+03  0.93515843379E+03  0.00000000000E+00 0. -1.
         22    1    1    2    0    0 -0.15520257572E+03  0.92592289189E+02  0.13341040639E+01  0.18072894445E+03  0.00000000000E+00 0. -1.
<mgrwt>
<rscale>  0 0.85918742E+03</rscale>
<asrwt>0</asrwt>
<pdfrwt beam="1">  1        2 0.29359854E+00 0.85918742E+03</pdfrwt>
<pdfrwt beam="2">  1       -2 0.14877680E-01 0.85918742E+03</pdfrwt>
<totfact> 0.27037969E+02</totfact>
</mgrwt>
</event>
<event>
 6    1  0.5026615E-004  0.2062246E+04  0.7818608E-02  0.8578059E-01
         -2   -1    0    0    0  501 -0.00000000000E+00  0.00000000000E+00  0.12232527527E+04  0.12232527527E+04  0.00000000000E+00 0. -1.
          2   -1    0    0  501    0  0.00000000000E+00 -0.00000000000E+00 -0.86916983371E+03  0.86916983371E+03  0.00000000000E+00 0.  1.
         23    2    1    2    0    0  0.42263038882E+02 -0.77024359632E+03 -0.51374063822E+03  0.93131144248E+03  0.91379414523E+02 0.  0.
         13    1    3    3    0    0  0.19129871563E+02 -0.32089374468E+03 -0.26867159961E+03  0.41895486129E+03  0.00000000000E+00 0.  1.
        -13    1    3    3    0    0  0.23133167319E+02 -0.44934985164E+03 -0.24506903861E+03  0.51235658118E+03  0.00000000000E+00 0. -1.
         22    1    1    2    0    0 -0.42263038882E+02  0.77024359632E+03  0.86782355722E+03  0.11611111439E+04  0.00000000000E+00 0. -1.
<mgrwt>
<rscale>  0 0.20622458E+04</rscale>
<asrwt>0</asrwt>
<pdfrwt beam="1">  1        2 0.13371844E+00 0.20622458E+04</pdfrwt>
<pdfrwt beam="2">  1       -2 0.18819273E+00 0.20622458E+04</pdfrwt>
<totfact> 0.45336781E+00</totfact>
</mgrwt>
</event>
<event>
 6    1  0.5026615E-004  0.4684728E+04  0.7818608E-02  0.7879071E-01
          2   -1    0    0  501    0  0.00000000000E+00  0.00000000000E+00  0.26735719748E+04  0.26735719748E+04  0.00000000000E+00 0.  1.
         -2   -1    0    0    0  501 -0.00000000000E+00 -0.00000000000E+00 -0.20521863666E+04  0.20521863666E+04  0.00000000000E+00 0. -1.
         23    2    1    2    0    0 -0.17260367622E+03 -0.17667568103E+04  0.18510140448E+04  0.25663121745E+04  0.92106066981E+02 0.  0.
         13    1    3    3    0    0 -0.84307263206E+02 -0.69138860218E+03  0.66629812606E+03  0.96388749688E+03  0.00000000000E+00 0. -1.
        -13    1    3    3    0    0 -0.88296413017E+02 -0.10753682081E+04  0.11847159187E+04  0.16024246777E+04  0.00000000000E+00 0.  1.
         22    1    1    2    0    0  0.17260367622E+03  0.17667568103E+04 -0.12296284366E+04  0.21594461669E+04  0.00000000000E+00 0. -1.
<mgrwt>
<rscale>  0 0.46847275E+04</rscale>
<asrwt>0</asrwt>
<pdfrwt beam="1">  1        2 0.41131877E+00 0.46847275E+04</pdfrwt>
<pdfrwt beam="2">  1       -2 0.31572098E+00 0.46847275E+04</pdfrwt>
<totfact> 0.52296614E-02</totfact>
</mgrwt>
</event>
<event>
 6    1  0.5026615E-004  0.2009416E+04  0.7818608E-02  0.8602231E-01
          2   -1    0    0  501    0  0.00000000000E+00  0.00000000000E+00  0.41109782214E+04  0.41109782214E+04  0.00000000000E+00 0.  1.
         -2   -1    0    0    0  501 -0.00000000000E+00 -0.00000000000E+00 -0.24554702072E+03  0.24554702072E+03  0.00000000000E+00 0. -1.
         23    2    1    2    0    0 -0.46820712915E+03  0.64744448588E+03  0.32499289693E+04  0.33479394625E+04  0.90873872141E+02 0.  0.
         11    1    3    3    0    0 -0.46034048827E+02  0.11587727864E+03  0.55480005483E+03  0.56863853034E+03  0.00000000000E+00 0. -1.
        -11    1    3    3    0    0 -0.42217308033E+03  0.53156720724E+03  0.26951289145E+04  0.27793009321E+04  0.00000000000E+00 0.  1.
         22    1    1    2    0    0  0.46820712915E+03 -0.64744448588E+03  0.61550223135E+03  0.10085857796E+04  0.00000000000E+00 0. -1.
<mgrwt>
<rscale>  0 0.20094163E+04</rscale>
<asrwt>0</asrwt>
<pdfrwt beam="1">  1        2 0.63245814E+00 0.20094163E+04</pdfrwt>
<pdfrwt beam="2">  1       -2 0.37776468E-01 0.20094163E+04</pdfrwt>
<totfact> 0.17205951E+00</totfact>
</mgrwt>
</event>
<event>
 6    1  0.5094392E-004  0.2691137E+04  0.7818608E-02  0.8337887E-01
         -2   -1    0    0    0  501 -0.00000000000E+00  0.00000000000E+00  0.97757704875E+03  0.97757704875E+03  0.00000000000E+00 0. -1.
          2   -1    0    0  501    0  0.00000000000E+00 -0.00000000000E+00 -0.18520831881E+04  0.18520831881E+04  0.00000000000E+00 0.  1.
         23    2    1    2    0    0 -0.10344630505E+02  0.64892698720E+03  0.79964923250E+03  0.10341075489E+04  0.93414568300E+02 0.  0.
         13    1    3    3    0    0  0.10704495524E+02  0.35633069922E+03  0.50659716045E+03  0.61945688826E+03  0.00000000000E+00 0. -1.
        -13    1    3    3    0    0 -0.21049126029E+02  0.29259628797E+03  0.29305207205E+03  0.41465066065E+03  0.00000000000E+00 0.  1.
         22    1    1    2    0    0  0.10344630505E+02 -0.64892698720E+03 -0.16741553719E+04  0.17955526880E+04  0.00000000000E+00 0.  1.
<mgrwt>
<rscale>  0 0.26911366E+04</rscale>
<asrwt>0</asrwt>
<pdfrwt beam="1">  1        2 0.28493587E+00 0.26911366E+04</pdfrwt>
<pdfrwt beam="2">  1       -2 0.15039647E+00 0.26911366E+04</pdfrwt>
<totfact> 0.21090098E+00</totfact>
</mgrwt>
</event>
<event>
 6    1  0.5026615E-004  0.2951044E+04  0.7818608E-02  0.8257850E-01
          2   -1    0    0  501    0  0.00000000000E+00  0.00000000000E+00  0.31767213376E+04  0.31767213376E+04  0.00000000000E+00 0.  1.
         -2   -1    0    0    0  501 -0.00000000000E+00 -0.00000000000E+00 -0.68534975100E+03  0.68534975100E+03  0.00000000000E+00 0. -1.
         23    2    1    2    0    0  0.79548914242E+02 -0.64476038396E+03  0.29786228378E+04  0.30500010398E+04  0.90930469075E+02 0.  0.
         11    1    3    3    0    0  0.96575003451E+02 -0.59488709826E+03  0.27010362518E+04  0.27674562732E+04  0.00000000000E+00 0.  1.
        -11    1    3    3    0    0 -0.17026089209E+02 -0.49873285697E+02  0.27758658606E+03  0.28254476655E+03  0.00000000000E+00 0. -1.
         22    1    1    2    0    0 -0.79548914242E+02  0.64476038396E+03 -0.48725125117E+03  0.81207004886E+03  0.00000000000E+00 0. -1.
<mgrwt>
<rscale>  0 0.29510440E+04</rscale>
<asrwt>0</asrwt>
<pdfrwt beam="1">  1        2 0.48872635E+00 0.29510440E+04</pdfrwt>
<pdfrwt beam="2">  1       -2 0.10543842E+00 0.29510440E+04</pdfrwt>
<totfact> 0.83938532E-01</totfact>
</mgrwt>
</event>
<event>
 6    1  0.5026615E-004  0.3123616E+04  0.7818608E-02  0.8209286E-01
          2   -1    0    0  501    0  0.00000000000E+00  0.00000000000E+00  0.13667867895E+04  0.13667867895E+04  0.00000000000E+00 0.  1.
         -2   -1    0    0    0  501 -0.00000000000E+00 -0.00000000000E+00 -0.17846561751E+04  0.17846561751E+04  0.00000000000E+00 0. -1.
         23    2    1    2    0    0  0.30509010855E+03 -0.39738099189E+03  0.12819504353E+04  0.13793314979E+04  0.90370545263E+02 0.  0.
         13    1    3    3    0    0  0.98005558921E+02 -0.87562528902E+02  0.25533716090E+03  0.28717477568E+03  0.00000000000E+00 0.  1.
        -13    1    3    3    0    0  0.20708454963E+03 -0.30981846299E+03  0.10266132744E+04  0.10921567222E+04  0.00000000000E+00 0. -1.
         22    1    1    2    0    0 -0.30509010855E+03  0.39738099189E+03 -0.16998198209E+04  0.17721114667E+04  0.00000000000E+00 0. -1.
<mgrwt>
<rscale>  0 0.31236162E+04</rscale>
<asrwt>0</asrwt>
<pdfrwt beam="1">  1        2 0.21027489E+00 0.31236162E+04</pdfrwt>
<pdfrwt beam="2">  1       -2 0.27456249E+00 0.31236162E+04</pdfrwt>
<totfact> 0.58240013E-01</totfact>
</mgrwt>
</event>
<event>
 6    1  0.5026615E-004  0.4803236E+04  0.7818608E-02  0.7859598E-01
         -2   -1    0    0    0  501 -0.00000000000E+00  0.00000000000E+00  0.29035658726E+04  0.29035658726E+04  0.00000000000E+00 0. -1.
          2   -1    0    0  501    0  0.00000000000E+00 -0.00000000000E+00 -0.19864437178E+04  0.19864437178E+04  0.00000000000E+00 0.  1.
         23    2    1    2    0    0  0.16573367062E+04  0.97476588493E+03 -0.10048087608E+04  0.21714158487E+04  0.92047019954E+02 0.  0.
         11    1    3    3    0    0  0.62773823665E+03  0.37973806966E+03 -0.33425607070E+03  0.80621548987E+03  0.00000000000E+00 0.  1.
        -11    1    3    3    0    0  0.10295984696E+04  0.59502781526E+03 -0.67055269010E+03  0.13652003588E+04  0.00000000000E+00 0. -1.
         22    1    1    2    0    0 -0.16573367062E+04 -0.97476588493E+03  0.19219309156E+04  0.27185937417E+04  0.00000000000E+00 0. -1.
<mgrwt>
<rscale>  0 0.48032365E+04</rscale>
<asrwt>0</asrwt>
<pdfrwt beam="1">  1        2 0.30560672E+00 0.48032365E+04</pdfrwt>
<pdfrwt beam="2">  1       -2 0.44670244E+00 0.48032365E+04</pdfrwt>
<totfact> 0.18384616E-02</totfact>
</mgrwt>
</event>
<event>
 6    1  0.5026615E-004  0.2777439E+04  0.7818608E-02  0.8310307E-01
          2   -1    0    0  501    0  0.00000000000E+00  0.00000000000E+00  0.25748673942E+04  0.25748673942E+04  0.00000000000E+00 0.  1.
         -2   -1    0    0    0  501 -0.00000000000E+00 -0.00000000000E+00 -0.74898682922E+03  0.74898682922E+03  0.00000000000E+00 0. -1.
         23    2    1    2    0    0  0.11361624925E+04 -0.79410909268E+03  0.92661978660E+03  0.16715393600E+04  0.11808955375E+03 0.  0.
         11    1    3    3    0    0  0.13051789429E+03 -0.68296264191E+02  0.13786384577E+03  0.20175663658E+03  0.00000000000E+00 0. -1.
        -11    1    3    3    0    0  0.10056445982E+04 -0.72581282849E+03  0.78875594083E+03  0.14697827234E+04  0.00000000000E+00 0.  1.
         22    1    1    2    0    0 -0.11361624925E+04  0.79410909268E+03  0.89926077842E+03  0.16523148635E+04  0.00000000000E+00 0. -1.
<mgrwt>
<rscale>  0 0.27774389E+04</rscale>
<asrwt>0</asrwt>
<pdfrwt beam="1">  1        2 0.39613344E+00 0.27774389E+04</pdfrwt>
<pdfrwt beam="2">  1       -2 0.11522874E+00 0.27774389E+04</pdfrwt>
<totfact> 0.16100695E+00</totfact>
</mgrwt>
</event>
<event>
 6    1  0.5026615E-004  0.2451094E+04  0.7818608E-02  0.8420619E-01
          2   -1    0    0  501    0  0.00000000000E+00  0.00000000000E+00  0.10481726916E+04  0.10481726916E+04  0.00000000000E+00 0.  1.
         -2   -1    0    0    0  501 -0.00000000000E+00 -0.00000000000E+00 -0.14329364394E+04  0.14329364394E+04  0.00000000000E+00 0. -1.
         23    2    1    2    0    0  0.58762708291E+03  0.49678637315E+03 -0.11560105048E+04  0.13916487832E+04  0.90684946368E+02 0.  0.
         13    1    3    3    0    0  0.46698113477E+03  0.42989772768E+03 -0.98714006484E+03  0.11735965849E+04  0.00000000000E+00 0.  1.
        -13    1    3    3    0    0  0.12064594813E+03  0.66888645479E+02 -0.16887043999E+03  0.21805219833E+03  0.00000000000E+00 0. -1.
         22    1    1    2    0    0 -0.58762708291E+03 -0.49678637315E+03  0.77124675699E+03  0.10894603477E+04  0.00000000000E+00 0.  1.
<mgrwt>
<rscale>  0 0.24510935E+04</rscale>
<asrwt>0</asrwt>
<pdfrwt beam="1">  1        2 0.16125734E+00 0.24510935E+04</pdfrwt>
<pdfrwt beam="2">  1       -2 0.22045176E+00 0.24510935E+04</pdfrwt>
<totfact> 0.20632682E+00</totfact>
</mgrwt>
</event>
<event>
 6    1  0.5026615E-004  0.4798947E+04  0.7818608E-02  0.7860293E-01
          2   -1    0    0  501    0  0.00000000000E+00  0.00000000000E+00  0.33117009922E+04  0.33117009922E+04  0.00000000000E+00 0.  1.
         -2   -1    0    0    0  501 -0.00000000000E+00 -0.00000000000E+00 -0.17385245609E+04  0.17385245609E+04  0.00000000000E+00 0. -1.
         23    2    1    2    0    0  0.23175098002E+04  0.50145198676E+02  0.13841064294E+03  0.23240709202E+04  0.93711903320E+02 0.  0.
         11    1    3    3    0    0  0.40183101055E+03  0.20498678727E+02 -0.94613766012E+01  0.40246474941E+03  0.00000000000E+00 0. -1.
        -11    1    3    3    0    0  0.19156787897E+04  0.29646519948E+02  0.14787201954E+03  0.19216061707E+04  0.00000000000E+00 0.  1.
         22    1    1    2    0    0 -0.23175098002E+04 -0.50145198676E+02  0.14347657883E+04  0.27261546329E+04  0.00000000000E+00 0.  1.
<mgrwt>
<rscale>  0 0.47989472E+04</rscale>
<asrwt>0</asrwt>
<pdfrwt beam="1">  1        2 0.50949246E+00 0.47989472E+04</pdfrwt>
<pdfrwt beam="2">  1       -2 0.26746532E+00 0.47989472E+04</pdfrwt>
<totfact> 0.40592646E-02</totfact>
</mgrwt>
</event>
<event>
 6    1  0.6855205E-004  0.2318861E+04  0.7818608E-02  0.8470522E-01
         -2   -1    0    0    0  501 -0.00000000000E+00  0.00000000000E+00  0.15231522732E+04  0.15231522732E+04  0.00000000000E+00 0. -1.
          2   -1    0    0  501    0  0.00000000000E+00 -0.00000000000E+00 -0.88256344351E+03  0.88256344351E+03  0.00000000000E+00 0.  1.
         23    2    1    2    0    0 -0.10021711892E+03 -0.11433780885E+04  0.47666159309E+03  0.12463067884E+04  0.93367084283E+02 0.  0.
         13    1    3    3    0    0 -0.27212747934E+01 -0.55978125980E+03  0.23909550316E+03  0.60871103472E+03  0.00000000000E+00 0. -1.
        -13    1    3    3    0    0 -0.97495844130E+02 -0.58359682866E+03  0.23756608993E+03  0.63759575369E+03  0.00000000000E+00 0.  1.
         22    1    1    2    0    0  0.10021711892E+03  0.11433780885E+04  0.16392723659E+03  0.11594089283E+04  0.00000000000E+00 0.  1.
<mgrwt>
<rscale>  0 0.23188605E+04</rscale>
<asrwt>0</asrwt>
<pdfrwt beam="1">  1        2 0.13577899E+00 0.23188605E+04</pdfrwt>
<pdfrwt beam="2">  1       -2 0.23433112E+00 0.23188605E+04</pdfrwt>
<totfact> 0.21908392E+00</totfact>
</mgrwt>
</event>
<event>
 6    1  0.5026615E-004  0.4775256E+04  0.7818608E-02  0.7864143E-01
         -2   -1    0    0    0  501 -0.00000000000E+00  0.00000000000E+00  0.19296932395E+04  0.19296932395E+04  0.00000000000E+00 0.  1.
          2   -1    0    0  501    0  0.00000000000E+00 -0.00000000000E+00 -0.29542350050E+04  0.29542350050E+04  0.00000000000E+00 0. -1.
         23    2    1    2    0    0  0.18279413168E+04 -0.11170417484E+04  0.56388881110E+03  0.22170455283E+04  0.90380074327E+02 0.  0.
         13    1    3    3    0    0  0.93367966623E+03 -0.54219000294E+03  0.32357812258E+03  0.11271337631E+04  0.00000000000E+00 0. -1.
        -13    1    3    3    0    0  0.89426165054E+03 -0.57485174548E+03  0.24031068852E+03  0.10899117652E+04  0.00000000000E+00 0.  1.
         22    1    1    2    0    0 -0.18279413168E+04  0.11170417484E+04 -0.15884305766E+04  0.26668827162E+04  0.00000000000E+00 0. -1.
<mgrwt>
<rscale>  0 0.47752559E+04</rscale>
<asrwt>0</asrwt>
<pdfrwt beam="1">  1        2 0.45449769E+00 0.47752559E+04</pdfrwt>
<pdfrwt beam="2">  1       -2 0.29687588E+00 0.47752559E+04</pdfrwt>
<totfact> 0.45756239E-02</totfact>
</mgrwt>
</event>
<event>
 6    1  0.5026615E-004  0.5537452E+04  0.7818608E-02  0.7750557E-01
          2   -1    0    0  501    0  0.00000000000E+00  0.00000000000E+00  0.42205200433E+04  0.42205200433E+04  0.00000000000E+00 0.  1.
         -2   -1    0    0    0  501 -0.00000000000E+00 -0.00000000000E+00 -0.18163270710E+04  0.18163270710E+04  0.00000000000E+00 0. -1.
         23    2    1    2    0    0 -0.68139783211E+03 -0.11118099309E+04  0.38641845876E+04  0.40792976654E+04  0.91228216067E+02 0.  0.
         11    1    3    3    0    0 -0.33568802581E+03 -0.63458646898E+03  0.21201238152E+04  0.22383724956E+04  0.00000000000E+00 0. -1.
        -11    1    3    3    0    0 -0.34570980630E+03 -0.47722346190E+03  0.17440607724E+04  0.18409251698E+04  0.00000000000E+00 0.  1.
         22    1    1    2    0    0  0.68139783211E+03  0.11118099309E+04 -0.14599916153E+04  0.19575494489E+04  0.00000000000E+00 0. -1.
<mgrwt>
<rscale>  0 0.55374524E+04</rscale>
<asrwt>0</asrwt>
<pdfrwt beam="1">  1        2 0.64931077E+00 0.55374524E+04</pdfrwt>
<pdfrwt beam="2">  1       -2 0.27943494E+00 0.55374524E+04</pdfrwt>
<totfact> 0.65613525E-03</totfact>
</mgrwt>
</event>
<event>
 6    1  0.5026615E-004  0.1384447E+04  0.7818608E-02  0.8965154E-01
         -2   -1    0    0    0  501 -0.00000000000E+00  0.00000000000E+00  0.48386099066E+03  0.48386099066E+03  0.00000000000E+00 0. -1.
          2   -1    0    0  501    0  0.00000000000E+00 -0.00000000000E+00 -0.99031200996E+03  0.99031200996E+03  0.00000000000E+00 0.  1.
         23    2    1    2    0    0 -0.56266830273E+03  0.38507199414E+03 -0.14597173024E+03  0.70292636212E+03  0.89003735667E+02 0.  0.
         13    1    3    3    0    0 -0.29295322914E+03  0.20448880450E+03 -0.12174201239E+03  0.37743659496E+03  0.00000000000E+00 0. -1.
        -13    1    3    3    0    0 -0.26971507359E+03  0.18058318964E+03 -0.24229717854E+02  0.32548976716E+03  0.00000000000E+00 0.  1.
         22    1    1    2    0    0  0.56266830273E+03 -0.38507199414E+03 -0.36047928906E+03  0.77124663850E+03  0.00000000000E+00 0.  1.
<mgrwt>
<rscale>  0 0.13844470E+04</rscale>
<asrwt>0</asrwt>
<pdfrwt beam="1">  1        2 0.15235569E+00 0.13844470E+04</pdfrwt>
<pdfrwt beam="2">  1       -2 0.74440152E-01 0.13844470E+04</pdfrwt>
<totfact> 0.40435960E+01</totfact>
</mgrwt>
</event>
<event>
 6    1  0.5026615E-004  0.8801673E+03  0.7818608E-02  0.9450719E-01
          1   -1    0    0  501    0  0.00000000000E+00  0.00000000000E+00  0.77716196671E+03  0.77716196671E+03  0.00000000000E+00 0.  1.
         -1   -1    0    0    0  501 -0.00000000000E+00 -0.00000000000E+00 -0.24920623403E+03  0.24920623403E+03  0.00000000000E+00 0. -1.
         23    2    1    2    0    0  0.14805632545E+03 -0.39121042974E+03  0.12717397607E+03  0.44706491897E+03  0.93421334534E+02 0.  0.
         13    1    3    3    0    0  0.13555013563E+03 -0.35280684905E+03  0.14242146716E+03  0.40389402858E+03  0.00000000000E+00 0.  1.
        -13    1    3    3    0    0  0.12506189813E+02 -0.38403580683E+02 -0.15247491095E+02  0.43170890396E+02  0.00000000000E+00 0. -1.
         22    1    1    2    0    0 -0.14805632545E+03  0.39121042974E+03  0.40078175661E+03  0.57930328177E+03  0.00000000000E+00 0.  1.
<mgrwt>
<rscale>  0 0.88016727E+03</rscale>
<asrwt>0</asrwt>
<pdfrwt beam="1">  1        1 0.11956338E+00 0.88016727E+03</pdfrwt>
<pdfrwt beam="2">  1       -1 0.38339421E-01 0.88016727E+03</pdfrwt>
<totfact> 0.15354738E+02</totfact>
</mgrwt>
</event>
<event>
 6    1  0.5026615E-004  0.3820893E+04  0.7818608E-02  0.8041686E-01
          2   -1    0    0  501    0  0.00000000000E+00  0.00000000000E+00  0.15488805566E+04  0.15488805566E+04  0.00000000000E+00 0.  1.
         -2   -1    0    0    0  501 -0.00000000000E+00 -0.00000000000E+00 -0.23564153454E+04  0.23564153454E+04  0.00000000000E+00 0. -1.
         23    2    1    2    0    0  0.14329667916E+04  0.69492310068E+03  0.67254420417E+03  0.17311418672E+04  0.90689117673E+02 0.  0.
         11    1    3    3    0    0  0.43942377019E+03  0.23465137799E+03  0.17012524352E+03  0.52640014958E+03  0.00000000000E+00 0. -1.
        -11    1    3    3    0    0  0.99354302142E+03  0.46027172269E+03  0.50241896065E+03  0.12047417176E+04  0.00000000000E+00 0.  1.
         22    1    1    2    0    0 -0.14329667916E+04 -0.69492310068E+03 -0.14800789930E+04  0.21741540348E+04  0.00000000000E+00 0. -1.
<mgrwt>
<rscale>  0 0.38208930E+04</rscale>
<asrwt>0</asrwt>
<pdfrwt beam="1">  1        2 0.23828932E+00 0.38208930E+04</pdfrwt>
<pdfrwt beam="2">  1       -2 0.36252544E+00 0.38208930E+04</pdfrwt>
<totfact> 0.12352306E-01</totfact>
</mgrwt>
</event>
<event>
 6    1  0.5026615E-004  0.3019633E+04  0.7818608E-02  0.8238147E-01
          2   -1    0    0  501    0  0.00000000000E+00  0.00000000000E+00  0.33704804398E+04  0.33704804398E+04  0.00000000000E+00 0.  1.
         -2   -1    0    0    0  501 -0.00000000000E+00 -0.00000000000E+00 -0.67632679659E+03  0.67632679659E+03  0.00000000000E+00 0. -1.
         23    2    1    2    0    0 -0.10075393763E+04  0.97206141620E+03  0.59399867897E+03  0.15227846799E+04  0.77458111773E+02 0.  0.
         13    1    3    3    0    0 -0.88168291310E+03  0.87598779029E+03  0.50877915045E+03  0.13429726698E+04  0.00000000000E+00 0. -1.
        -13    1    3    3    0    0 -0.12585646322E+03  0.96073625912E+02  0.85219528521E+02  0.17981201009E+03  0.00000000000E+00 0.  1.
         22    1    1    2    0    0  0.10075393763E+04 -0.97206141620E+03  0.21001549642E+04  0.25240225565E+04  0.00000000000E+00 0.  1.
<mgrwt>
<rscale>  0 0.30196332E+04</rscale>
<asrwt>0</asrwt>
<pdfrwt beam="1">  1        2 0.51853544E+00 0.30196332E+04</pdfrwt>
<pdfrwt beam="2">  1       -2 0.10405028E+00 0.30196332E+04</pdfrwt>
<totfact> 0.64064437E-01</totfact>
</mgrwt>
</event>
<event>
 6    1  0.5026615E-004  0.1775473E+04  0.7818608E-02  0.8719453E-01
         -2   -1    0    0    0  501 -0.00000000000E+00  0.00000000000E+00  0.10615764491E+04  0.10615764491E+04  0.00000000000E+00 0. -1.
          2   -1    0    0  501    0  0.00000000000E+00 -0.00000000000E+00 -0.74236384137E+03  0.74236384137E+03  0.00000000000E+00 0.  1.
         23    2    1    2    0    0 -0.14481562390E+03 -0.76043838962E+03  0.59739226550E+03  0.98136990963E+03  0.83494139443E+02 0.  0.
         11    1    3    3    0    0 -0.60380502334E+02 -0.50014999482E+03  0.36114195957E+03  0.61985428719E+03  0.00000000000E+00 0.  1.
        -11    1    3    3    0    0 -0.84435121569E+02 -0.26028839480E+03  0.23625030593E+03  0.36151562245E+03  0.00000000000E+00 0. -1.
         22    1    1    2    0    0  0.14481562390E+03  0.76043838962E+03 -0.27817965782E+03  0.82257038079E+03  0.00000000000E+00 0.  1.
<mgrwt>
<rscale>  0 0.17754729E+04</rscale>
<asrwt>0</asrwt>
<pdfrwt beam="1">  1        2 0.11420982E+00 0.17754729E+04</pdfrwt>
<pdfrwt beam="2">  1       -2 0.16331945E+00 0.17754729E+04</pdfrwt>
<totfact> 0.85548127E+00</totfact>
</mgrwt>
</event>
<event>
 6    1  0.5026615E-004  0.5125901E+04  0.7818608E-02  0.7809374E-01
         -2   -1    0    0    0  501 -0.00000000000E+00  0.00000000000E+00  0.47645276040E+04  0.47645276040E+04  0.00000000000E+00 0.  1.
          2   -1    0    0  501    0  0.00000000000E+00 -0.00000000000E+00 -0.13786708821E+04  0.13786708821E+04  0.00000000000E+00 0. -1.
         23    2    1    2    0    0 -0.22474276813E+04  0.94680911017E+03  0.26349891076E+04  0.35914969268E+04  0.91125761842E+02 0.  0.
         11    1    3    3    0    0 -0.14293398222E+04  0.62464289967E+03  0.17414580461E+04  0.23379194182E+04  0.00000000000E+00 0.  1.
        -11    1    3    3    0    0 -0.81808785911E+03  0.32216621051E+03  0.89353106148E+03  0.12535775087E+04  0.00000000000E+00 0. -1.
         22    1    1    2    0    0  0.22474276813E+04 -0.94680911017E+03  0.75086761429E+03  0.25517015593E+04  0.00000000000E+00 0. -1.
<mgrwt>
<rscale>  0 0.51259011E+04</rscale>
<asrwt>0</asrwt>
<pdfrwt beam="1">  1        2 0.21210321E+00 0.51259011E+04</pdfrwt>
<pdfrwt beam="2">  1       -2 0.73300424E+00 0.51259011E+04</pdfrwt>
<totfact> 0.18372272E-03</totfact>
</mgrwt>
</event>
<event>
 6    1  0.5026615E-004  0.1548051E+04  0.7818608E-02  0.8853114E-01
         -2   -1    0    0    0  501 -0.00000000000E+00  0.00000000000E+00  0.75175064331E+03  0.75175064331E+03  0.00000000000E+00 0. -1.
          2   -1    0    0  501    0  0.00000000000E+00 -0.00000000000E+00 -0.79696029320E+03  0.79696029320E+03  0.00000000000E+00 0.  1.
         23    2    1    2    0    0 -0.39683752803E+03 -0.40251936211E+02 -0.68338382693E+03  0.79613766948E+03  0.87872019625E+02 0.  0.
         11    1    3    3    0    0 -0.26889142466E+03  0.96660574963E+01 -0.48890026770E+03  0.55804973136E+03  0.00000000000E+00 0. -1.
        -11    1    3    3    0    0 -0.12794610337E+03 -0.49917993707E+02 -0.19448355923E+03  0.23808793811E+03  0.00000000000E+00 0.  1.
         22    1    1    2    0    0  0.39683752803E+03  0.40251936211E+02  0.63817417704E+03  0.75257326704E+03  0.00000000000E+00 0. -1.
<mgrwt>
<rscale>  0 0.15480509E+04</rscale>
<asrwt>0</asrwt>
<pdfrwt beam="1">  1        2 0.12260928E+00 0.15480509E+04</pdfrwt>
<pdfrwt beam="2">  1       -2 0.11565394E+00 0.15480509E+04</pdfrwt>
<totfact> 0.19382740E+01</totfact>
</mgrwt>
</event>
<event>
 6    1  0.6104877E-004  0.3173456E+04  0.7818608E-02  0.8195863E-01
          2   -1    0    0  501    0  0.00000000000E+00  0.00000000000E+00  0.10494639559E+04  0.10494639559E+04  0.00000000000E+00 0.  1.
         -2   -1    0    0    0  501 -0.00000000000E+00 -0.00000000000E+00 -0.23990391679E+04  0.23990391679E+04  0.00000000000E+00 0. -1.
         23    2    1    2    0    0  0.50758896940E+03  0.18525950558E+03 -0.22949933030E+04  0.23595664805E+04  0.92693414047E+02 0.  0.
         13    1    3    3    0    0  0.34727029476E+03  0.13535055607E+03 -0.13885076796E+04  0.14376612977E+04  0.00000000000E+00 0.  1.
        -13    1    3    3    0    0  0.16031867464E+03  0.49908949507E+02 -0.90648562344E+03  0.92190518286E+03  0.00000000000E+00 0. -1.
         22    1    1    2    0    0 -0.50758896940E+03 -0.18525950558E+03  0.94541809099E+03  0.10889366433E+04  0.00000000000E+00 0.  1.
<mgrwt>
<rscale>  0 0.31734556E+04</rscale>
<asrwt>0</asrwt>
<pdfrwt beam="1">  1        2 0.16145600E+00 0.31734556E+04</pdfrwt>
<pdfrwt beam="2">  1       -2 0.36908294E+00 0.31734556E+04</pdfrwt>
<totfact> 0.23252221E-01</totfact>
</mgrwt>
</event>
<event>
 6    1  0.5026615E-004  0.5362406E+04  0.7818608E-02  0.7774911E-01
          2   -1    0    0  501    0  0.00000000000E+00  0.00000000000E+00  0.30041369953E+04  0.30041369953E+04  0.00000000000E+00 0.  1.
         -2   -1    0    0    0  501 -0.00000000000E+00 -0.00000000000E+00 -0.23929834191E+04  0.23929834191E+04  0.00000000000E+00 0. -1.
         23    2    1    2    0    0 -0.13682499643E+04 -0.20676135291E+04  0.13309604319E+04  0.28154047871E+04  0.88965012036E+02 0.  0.
         13    1    3    3    0    0 -0.67748772293E+03 -0.96448590876E+03  0.59841808142E+03  0.13218649262E+04  0.00000000000E+00 0. -1.
        -13    1    3    3    0    0 -0.69076224141E+03 -0.11031276203E+04  0.73254235049E+03  0.14935398609E+04  0.00000000000E+00 0.  1.
         22    1    1    2    0    0  0.13682499643E+04  0.20676135291E+04 -0.71980685566E+03  0.25817156273E+04  0.00000000000E+00 0. -1.
<mgrwt>
<rscale>  0 0.53624062E+04</rscale>
<asrwt>0</asrwt>
<pdfrwt beam="1">  1        2 0.46217492E+00 0.53624062E+04</pdfrwt>
<pdfrwt beam="2">  1       -2 0.36815130E+00 0.53624062E+04</pdfrwt>
<totfact> 0.14605503E-02</totfact>
</mgrwt>
</event>
<event>
 6    1  0.5026615E-004  0.3918864E+04  0.7818608E-02  0.8021117E-01
         -2   -1    0    0    0  501 -0.00000000000E+00  0.00000000000E+00  0.78840120772E+03  0.78840120772E+03  0.00000000000E+00 0. -1.
          2   -1    0    0  501    0  0.00000000000E+00 -0.00000000000E+00 -0.48698217096E+04  0.48698217096E+04  0.00000000000E+00 0.  1.
         23    2    1    2    0    0  0.96946310395E+03  0.14705689956E+04 -0.80586080423E+03  0.19391204431E+04  0.91348653973E+02 0.  0.
         13    1    3    3    0    0  0.54666247417E+03  0.88649773957E+03 -0.51126404132E+03  0.11602193857E+04  0.00000000000E+00 0.  1.
        -13    1    3    3    0    0  0.42280062977E+03  0.58407125599E+03 -0.29459676291E+03  0.77890105747E+03  0.00000000000E+00 0. -1.
         22    1    1    2    0    0 -0.96946310395E+03 -0.14705689956E+04 -0.32755596977E+04  0.37191024742E+04  0.00000000000E+00 0.  1.
<mgrwt>
<rscale>  0 0.39188638E+04</rscale>
<asrwt>0</asrwt>
<pdfrwt beam="1">  1        2 0.74920333E+00 0.39188638E+04</pdfrwt>
<pdfrwt beam="2">  1       -2 0.12129249E+00 0.39188638E+04</pdfrwt>
<totfact> 0.20101971E-02</totfact>
</mgrwt>
</event>
<event>
 6    1  0.5026615E-004  0.3095851E+04  0.7818608E-02  0.8216877E-01
          2   -1    0    0  501    0  0.00000000000E+00  0.00000000000E+00  0.25733167758E+04  0.25733167758E+04  0.00000000000E+00 0.  1.
         -2   -1    0    0    0  501 -0.00000000000E+00 -0.00000000000E+00 -0.93112279104E+03  0.93112279104E+03  0.00000000000E+00 0. -1.
         23    2    1    2    0    0  0.64627579108E+03 -0.71237525868E+03  0.21927653439E+04  0.23961617457E+04  0.90666148491E+02 0.  0.
         13    1    3    3    0    0  0.59590651827E+03 -0.62949865364E+03  0.20179731521E+04  0.21962670093E+04  0.00000000000E+00 0. -1.
        -13    1    3    3    0    0  0.50369272812E+02 -0.82876605042E+02  0.17479219186E+03  0.19989473641E+03  0.00000000000E+00 0.  1.
         22    1    1    2    0    0 -0.64627579108E+03  0.71237525868E+03 -0.55057135919E+03  0.11082778212E+04  0.00000000000E+00 0. -1.
<mgrwt>
<rscale>  0 0.30958514E+04</rscale>
<asrwt>0</asrwt>
<pdfrwt beam="1">  1        2 0.39589489E+00 0.30958514E+04</pdfrwt>
<pdfrwt beam="2">  1       -2 0.14324966E+00 0.30958514E+04</pdfrwt>
<totfact> 0.90618843E-01</totfact>
</mgrwt>
</event>
<event>
 6    1  0.5026615E-004  0.3621540E+04  0.7818608E-02  0.8085575E-01
         -2   -1    0    0    0  501 -0.00000000000E+00  0.00000000000E+00  0.23633757908E+04  0.23633757908E+04  0.00000000000E+00 0. -1.
          2   -1    0    0  501    0  0.00000000000E+00 -0.00000000000E+00 -0.13873751715E+04  0.13873751715E+04  0.00000000000E+00 0.  1.
         23    2    1    2    0    0  0.53421928387E+03 -0.13636791115E+04 -0.61256860405E+03  0.15900651591E+04  0.89754962622E+02 0.  0.
         13    1    3    3    0    0  0.40975128489E+03 -0.93500169032E+03 -0.41736438888E+03  0.11028677661E+04  0.00000000000E+00 0. -1.
        -13    1    3    3    0    0  0.12446799898E+03 -0.42867742116E+03 -0.19520421517E+03  0.48719739306E+03  0.00000000000E+00 0.  1.
         22    1    1    2    0    0 -0.53421928387E+03  0.13636791115E+04  0.15885692234E+04  0.21606858032E+04  0.00000000000E+00 0. -1.
<mgrwt>
<rscale>  0 0.36215405E+04</rscale>
<asrwt>0</asrwt>
<pdfrwt beam="1">  1        2 0.21344233E+00 0.36215405E+04</pdfrwt>
<pdfrwt beam="2">  1       -2 0.36359628E+00 0.36215405E+04</pdfrwt>
<totfact> 0.15263808E-01</totfact>
</mgrwt>
</event>
<event>
 6    1  0.5026615E-004  0.5886011E+04  0.7818608E-02  0.7704698E-01
         -2   -1    0    0    0  501 -0.00000000000E+00  0.00000000000E+00  0.26008956778E+04  0.26008956778E+04  0.00000000000E+00 0. -1.
          2   -1    0    0  501    0  0.00000000000E+00 -0.00000000000E+00 -0.33301153119E+04  0.33301153119E+04  0.00000000000E+00 0.  1.
         23    2    1    2    0    0 -0.12320899409E+04 -0.15323165173E+04  0.18408780967E+04  0.26950502549E+04  0.91783319540E+02 0.  0.
         13    1    3    3    0    0 -0.62596032729E+03 -0.71260869240E+03  0.91460706191E+03  0.13176280042E+04  0.00000000000E+00 0. -1.
        -13    1    3    3    0    0 -0.60612961365E+03 -0.81970782492E+03  0.92627103477E+03  0.13774222507E+04  0.00000000000E+00 0.  1.
         22    1    1    2    0    0  0.12320899409E+04  0.15323165173E+04 -0.25700977308E+04  0.32359607349E+04  0.00000000000E+00 0.  1.
<mgrwt>
<rscale>  0 0.58860114E+04</rscale>
<asrwt>0</asrwt>
<pdfrwt beam="1">  1        2 0.51232543E+00 0.58860114E+04</pdfrwt>
<pdfrwt beam="2">  1       -2 0.40013780E+00 0.58860114E+04</pdfrwt>
<totfact> 0.53472061E-03</totfact>
</mgrwt>
</event>
<event>
 6    1  0.5026615E-004  0.1167973E+04  0.7818608E-02  0.9141361E-01
          1   -1    0    0  501    0  0.00000000000E+00  0.00000000000E+00  0.82509675921E+03  0.82509675921E+03  0.00000000000E+00 0.  1.
         -1   -1    0    0    0  501 -0.00000000000E+00 -0.00000000000E+00 -0.41333367489E+03  0.41333367489E+03  0.00000000000E+00 0. -1.
         23    2    1    2    0    0  0.39869076443E+03 -0.32800541523E+02 -0.23897217240E+03  0.47456750430E+03  0.89868881067E+02 0.  0.
         11    1    3    3    0    0  0.25760564168E+03 -0.61072088406E+02 -0.17312341543E+03  0.31632607161E+03  0.00000000000E+00 0. -1.
        -11    1    3    3    0    0  0.14108512275E+03  0.28271546883E+02 -0.65848756971E+02  0.15824143269E+03  0.00000000000E+00 0.  1.
         22    1    1    2    0    0 -0.39869076443E+03  0.32800541523E+02  0.65073525673E+03  0.76386292980E+03  0.00000000000E+00 0.  1.
<mgrwt>
<rscale>  0 0.11679731E+04</rscale>
<asrwt>0</asrwt>
<pdfrwt beam="1">  1        1 0.12693796E+00 0.11679731E+04</pdfrwt>
<pdfrwt beam="2">  1       -1 0.63589796E-01 0.11679731E+04</pdfrwt>
<totfact> 0.52329986E+01</totfact>
</mgrwt>
</event>
<event>
 6    1  0.5026615E-004  0.1907846E+04  0.7818608E-02  0.8650961E-01
          2   -1    0    0  501    0  0.00000000000E+00  0.00000000000E+00  0.10519696707E+04  0.10519696707E+04  0.00000000000E+00 0.  1.
         -2   -1    0    0    0  501 -0.00000000000E+00 -0.00000000000E+00 -0.86501477945E+03  0.86501477945E+03  0.00000000000E+00 0. -1.
         23    2    1    2    0    0  0.78544346532E+03  0.52964901859E+03  0.18635544856E+03  0.96964613708E+03  0.89642388674E+02 0.  0.
         13    1    3    3    0    0  0.65982962977E+03  0.43435903958E+03  0.18776651775E+03  0.81197240148E+03  0.00000000000E+00 0.  1.
        -13    1    3    3    0    0  0.12561383555E+03  0.95289979015E+02 -0.14110691870E+01  0.15767373560E+03  0.00000000000E+00 0. -1.
         22    1    1    2    0    0 -0.78544346532E+03 -0.52964901859E+03  0.59944269883E+00  0.94733831308E+03  0.00000000000E+00 0. -1.
<mgrwt>
<rscale>  0 0.19078462E+04</rscale>
<asrwt>0</asrwt>
<pdfrwt beam="1">  1        2 0.16184149E+00 0.19078462E+04</pdfrwt>
<pdfrwt beam="2">  1       -2 0.13307920E+00 0.19078462E+04</pdfrwt>
<totfact> 0.89405014E+00</totfact>
</mgrwt>
</event>
<event>
 6    1  0.5026615E-004  0.4817439E+04  0.7818608E-02  0.7857303E-01
          2   -1    0    0  501    0  0.00000000000E+00  0.00000000000E+00  0.37714265607E+04  0.37714265607E+04  0.00000000000E+00 0.  1.
         -2   -1    0    0    0  501 -0.00000000000E+00 -0.00000000000E+00 -0.15383915556E+04  0.15383915556E+04  0.00000000000E+00 0. -1.
         23    2    1    2    0    0 -0.23619663232E+04  0.41126041023E+02  0.60329894933E+03  0.24398676160E+04  0.91695683290E+02 0.  0.
         13    1    3    3    0    0 -0.17731625529E+04 -0.84736045403E+01  0.45794138226E+03  0.18313622117E+04  0.00000000000E+00 0. -1.
        -13    1    3    3    0    0 -0.58880377030E+03  0.49599645563E+02  0.14535756707E+03  0.60850540430E+03  0.00000000000E+00 0.  1.
         22    1    1    2    0    0  0.23619663232E+04 -0.41126041023E+02  0.16297360557E+04  0.28699505003E+04  0.00000000000E+00 0. -1.
<mgrwt>
<rscale>  0 0.48174395E+04</rscale>
<asrwt>0</asrwt>
<pdfrwt beam="1">  1        2 0.58021947E+00 0.48174395E+04</pdfrwt>
<pdfrwt beam="2">  1       -2 0.23667562E+00 0.48174395E+04</pdfrwt>
<totfact> 0.29525773E-02</totfact>
</mgrwt>
</event>
<event>
 6    1  0.5026615E-004  0.7125957E+03  0.7818608E-02  0.9695931E-01
          2   -1    0    0  501    0  0.00000000000E+00  0.00000000000E+00  0.83532888057E+03  0.83532888057E+03  0.00000000000E+00 0.  1.
         -2   -1    0    0    0  501 -0.00000000000E+00 -0.00000000000E+00 -0.15197385264E+03  0.15197385264E+03  0.00000000000E+00 0. -1.
         23    2    1    2    0    0  0.16835481655E+03 -0.18711553116E+03  0.90269637550E+01  0.26752922411E+03  0.90193311404E+02 0.  0.
         13    1    3    3    0    0  0.92350955171E+02 -0.89565149879E+02 -0.39664575944E+02  0.13462501097E+03  0.00000000000E+00 0. -1.
        -13    1    3    3    0    0  0.76003861382E+02 -0.97550381279E+02  0.48691539699E+02  0.13290421314E+03  0.00000000000E+00 0.  1.
         22    1    1    2    0    0 -0.16835481655E+03  0.18711553116E+03  0.67432806417E+03  0.71977350909E+03  0.00000000000E+00 0. -1.
<mgrwt>
<rscale>  0 0.71259567E+03</rscale>
<asrwt>0</asrwt>
<pdfrwt beam="1">  1        2 0.12851213E+00 0.71259567E+03</pdfrwt>
<pdfrwt beam="2">  1       -2 0.23380593E-01 0.71259567E+03</pdfrwt>
<totfact> 0.52874953E+02</totfact>
</mgrwt>
</event>
<event>
 6    1  0.5026615E-004  0.1718489E+04  0.7818608E-02  0.8750889E-01
          2   -1    0    0  501    0  0.00000000000E+00  0.00000000000E+00  0.13174482521E+04  0.13174482521E+04  0.00000000000E+00 0.  1.
         -2   -1    0    0    0  501 -0.00000000000E+00 -0.00000000000E+00 -0.56040239598E+03  0.56040239598E+03  0.00000000000E+00 0. -1.
         23    2    1    2    0    0  0.58948913386E+03 -0.42254890855E+02 -0.29817331140E+03  0.66840019179E+03  0.92566613911E+02 0.  0.
         11    1    3    3    0    0  0.49925954771E+03 -0.53983934322E+02 -0.28216675662E+03  0.57601427039E+03  0.00000000000E+00 0.  1.
        -11    1    3    3    0    0  0.90229586150E+02  0.11729043467E+02 -0.16006554775E+02  0.92385921402E+02  0.00000000000E+00 0. -1.
         22    1    1    2    0    0 -0.58948913386E+03  0.42254890855E+02  0.10552191676E+04  0.12094504563E+04  0.00000000000E+00 0.  1.
<mgrwt>
<rscale>  0 0.17184891E+04</rscale>
<asrwt>0</asrwt>
<pdfrwt beam="1">  1        2 0.20268435E+00 0.17184891E+04</pdfrwt>
<pdfrwt beam="2">  1       -2 0.86215754E-01 0.17184891E+04</pdfrwt>
<totfact> 0.17900223E+01</totfact>
</mgrwt>
</event>
<event>
 6    1  0.5026615E-004  0.4845046E+04  0.7818608E-02  0.7852865E-01
         -2   -1    0    0    0  501 -0.00000000000E+00  0.00000000000E+00  0.14524553124E+04  0.14524553124E+04  0.00000000000E+00 0. -1.
          2   -1    0    0  501    0  0.00000000000E+00 -0.00000000000E+00 -0.40404809399E+04  0.40404809399E+04  0.00000000000E+00 0.  1.
         23    2    1    2    0    0  0.21858342571E+04  0.28529993281E+03 -0.24311854576E+04  0.32829891285E+04  0.89930178917E+02 0.  0.
         11    1    3    3    0    0  0.15106919282E+03  0.86477324728E+01 -0.13851016888E+03  0.20513837081E+03  0.00000000000E+00 0.  1.
        -11    1    3    3    0    0  0.20347650643E+04  0.27665220034E+03 -0.22926752888E+04  0.30778507577E+04  0.00000000000E+00 0. -1.
         22    1    1    2    0    0 -0.21858342571E+04 -0.28529993281E+03 -0.15684016978E+03  0.22099471238E+04  0.00000000000E+00 0. -1.
<mgrwt>
<rscale>  0 0.48450461E+04</rscale>
<asrwt>0</asrwt>
<pdfrwt beam="1">  1        2 0.62161245E+00 0.48450461E+04</pdfrwt>
<pdfrwt beam="2">  1       -2 0.22345466E+00 0.48450461E+04</pdfrwt>
<totfact> 0.21858167E-02</totfact>
</mgrwt>
</event>
<event>
 6    1  0.5026615E-004  0.1112287E+04  0.7818608E-02  0.9193298E-01
         -2   -1    0    0    0  501 -0.00000000000E+00  0.00000000000E+00  0.12561391133E+03  0.12561391133E+03  0.00000000000E+00 0. -1.
          2   -1    0    0  501    0  0.00000000000E+00 -0.00000000000E+00 -0.24622725244E+04  0.24622725244E+04  0.00000000000E+00 0.  1.
         23    2    1    2    0    0 -0.16868460809E+03 -0.23628437940E+03 -0.22695740248E+04  0.22899180700E+04  0.92052748896E+02 0.  0.
         13    1    3    3    0    0 -0.16158007890E+03 -0.15811744115E+03 -0.16837074101E+04  0.16988172032E+04  0.00000000000E+00 0.  1.
        -13    1    3    3    0    0 -0.71045291922E+01 -0.78166938255E+02 -0.58586661466E+03  0.59110086681E+03  0.00000000000E+00 0. -1.
         22    1    1    2    0    0  0.16868460809E+03  0.23628437940E+03 -0.67084588274E+02  0.29796836567E+03  0.00000000000E+00 0. -1.
<mgrwt>
<rscale>  0 0.11122872E+04</rscale>
<asrwt>0</asrwt>
<pdfrwt beam="1">  1        2 0.37881112E+00 0.11122872E+04</pdfrwt>
<pdfrwt beam="2">  1       -2 0.19325219E-01 0.11122872E+04</pdfrwt>
<totfact> 0.83100582E+01</totfact>
</mgrwt>
</event>
<event>
 6    1  0.5026615E-004  0.3070263E+04  0.7818608E-02  0.8223947E-01
          2   -1    0    0  501    0  0.00000000000E+00  0.00000000000E+00  0.22971003360E+04  0.22971003360E+04  0.00000000000E+00 0.  1.
         -2   -1    0    0    0  501 -0.00000000000E+00 -0.00000000000E+00 -0.10259145657E+04  0.10259145657E+04  0.00000000000E+00 0. -1.
         23    2    1    2    0    0 -0.50300123100E+03 -0.14485323343E+04  0.67628657081E+03  0.16782774699E+04  0.89417998317E+02 0.  0.
         11    1    3    3    0    0 -0.30462686551E+03 -0.85714952428E+03  0.35352726069E+03  0.97595305124E+03  0.00000000000E+00 0. -1.
        -11    1    3    3    0    0 -0.19837436549E+03 -0.59138281000E+03  0.32275931011E+03  0.70232441871E+03  0.00000000000E+00 0.  1.
         22    1    1    2    0    0  0.50300123100E+03  0.14485323343E+04  0.59489919944E+03  0.16447374317E+04  0.00000000000E+00 0. -1.
<mgrwt>
<rscale>  0 0.30702630E+04</rscale>
<asrwt>0</asrwt>
<pdfrwt beam="1">  1        2 0.35340005E+00 0.30702630E+04</pdfrwt>
<pdfrwt beam="2">  1       -2 0.15783301E+00 0.30702630E+04</pdfrwt>
<totfact> 0.10124080E+00</totfact>
</mgrwt>
</event>
<event>
 6    1  0.5026615E-004  0.9253932E+03  0.7818608E-02  0.9394384E-01
          1   -1    0    0  501    0  0.00000000000E+00  0.00000000000E+00  0.81147961579E+03  0.81147961579E+03  0.00000000000E+00 0.  1.
         -1   -1    0    0    0  501 -0.00000000000E+00 -0.00000000000E+00 -0.26382443246E+03  0.26382443246E+03  0.00000000000E+00 0. -1.
         23    2    1    2    0    0 -0.37895793369E+03  0.17998447719E+03  0.62034545351E+02  0.43356349976E+03  0.90141533023E+02 0.  0.
         13    1    3    3    0    0 -0.65178688681E+02  0.66004419985E+02  0.33025651600E+02  0.98465925982E+02  0.00000000000E+00 0.  1.
        -13    1    3    3    0    0 -0.31377924501E+03  0.11398005720E+03  0.29008893751E+02  0.33509757378E+03  0.00000000000E+00 0. -1.
         22    1    1    2    0    0  0.37895793369E+03 -0.17998447719E+03  0.48562063798E+03  0.64174054849E+03  0.00000000000E+00 0.  1.
<mgrwt>
<rscale>  0 0.92539321E+03</rscale>
<asrwt>0</asrwt>
<pdfrwt beam="1">  1        1 0.12484302E+00 0.92539321E+03</pdfrwt>
<pdfrwt beam="2">  1       -1 0.40588375E-01 0.92539321E+03</pdfrwt>
<totfact> 0.12884212E+02</totfact>
</mgrwt>
</event>
<event>
 6    1  0.5026615E-004  0.2635727E+04  0.7818608E-02  0.8356166E-01
          2   -1    0    0  501    0  0.00000000000E+00  0.00000000000E+00  0.25408673059E+04  0.25408673059E+04  0.00000000000E+00 0.  1.
         -2   -1    0    0    0  501 -0.00000000000E+00 -0.00000000000E+00 -0.68353206699E+03  0.68353206699E+03  0.00000000000E+00 0. -1.
         23    2    1    2    0    0  0.96562721427E+03 -0.59254892433E+03  0.17494500111E+04  0.20863355051E+04  0.93114735313E+02 0.  0.
         13    1    3    3    0    0  0.62343402250E+03 -0.39016544360E+03  0.10531634303E+04  0.12845436017E+04  0.00000000000E+00 0.  1.
        -13    1    3    3    0    0  0.34219319177E+03 -0.20238348073E+03  0.69628658078E+03  0.80179190339E+03  0.00000000000E+00 0. -1.
         22    1    1    2    0    0 -0.96562721427E+03  0.59254892433E+03  0.10788522779E+03  0.11380638677E+04  0.00000000000E+00 0. -1.
<mgrwt>
<rscale>  0 0.26357271E+04</rscale>
<asrwt>0</asrwt>
<pdfrwt beam="1">  1        2 0.39090266E+00 0.26357271E+04</pdfrwt>
<pdfrwt beam="2">  1       -2 0.10515878E+00 0.26357271E+04</pdfrwt>
<totfact> 0.21283914E+00</totfact>
</mgrwt>
</event>
<event>
 6    1  0.5026615E-004  0.1730975E+04  0.7818608E-02  0.8743893E-01
          2   -1    0    0  501    0  0.00000000000E+00  0.00000000000E+00  0.18683390882E+04  0.18683390882E+04  0.00000000000E+00 0.  1.
         -2   -1    0    0    0  501 -0.00000000000E+00 -0.00000000000E+00 -0.40092765294E+03  0.40092765294E+03  0.00000000000E+00 0. -1.
         23    2    1    2    0    0 -0.70293774439E+03  0.14470214820E+03  0.13643869363E+04  0.15442327891E+04  0.89682834725E+02 0.  0.
         13    1    3    3    0    0 -0.30136128869E+03  0.10749254068E+03  0.60109234536E+03  0.68094440322E+03  0.00000000000E+00 0.  1.
        -13    1    3    3    0    0 -0.40157645570E+03  0.37209607519E+02  0.76329459091E+03  0.86328838587E+03  0.00000000000E+00 0. -1.
         22    1    1    2    0    0  0.70293774439E+03 -0.14470214820E+03  0.10302449895E+03  0.72503395201E+03  0.00000000000E+00 0. -1.
<mgrwt>
<rscale>  0 0.17309752E+04</rscale>
<asrwt>0</asrwt>
<pdfrwt beam="1">  1        2 0.28743678E+00 0.17309752E+04</pdfrwt>
<pdfrwt beam="2">  1       -2 0.61681179E-01 0.17309752E+04</pdfrwt>
<totfact> 0.18330546E+01</totfact>
</mgrwt>
</event>
<event>
 6    1  0.5026615E-004  0.2681927E+03  0.7818608E-02  0.1102318E+00
         -2   -1    0    0    0  501 -0.00000000000E+00  0.00000000000E+00  0.76811371294E+01  0.76811371294E+01  0.00000000000E+00 0.  1.
          2   -1    0    0  501    0  0.00000000000E+00 -0.00000000000E+00 -0.23410376684E+04  0.23410376684E+04  0.00000000000E+00 0. -1.
         23    2    1    2    0    0 -0.81775892543E+02  0.73715292629E+02 -0.16853434282E+04  0.16914196174E+04  0.91633018975E+02 0.  0.
         13    1    3    3    0    0 -0.76112902867E+01 -0.18778589106E+02 -0.13059585263E+03  0.13215840448E+03  0.00000000000E+00 0. -1.
        -13    1    3    3    0    0 -0.74164602256E+02  0.92493881735E+02 -0.15547475756E+04  0.15592612130E+04  0.00000000000E+00 0.  1.
         22    1    1    2    0    0  0.81775892543E+02 -0.73715292629E+02 -0.64801310300E+03  0.65729918806E+03  0.00000000000E+00 0.  1.
<mgrwt>
<rscale>  0 0.26819270E+03</rscale>
<asrwt>0</asrwt>
<pdfrwt beam="1">  1        2 0.36015966E+00 0.26819270E+03</pdfrwt>
<pdfrwt beam="2">  1       -2 0.11817133E-02 0.26819270E+03</pdfrwt>
<totfact> 0.81800086E+03</totfact>
</mgrwt>
</event>
<event>
 6    1  0.5026615E-004  0.5788142E+04  0.7818608E-02  0.7717239E-01
          2   -1    0    0  501    0  0.00000000000E+00  0.00000000000E+00  0.41115226127E+04  0.41115226127E+04  0.00000000000E+00 0. -1.
         -2   -1    0    0    0  501 -0.00000000000E+00 -0.00000000000E+00 -0.20371158875E+04  0.20371158875E+04  0.00000000000E+00 0.  1.
         23    2    1    2    0    0  0.19390474690E+04 -0.17802627275E+04  0.23132565228E+04  0.35054794638E+04  0.89387162031E+02 0.  0.
         11    1    3    3    0    0  0.10730898692E+04 -0.99713609075E+03  0.12291777469E+04  0.19122448024E+04  0.00000000000E+00 0.  1.
        -11    1    3    3    0    0  0.86595759975E+03 -0.78312663674E+03  0.10840787759E+04  0.15932346613E+04  0.00000000000E+00 0. -1.
         22    1    1    2    0    0 -0.19390474690E+04  0.17802627275E+04 -0.23884979759E+03  0.26431590364E+04  0.00000000000E+00 0. -1.
<mgrwt>
<rscale>  0 0.57881424E+04</rscale>
<asrwt>0</asrwt>
<pdfrwt beam="1">  1        2 0.63254194E+00 0.57881424E+04</pdfrwt>
<pdfrwt beam="2">  1       -2 0.31340245E+00 0.57881424E+04</pdfrwt>
<totfact> 0.49478113E-03</totfact>
</mgrwt>
</event>
<event>
 6    1  0.5026615E-004  0.3827969E+04  0.7818608E-02  0.8040179E-01
         -2   -1    0    0    0  501 -0.00000000000E+00  0.00000000000E+00  0.13695854329E+04  0.13695854329E+04  0.00000000000E+00 0. -1.
          2   -1    0    0  501    0  0.00000000000E+00 -0.00000000000E+00 -0.26747780206E+04  0.26747780206E+04  0.00000000000E+00 0.  1.
         23    2    1    2    0    0  0.28500677906E+03 -0.17387096828E+04 -0.14399876670E+04  0.22773009366E+04  0.90525409044E+02 0.  0.
         11    1    3    3    0    0  0.28079655384E+03 -0.15579263596E+04 -0.12778424372E+04  0.20344194604E+04  0.00000000000E+00 0.  1.
        -11    1    3    3    0    0  0.42102252146E+01 -0.18078332316E+03 -0.16214522973E+03  0.24288147615E+03  0.00000000000E+00 0. -1.
         22    1    1    2    0    0 -0.28500677906E+03  0.17387096828E+04  0.13479507921E+03  0.17670625169E+04  0.00000000000E+00 0. -1.
<mgrwt>
<rscale>  0 0.38279692E+04</rscale>
<asrwt>0</asrwt>
<pdfrwt beam="1">  1        2 0.41150431E+00 0.38279692E+04</pdfrwt>
<pdfrwt beam="2">  1       -2 0.21070545E+00 0.38279692E+04</pdfrwt>
<totfact> 0.24914801E-01</totfact>
</mgrwt>
</event>
<event>
 6    1  0.5026615E-004  0.1821899E+04  0.7818608E-02  0.8694740E-01
          2   -1    0    0  501    0  0.00000000000E+00  0.00000000000E+00  0.14892525316E+04  0.14892525316E+04  0.00000000000E+00 0. -1.
         -2   -1    0    0    0  501 -0.00000000000E+00 -0.00000000000E+00 -0.55721148519E+03  0.55721148519E+03  0.00000000000E+00 0.  1.
         23    2    1    2    0    0 -0.44855706778E+03 -0.25098549675E+03 -0.37371567124E+03  0.64318294433E+03  0.99114753262E+02 0.  0.
         11    1    3    3    0    0 -0.21781670592E+03 -0.13937056571E+03 -0.12972617598E+03  0.28930460193E+03  0.00000000000E+00 0.  1.
        -11    1    3    3    0    0 -0.23074036186E+03 -0.11161493104E+03 -0.24398949526E+03  0.35387834240E+03  0.00000000000E+00 0. -1.
         22    1    1    2    0    0  0.44855706778E+03  0.25098549675E+03  0.13057567177E+04  0.14032810725E+04  0.00000000000E+00 0. -1.
<mgrwt>
<rscale>  0 0.18218986E+04</rscale>
<asrwt>0</asrwt>
<pdfrwt beam="1">  1        2 0.22911577E+00 0.18218986E+04</pdfrwt>
<pdfrwt beam="2">  1       -2 0.85724844E-01 0.18218986E+04</pdfrwt>
<totfact> 0.14337293E+01</totfact>
</mgrwt>
</event>
<event>
 6    1  0.5026615E-004  0.2578379E+04  0.7818608E-02  0.8375583E-01
          2   -1    0    0  501    0  0.00000000000E+00  0.00000000000E+00  0.23131925436E+04  0.23131925436E+04  0.00000000000E+00 0.  1.
         -2   -1    0    0    0  501 -0.00000000000E+00 -0.00000000000E+00 -0.71849139524E+03  0.71849139524E+03  0.00000000000E+00 0. -1.
         23    2    1    2    0    0  0.11026716353E+04  0.66251151655E+03  0.86329022256E+03  0.15518974045E+04  0.91155366407E+02 0.  0.
         11    1    3    3    0    0  0.46381045993E+03  0.31113987844E+03  0.33180984945E+03  0.64963523833E+03  0.00000000000E+00 0. -1.
        -11    1    3    3    0    0  0.63886117537E+03  0.35137163811E+03  0.53148037311E+03  0.90226216615E+03  0.00000000000E+00 0.  1.
         22    1    1    2    0    0 -0.11026716353E+04 -0.66251151655E+03  0.73141092577E+03  0.14797865343E+04  0.00000000000E+00 0. -1.
<mgrwt>
<rscale>  0 0.25783785E+04</rscale>
<asrwt>0</asrwt>
<pdfrwt beam="1">  1        2 0.35587577E+00 0.25783785E+04</pdfrwt>
<pdfrwt beam="2">  1       -2 0.11053714E+00 0.25783785E+04</pdfrwt>
<totfact> 0.25634735E+00</totfact>
</mgrwt>
</event>
<event>
 6    1  0.5026615E-004  0.2963535E+04  0.7818608E-02  0.8254221E-01
          2   -1    0    0  501    0  0.00000000000E+00  0.00000000000E+00  0.19200623195E+04  0.19200623195E+04  0.00000000000E+00 0.  1.
         -2   -1    0    0    0  501 -0.00000000000E+00 -0.00000000000E+00 -0.11435229910E+04  0.11435229910E+04  0.00000000000E+00 0. -1.
         23    2    1    2    0    0  0.11863785814E+04  0.36623406487E+02  0.13031830365E+04  0.17650519042E+04  0.91031783663E+02 0.  0.
         11    1    3    3    0    0  0.73798218907E+03 -0.19027316123E+02  0.82952319954E+03  0.11104451759E+04  0.00000000000E+00 0.  1.
        -11    1    3    3    0    0  0.44839639229E+03  0.55650722611E+02  0.47365983697E+03  0.65460672827E+03  0.00000000000E+00 0. -1.
         22    1    1    2    0    0 -0.11863785814E+04 -0.36623406487E+02 -0.52664370796E+03  0.12985334063E+04  0.00000000000E+00 0. -1.
<mgrwt>
<rscale>  0 0.29635353E+04</rscale>
<asrwt>0</asrwt>
<pdfrwt beam="1">  1        2 0.29539420E+00 0.29635353E+04</pdfrwt>
<pdfrwt beam="2">  1       -2 0.17592661E+00 0.29635353E+04</pdfrwt>
<totfact> 0.12301027E+00</totfact>
</mgrwt>
</event>
<event>
 6    1  0.5026615E-004  0.4429799E+04  0.7818608E-02  0.7923043E-01
         -2   -1    0    0    0  501 -0.00000000000E+00  0.00000000000E+00  0.32654511654E+04  0.32654511654E+04  0.00000000000E+00 0. -1.
          2   -1    0    0  501    0  0.00000000000E+00 -0.00000000000E+00 -0.15023285070E+04  0.15023285070E+04  0.00000000000E+00 0.  1.
         23    2    1    2    0    0  0.86806175840E+03  0.22108214746E+03  0.30610897580E+04  0.31907168570E+04  0.89414888956E+02 0.  0.
         13    1    3    3    0    0  0.81239639923E+03  0.22557830978E+03  0.28265601474E+04  0.29496297649E+04  0.00000000000E+00 0.  1.
        -13    1    3    3    0    0  0.55665359168E+02 -0.44961623209E+01  0.23452961064E+03  0.24108709205E+03  0.00000000000E+00 0. -1.
         22    1    1    2    0    0 -0.86806175840E+03 -0.22108214746E+03 -0.12979670996E+04  0.15770628154E+04  0.00000000000E+00 0.  1.
<mgrwt>
<rscale>  0 0.44297993E+04</rscale>
<asrwt>0</asrwt>
<pdfrwt beam="1">  1        2 0.23112746E+00 0.44297993E+04</pdfrwt>
<pdfrwt beam="2">  1       -2 0.50237710E+00 0.44297993E+04</pdfrwt>
<totfact> 0.15434923E-02</totfact>
</mgrwt>
</event>
<event>
 6    1  0.5026615E-004  0.2600979E+04  0.7818608E-02  0.8367869E-01
          2   -1    0    0  501    0  0.00000000000E+00  0.00000000000E+00  0.17671745631E+04  0.17671745631E+04  0.00000000000E+00 0.  1.
         -2   -1    0    0    0  501 -0.00000000000E+00 -0.00000000000E+00 -0.95704937536E+03  0.95704937536E+03  0.00000000000E+00 0. -1.
         23    2    1    2    0    0 -0.34687116636E+01 -0.12546103280E+04  0.52847892044E+02  0.12587792927E+04  0.87597379624E+02 0.  0.
         11    1    3    3    0    0  0.40498935984E+02 -0.65750991208E+03  0.38796130944E+02  0.65989740723E+03  0.00000000000E+00 0. -1.
        -11    1    3    3    0    0 -0.43967647647E+02 -0.59710041595E+03  0.14051761100E+02  0.59888188548E+03  0.00000000000E+00 0.  1.
         22    1    1    2    0    0  0.34687116636E+01  0.12546103280E+04  0.75727729571E+03  0.14654446457E+04  0.00000000000E+00 0.  1.
<mgrwt>
<rscale>  0 0.26009793E+04</rscale>
<asrwt>0</asrwt>
<pdfrwt beam="1">  1        2 0.27187301E+00 0.26009793E+04</pdfrwt>
<pdfrwt beam="2">  1       -2 0.14723837E+00 0.26009793E+04</pdfrwt>
<totfact> 0.25053086E+00</totfact>
</mgrwt>
</event>
<event>
 6    1  0.5026615E-004  0.2669041E+04  0.7818608E-02  0.8345120E-01
          2   -1    0    0  501    0  0.00000000000E+00  0.00000000000E+00  0.30565334906E+04  0.30565334906E+04  0.00000000000E+00 0.  1.
         -2   -1    0    0    0  501 -0.00000000000E+00 -0.00000000000E+00 -0.58266836218E+03  0.58266836218E+03  0.00000000000E+00 0. -1.
         23    2    1    2    0    0  0.13116807916E+03 -0.90522552582E+03 -0.83560209824E+02  0.92312698667E+03  0.92427308028E+02 0.  0.
         11    1    3    3    0    0  0.12714303907E+03 -0.66037679396E+03 -0.87775026888E+02  0.67820890419E+03  0.00000000000E+00 0.  1.
        -11    1    3    3    0    0  0.40250400920E+01 -0.24484873186E+03  0.42148170641E+01  0.24491808248E+03  0.00000000000E+00 0. -1.
         22    1    1    2    0    0 -0.13116807916E+03  0.90522552582E+03  0.25574253382E+04  0.27160748661E+04  0.00000000000E+00 0.  1.
<mgrwt>
<rscale>  0 0.26690413E+04</rscale>
<asrwt>0</asrwt>
<pdfrwt beam="1">  1        2 0.47023591E+00 0.26690413E+04</pdfrwt>
<pdfrwt beam="2">  1       -2 0.89641288E-01 0.26690413E+04</pdfrwt>
<totfact> 0.15043291E+00</totfact>
</mgrwt>
</event>
<event>
 6    1  0.5026615E-004  0.1497806E+04  0.7818608E-02  0.8885913E-01
         -2   -1    0    0    0  501 -0.00000000000E+00  0.00000000000E+00  0.20000305058E+03  0.20000305058E+03  0.00000000000E+00 0.  1.
          2   -1    0    0  501    0  0.00000000000E+00 -0.00000000000E+00 -0.28042353492E+04  0.28042353492E+04  0.00000000000E+00 0. -1.
         23    2    1    2    0    0  0.42302581761E+03  0.40878930594E+03 -0.22277552669E+04  0.23058155376E+04  0.88499859356E+02 0.  0.
         11    1    3    3    0    0  0.29619551511E+03  0.27837371540E+03 -0.13724523941E+04  0.14313802020E+04  0.00000000000E+00 0. -1.
        -11    1    3    3    0    0  0.12683030249E+03  0.13041559054E+03 -0.85530287279E+03  0.87443533556E+03  0.00000000000E+00 0.  1.
         22    1    1    2    0    0 -0.42302581761E+03 -0.40878930594E+03 -0.37647703168E+03  0.69842286216E+03  0.00000000000E+00 0.  1.
<mgrwt>
<rscale>  0 0.14978059E+04</rscale>
<asrwt>0</asrwt>
<pdfrwt beam="1">  1        2 0.43142079E+00 0.14978059E+04</pdfrwt>
<pdfrwt beam="2">  1       -2 0.30769703E-01 0.14978059E+04</pdfrwt>
<totfact> 0.21840751E+01</totfact>
</mgrwt>
</event>
<event>
 6    1  0.5026615E-004  0.2474399E+04  0.7818608E-02  0.8412163E-01
          2   -1    0    0  501    0  0.00000000000E+00  0.00000000000E+00  0.26156682381E+04  0.26156682381E+04  0.00000000000E+00 0.  1.
         -2   -1    0    0    0  501 -0.00000000000E+00 -0.00000000000E+00 -0.58518969027E+03  0.58518969027E+03  0.00000000000E+00 0. -1.
         23    2    1    2    0    0  0.41924793334E+03 -0.52210747931E+03  0.23598211002E+04  0.24546464528E+04  0.90379941608E+02 0.  0.
         13    1    3    3    0    0  0.26593519445E+03 -0.37614246446E+03  0.17256909931E+04  0.17861170412E+04  0.00000000000E+00 0. -1.
        -13    1    3    3    0    0  0.15331273889E+03 -0.14596501484E+03  0.63413010704E+03  0.66852941156E+03  0.00000000000E+00 0.  1.
         22    1    1    2    0    0 -0.41924793334E+03  0.52210747931E+03 -0.32934255231E+03  0.74621147560E+03  0.00000000000E+00 0. -1.
<mgrwt>
<rscale>  0 0.24743986E+04</rscale>
<asrwt>0</asrwt>
<pdfrwt beam="1">  1        2 0.40241049E+00 0.24743986E+04</pdfrwt>
<pdfrwt beam="2">  1       -2 0.90029185E-01 0.24743986E+04</pdfrwt>
<totfact> 0.28116037E+00</totfact>
</mgrwt>
</event>
<event>
 6    1  0.5026615E-004  0.1034508E+04  0.7818608E-02  0.9271487E-01
         -1   -1    0    0    0  501 -0.00000000000E+00  0.00000000000E+00  0.59142076373E+03  0.59142076373E+03  0.00000000000E+00 0. -1.
          1   -1    0    0  501    0  0.00000000000E+00 -0.00000000000E+00 -0.45238779472E+03  0.45238779472E+03  0.00000000000E+00 0.  1.
         23    2    1    2    0    0  0.34464861459E+03 -0.96566922846E+02 -0.30155304370E+03  0.47616089244E+03  0.87676218015E+02 0.  0.
         13    1    3    3    0    0  0.13125544929E+03 -0.81263242769E+02 -0.11892821055E+03  0.19487336108E+03  0.00000000000E+00 0. -1.
        -13    1    3    3    0    0  0.21339316530E+03 -0.15303680078E+02 -0.18262483314E+03  0.28128753136E+03  0.00000000000E+00 0.  1.
         22    1    1    2    0    0 -0.34464861459E+03  0.96566922846E+02  0.44058601271E+03  0.56764766601E+03  0.00000000000E+00 0. -1.
<mgrwt>
<rscale>  0 0.10345077E+04</rscale>
<asrwt>0</asrwt>
<pdfrwt beam="1">  1        1 0.69598122E-01 0.10345077E+04</pdfrwt>
<pdfrwt beam="2">  1       -1 0.90987810E-01 0.10345077E+04</pdfrwt>
<totfact> 0.60014429E+01</totfact>
</mgrwt>
</event>
<event>
 6    1  0.5026615E-004  0.1486079E+04  0.7818608E-02  0.8893763E-01
         -2   -1    0    0    0  501 -0.00000000000E+00  0.00000000000E+00  0.15859627844E+03  0.15859627844E+03  0.00000000000E+00 0. -1.
          2   -1    0    0  501    0  0.00000000000E+00 -0.00000000000E+00 -0.34812156107E+04  0.34812156107E+04  0.00000000000E+00 0.  1.
         23    2    1    2    0    0 -0.34080827698E+02 -0.60781441215E+03 -0.63639229811E+03  0.88546704118E+03  0.91961195647E+02 0.  0.
         11    1    3    3    0    0 -0.56297004623E+02 -0.37897642701E+03 -0.43661574702E+03  0.58088363336E+03  0.00000000000E+00 0. -1.
        -11    1    3    3    0    0  0.22216176926E+02 -0.22883798514E+03 -0.19977655109E+03  0.30458340783E+03  0.00000000000E+00 0.  1.
         22    1    1    2    0    0  0.34080827698E+02  0.60781441215E+03 -0.26862270341E+04  0.27543448479E+04  0.00000000000E+00 0.  1.
<mgrwt>
<rscale>  0 0.14860792E+04</rscale>
<asrwt>0</asrwt>
<pdfrwt beam="1">  1        2 0.53557158E+00 0.14860792E+04</pdfrwt>
<pdfrwt beam="2">  1       -2 0.24399430E-01 0.14860792E+04</pdfrwt>
<totfact> 0.12325521E+01</totfact>
</mgrwt>
</event>
<event>
 6    1  0.5026615E-004  0.1182027E+04  0.7818608E-02  0.9128735E-01
          2   -1    0    0  501    0  0.00000000000E+00  0.00000000000E+00  0.23782034635E+04  0.23782034635E+04  0.00000000000E+00 0.  1.
         -2   -1    0    0    0  501 -0.00000000000E+00 -0.00000000000E+00 -0.14687436064E+03  0.14687436064E+03  0.00000000000E+00 0. -1.
         23    2    1    2    0    0  0.55239820002E+03  0.14532612485E+03  0.83935143849E+03  0.10204631652E+04  0.10281429954E+03 0.  0.
         11    1    3    3    0    0  0.28155267179E+03  0.96123492337E+02  0.35337070871E+03  0.46193342653E+03  0.00000000000E+00 0.  1.
        -11    1    3    3    0    0  0.27084552822E+03  0.49202632516E+02  0.48598072978E+03  0.55852973862E+03  0.00000000000E+00 0. -1.
         22    1    1    2    0    0 -0.55239820002E+03 -0.14532612485E+03  0.13919776644E+04  0.15046146590E+04  0.00000000000E+00 0.  1.
<mgrwt>
<rscale>  0 0.11820273E+04</rscale>
<asrwt>0</asrwt>
<pdfrwt beam="1">  1        2 0.36587743E+00 0.11820273E+04</pdfrwt>
<pdfrwt beam="2">  1       -2 0.22596057E-01 0.11820273E+04</pdfrwt>
<totfact> 0.69937112E+01</totfact>
</mgrwt>
</event>
<event>
 6    1  0.5989438E-004  0.2194987E+04  0.7818608E-02  0.8520517E-01
          2   -1    0    0  501    0  0.00000000000E+00  0.00000000000E+00  0.13874421080E+04  0.13874421080E+04  0.00000000000E+00 0.  1.
         -2   -1    0    0    0  501 -0.00000000000E+00 -0.00000000000E+00 -0.86813883033E+03  0.86813883033E+03  0.00000000000E+00 0. -1.
         23    2    1    2    0    0 -0.58031105711E+01 -0.67147882417E+03  0.11503273915E+04  0.13341098755E+04  0.75356253585E+02 0.  0.
         13    1    3    3    0    0 -0.25176132948E+02 -0.33206807059E+03  0.50932973175E+03  0.60853908406E+03  0.00000000000E+00 0. -1.
        -13    1    3    3    0    0  0.19373022377E+02 -0.33941075358E+03  0.64099765974E+03  0.72557079147E+03  0.00000000000E+00 0.  1.
         22    1    1    2    0    0  0.58031105711E+01  0.67147882417E+03 -0.63102411380E+03  0.92147106282E+03  0.00000000000E+00 0. -1.
<mgrwt>
<rscale>  0 0.21949874E+04</rscale>
<asrwt>0</asrwt>
<pdfrwt beam="1">  1        2 0.21345263E+00 0.21949874E+04</pdfrwt>
<pdfrwt beam="2">  1       -2 0.13355982E+00 0.21949874E+04</pdfrwt>
<totfact> 0.54559971E+00</totfact>
</mgrwt>
</event>
<event>
 6    1  0.9592646E-004  0.4077688E+04  0.7818608E-02  0.7989055E-01
         -2   -1    0    0    0  501 -0.00000000000E+00  0.00000000000E+00  0.12611515648E+04  0.12611515648E+04  0.00000000000E+00 0. -1.
          2   -1    0    0  501    0  0.00000000000E+00 -0.00000000000E+00 -0.32961029290E+04  0.32961029290E+04  0.00000000000E+00 0.  1.
         23    2    1    2    0    0  0.18395657635E+04 -0.85614707416E+03 -0.80627977228E+03  0.21852039270E+04  0.89661143268E+02 0.  0.
         13    1    3    3    0    0  0.11003624599E+04 -0.47383599401E+03 -0.44645954462E+03  0.12785320557E+04  0.00000000000E+00 0.  1.
        -13    1    3    3    0    0  0.73920330352E+03 -0.38231108015E+03 -0.35982022766E+03  0.90667187128E+03  0.00000000000E+00 0. -1.
         22    1    1    2    0    0 -0.18395657635E+04  0.85614707416E+03 -0.12286715919E+04  0.23720505668E+04  0.00000000000E+00 0. -1.
<mgrwt>
<rscale>  0 0.40776883E+04</rscale>
<asrwt>0</asrwt>
<pdfrwt beam="1">  1        2 0.50709275E+00 0.40776883E+04</pdfrwt>
<pdfrwt beam="2">  1       -2 0.19402332E+00 0.40776883E+04</pdfrwt>
<totfact> 0.12781807E-01</totfact>
</mgrwt>
</event>
<event>
 6    1  0.5026615E-004  0.1148751E+04  0.7818608E-02  0.9158936E-01
          2   -1    0    0  501    0  0.00000000000E+00  0.00000000000E+00  0.48480758451E+03  0.48480758451E+03  0.00000000000E+00 0. -1.
         -2   -1    0    0    0  501 -0.00000000000E+00 -0.00000000000E+00 -0.68049158441E+03  0.68049158441E+03  0.00000000000E+00 0.  1.
         23    2    1    2    0    0 -0.56928476507E+03 -0.33179396644E+01 -0.70193348338E+02  0.58233771557E+03  0.10046868343E+03 0.  0.
         11    1    3    3    0    0 -0.26157047446E+03  0.66473324465E+01  0.17432828812E+02  0.26223501608E+03  0.00000000000E+00 0. -1.
        -11    1    3    3    0    0 -0.30771429062E+03 -0.99652721109E+01 -0.87626177149E+02  0.32010269949E+03  0.00000000000E+00 0.  1.
         22    1    1    2    0    0  0.56928476507E+03  0.33179396644E+01 -0.12549065155E+03  0.58296145335E+03  0.00000000000E+00 0.  1.
<mgrwt>
<rscale>  0 0.11487515E+04</rscale>
<asrwt>0</asrwt>
<pdfrwt beam="1">  1        2 0.74585783E-01 0.11487515E+04</pdfrwt>
<pdfrwt beam="2">  1       -2 0.10469101E+00 0.11487515E+04</pdfrwt>
<totfact> 0.46782397E+01</totfact>
</mgrwt>
</event>
<event>
 6    1  0.5026615E-004  0.8448940E+03  0.7818608E-02  0.9497216E-01
         -2   -1    0    0    0  501 -0.00000000000E+00  0.00000000000E+00  0.10114521177E+03  0.10114521177E+03  0.00000000000E+00 0.  1.
          2   -1    0    0  501    0  0.00000000000E+00 -0.00000000000E+00 -0.17644084433E+04  0.17644084433E+04  0.00000000000E+00 0. -1.
         23    2    1    2    0    0  0.81506689482E+02  0.23263942129E+03 -0.15853603917E+04  0.16070322958E+04  0.91764847651E+02 0.  0.
         13    1    3    3    0    0  0.46882149027E+02  0.35009547491E+02 -0.25498323936E+03  0.26161050566E+03  0.00000000000E+00 0. -1.
        -13    1    3    3    0    0  0.34624540455E+02  0.19762987380E+03 -0.13303771524E+04  0.13454217901E+04  0.00000000000E+00 0.  1.
         22    1    1    2    0    0 -0.81506689482E+02 -0.23263942129E+03 -0.77902839829E+02  0.25852135931E+03  0.00000000000E+00 0.  1.
<mgrwt>
<rscale>  0 0.84489399E+03</rscale>
<asrwt>0</asrwt>
<pdfrwt beam="1">  1        2 0.27144742E+00 0.84489399E+03</pdfrwt>
<pdfrwt beam="2">  1       -2 0.15560804E-01 0.84489399E+03</pdfrwt>
<totfact> 0.30068843E+02</totfact>
</mgrwt>
</event>
<event>
 6    1  0.5026615E-004  0.3609908E+04  0.7818608E-02  0.8088226E-01
         -2   -1    0    0    0  501 -0.00000000000E+00  0.00000000000E+00  0.90365897466E+03  0.90365897466E+03  0.00000000000E+00 0. -1.
          2   -1    0    0  501    0  0.00000000000E+00 -0.00000000000E+00 -0.36051858131E+04  0.36051858131E+04  0.00000000000E+00 0.  1.
         23    2    1    2    0    0 -0.49677011643E+03 -0.11386141727E+04  0.28189558105E+03  0.12771220094E+04  0.91393246982E+02 0.  0.
         13    1    3    3    0    0 -0.12081574720E+03 -0.37838476525E+03  0.76701077856E+02  0.40454237193E+03  0.00000000000E+00 0.  1.
        -13    1    3    3    0    0 -0.37595436923E+03 -0.76022940743E+03  0.20519450320E+03  0.87257963751E+03  0.00000000000E+00 0. -1.
         22    1    1    2    0    0  0.49677011643E+03  0.11386141727E+04 -0.29834224195E+04  0.32317227783E+04  0.00000000000E+00 0.  1.
<mgrwt>
<rscale>  0 0.36099078E+04</rscale>
<asrwt>0</asrwt>
<pdfrwt beam="1">  1        2 0.55464397E+00 0.36099078E+04</pdfrwt>
<pdfrwt beam="2">  1       -2 0.13902446E+00 0.36099078E+04</pdfrwt>
<totfact> 0.20348607E-01</totfact>
</mgrwt>
</event>
<event>
 6    1  0.5026615E-004  0.9804823E+03  0.7818608E-02  0.9330214E-01
          2   -1    0    0  501    0  0.00000000000E+00  0.00000000000E+00  0.87552431922E+03  0.87552431922E+03  0.00000000000E+00 0.  1.
         -2   -1    0    0    0  501 -0.00000000000E+00 -0.00000000000E+00 -0.27450567725E+03  0.27450567725E+03  0.00000000000E+00 0. -1.
         23    2    1    2    0    0 -0.32808362823E+03  0.35819721785E+03  0.29312295141E+03  0.57492664031E+03  0.93142166091E+02 0.  0.
         13    1    3    3    0    0 -0.37289531264E+02  0.40094316842E+02  0.19307212369E+01  0.54788603462E+02  0.00000000000E+00 0. -1.
        -13    1    3    3    0    0 -0.29079409697E+03  0.31810290101E+03  0.29119223017E+03  0.52013803685E+03  0.00000000000E+00 0.  1.
         22    1    1    2    0    0  0.32808362823E+03 -0.35819721785E+03  0.30789569057E+03  0.57510335616E+03  0.00000000000E+00 0. -1.
<mgrwt>
<rscale>  0 0.98048232E+03</rscale>
<asrwt>0</asrwt>
<pdfrwt beam="1">  1        2 0.13469605E+00 0.98048232E+03</pdfrwt>
<pdfrwt beam="2">  1       -2 0.42231643E-01 0.98048232E+03</pdfrwt>
<totfact> 0.16173287E+02</totfact>
</mgrwt>
</event>
<event>
 6    1  0.5026615E-004  0.5830863E+03  0.7818608E-02  0.9941131E-01
          2   -1    0    0  501    0  0.00000000000E+00  0.00000000000E+00  0.89569773860E+03  0.89569773860E+03  0.00000000000E+00 0.  1.
         -2   -1    0    0    0  501 -0.00000000000E+00 -0.00000000000E+00 -0.94895193037E+02  0.94895193037E+02  0.00000000000E+00 0. -1.
         23    2    1    2    0    0 -0.14455365299E+03  0.16819382720E+03  0.10852248627E+03  0.26365648146E+03  0.92480744416E+02 0.  0.
         11    1    3    3    0    0 -0.33414484892E+00  0.59647528218E+02  0.30795605377E+02  0.67129044279E+02  0.00000000000E+00 0. -1.
        -11    1    3    3    0    0 -0.14421950814E+03  0.10854629899E+03  0.77726880894E+02  0.19652743718E+03  0.00000000000E+00 0.  1.
         22    1    1    2    0    0  0.14455365299E+03 -0.16819382720E+03  0.69228005929E+03  0.72693645017E+03  0.00000000000E+00 0.  1.
<mgrwt>
<rscale>  0 0.58308631E+03</rscale>
<asrwt>0</asrwt>
<pdfrwt beam="1">  1        2 0.13779965E+00 0.58308631E+03</pdfrwt>
<pdfrwt beam="2">  1       -2 0.14599261E-01 0.58308631E+03</pdfrwt>
<totfact> 0.10895203E+03</totfact>
</mgrwt>
</event>
<event>
 6    1  0.5026615E-004  0.3484781E+04  0.7818608E-02  0.8117406E-01
         -2   -1    0    0    0  501 -0.00000000000E+00  0.00000000000E+00  0.11481419120E+04  0.11481419120E+04  0.00000000000E+00 0. -1.
          2   -1    0    0  501    0  0.00000000000E+00 -0.00000000000E+00 -0.26442069555E+04  0.26442069555E+04  0.00000000000E+00 0.  1.
         23    2    1    2    0    0 -0.14293054716E+04 -0.98903499839E+03 -0.63401795088E+03  0.18521866193E+04  0.86672667717E+02 0.  0.
         11    1    3    3    0    0 -0.12321938258E+03 -0.64840907518E+02 -0.68605093871E+02  0.15522248045E+03  0.00000000000E+00 0.  1.
        -11    1    3    3    0    0 -0.13060860891E+04 -0.92419409087E+03 -0.56541285701E+03  0.16969641388E+04  0.00000000000E+00 0. -1.
         22    1    1    2    0    0  0.14293054716E+04  0.98903499839E+03 -0.86204709260E+03  0.19401622482E+04  0.00000000000E+00 0.  1.
<mgrwt>
<rscale>  0 0.34847811E+04</rscale>
<asrwt>0</asrwt>
<pdfrwt beam="1">  1        2 0.40680107E+00 0.34847811E+04</pdfrwt>
<pdfrwt beam="2">  1       -2 0.17663722E+00 0.34847811E+04</pdfrwt>
<totfact> 0.45109512E-01</totfact>
</mgrwt>
</event>
<event>
 6    1  0.5026615E-004  0.3545342E+04  0.7818608E-02  0.8103128E-01
         -2   -1    0    0    0  501 -0.00000000000E+00  0.00000000000E+00  0.23816014709E+04  0.23816014709E+04  0.00000000000E+00 0. -1.
          2   -1    0    0  501    0  0.00000000000E+00 -0.00000000000E+00 -0.13194321806E+04  0.13194321806E+04  0.00000000000E+00 0.  1.
         23    2    1    2    0    0  0.10561554584E+04  0.58334849900E+03 -0.82262957079E+03  0.14631269130E+04  0.90890754183E+02 0.  0.
         13    1    3    3    0    0  0.46473812281E+03  0.30390344376E+03 -0.40014207978E+03  0.68443590637E+03  0.00000000000E+00 0. -1.
        -13    1    3    3    0    0  0.59141733556E+03  0.27944505525E+03 -0.42248749100E+03  0.77869100660E+03  0.00000000000E+00 0.  1.
         22    1    1    2    0    0 -0.10561554584E+04 -0.58334849900E+03  0.18847988611E+04  0.22379067385E+04  0.00000000000E+00 0. -1.
<mgrwt>
<rscale>  0 0.35453415E+04</rscale>
<asrwt>0</asrwt>
<pdfrwt beam="1">  1        2 0.20298957E+00 0.35453415E+04</pdfrwt>
<pdfrwt beam="2">  1       -2 0.36640023E+00 0.35453415E+04</pdfrwt>
<totfact> 0.16132808E-01</totfact>
</mgrwt>
</event>
<event>
 6    1  0.5026615E-004  0.1873571E+04  0.7818608E-02  0.8668125E-01
         -2   -1    0    0    0  501 -0.00000000000E+00  0.00000000000E+00  0.90899681382E+03  0.90899681382E+03  0.00000000000E+00 0. -1.
          2   -1    0    0  501    0  0.00000000000E+00 -0.00000000000E+00 -0.96542382918E+03  0.96542382918E+03  0.00000000000E+00 0.  1.
         23    2    1    2    0    0  0.65569411699E+03  0.28481383265E+03 -0.63058427365E+03  0.95751811187E+03  0.90281305204E+02 0.  0.
         11    1    3    3    0    0  0.13928748538E+03  0.47150573250E+02 -0.86351340687E+02  0.17053074262E+03  0.00000000000E+00 0.  1.
        -11    1    3    3    0    0  0.51640663161E+03  0.23766325940E+03 -0.54423293296E+03  0.78698736925E+03  0.00000000000E+00 0. -1.
         22    1    1    2    0    0 -0.65569411699E+03 -0.28481383265E+03  0.57415725829E+03  0.91690253112E+03  0.00000000000E+00 0. -1.
<mgrwt>
<rscale>  0 0.18735711E+04</rscale>
<asrwt>0</asrwt>
<pdfrwt beam="1">  1        2 0.14852674E+00 0.18735711E+04</pdfrwt>
<pdfrwt beam="2">  1       -2 0.13984566E+00 0.18735711E+04</pdfrwt>
<totfact> 0.89657598E+00</totfact>
</mgrwt>
</event>
<event>
 6    1  0.5026615E-004  0.4606667E+04  0.7818608E-02  0.7892224E-01
         -1   -1    0    0    0  501 -0.00000000000E+00  0.00000000000E+00  0.16098175896E+04  0.16098175896E+04  0.00000000000E+00 0. -1.
          1   -1    0    0  501    0  0.00000000000E+00 -0.00000000000E+00 -0.32956181844E+04  0.32956181844E+04  0.00000000000E+00 0.  1.
         23    2    1    2    0    0  0.20275546449E+04 -0.49650595649E+03  0.19115899470E+03  0.20982177020E+04  0.92085618395E+02 0.  0.
         11    1    3    3    0    0  0.60109594080E+03 -0.13135332065E+03  0.17171841084E+02  0.61552002162E+03  0.00000000000E+00 0.  1.
        -11    1    3    3    0    0  0.14264587041E+04 -0.36515263584E+03  0.17398715361E+03  0.14826976804E+04  0.00000000000E+00 0. -1.
         22    1    1    2    0    0 -0.20275546449E+04  0.49650595649E+03 -0.18769595895E+04  0.28072180719E+04  0.00000000000E+00 0.  1.
<mgrwt>
<rscale>  0 0.46066665E+04</rscale>
<asrwt>0</asrwt>
<pdfrwt beam="1">  1        1 0.50701818E+00 0.46066665E+04</pdfrwt>
<pdfrwt beam="2">  1       -1 0.24766424E+00 0.46066665E+04</pdfrwt>
<totfact> 0.19346303E-02</totfact>
</mgrwt>
</event>
<event>
 6    1  0.5026615E-004  0.2640587E+04  0.7818608E-02  0.8354544E-01
         -3   -1    0    0    0  501 -0.00000000000E+00  0.00000000000E+00  0.94791461667E+03  0.94791461667E+03  0.00000000000E+00 0.  1.
          3   -1    0    0  501    0  0.00000000000E+00 -0.00000000000E+00 -0.18389580034E+04  0.18389580034E+04  0.00000000000E+00 0. -1.
         23    2    1    2    0    0  0.92661239538E+02  0.41889570732E+03 -0.17620989228E+04  0.18158950374E+04  0.91773928881E+02 0.  0.
         13    1    3    3    0    0 -0.14102134755E+01  0.19144660969E+03 -0.83644682879E+03  0.85807755504E+03  0.00000000000E+00 0. -1.
        -13    1    3    3    0    0  0.94071453014E+02  0.22744909763E+03 -0.92565209405E+03  0.95781748236E+03  0.00000000000E+00 0.  1.
         22    1    1    2    0    0 -0.92661239538E+02 -0.41889570732E+03  0.87105553615E+03  0.97097758264E+03  0.00000000000E+00 0.  1.
<mgrwt>
<rscale>  0 0.26405872E+04</rscale>
<asrwt>0</asrwt>
<pdfrwt beam="1">  1        3 0.28291661E+00 0.26405872E+04</pdfrwt>
<pdfrwt beam="2">  1       -3 0.14583302E+00 0.26405872E+04</pdfrwt>
<totfact> 0.38286792E-02</totfact>
</mgrwt>
</event>
<event>
 6    1  0.5026615E-004  0.3992164E+04  0.7818608E-02  0.8006129E-01
          2   -1    0    0  501    0  0.00000000000E+00  0.00000000000E+00  0.17156987023E+04  0.17156987023E+04  0.00000000000E+00 0.  1.
         -2   -1    0    0    0  501 -0.00000000000E+00 -0.00000000000E+00 -0.23222864460E+04  0.23222864460E+04  0.00000000000E+00 0. -1.
         23    2    1    2    0    0  0.16258604835E+04  0.89883505832E+03  0.43240903400E+03  0.19094079056E+04  0.86799788422E+02 0.  0.
         13    1    3    3    0    0  0.91727797802E+03  0.50492356552E+03  0.28780373027E+03  0.10858994811E+04  0.00000000000E+00 0.  1.
        -13    1    3    3    0    0  0.70858250550E+03  0.39391149280E+03  0.14460530373E+03  0.82350842444E+03  0.00000000000E+00 0. -1.
         22    1    1    2    0    0 -0.16258604835E+04 -0.89883505832E+03 -0.10389967777E+04  0.21285772427E+04  0.00000000000E+00 0. -1.
<mgrwt>
<rscale>  0 0.39921642E+04</rscale>
<asrwt>0</asrwt>
<pdfrwt beam="1">  1        2 0.26395365E+00 0.39921642E+04</pdfrwt>
<pdfrwt beam="2">  1       -2 0.35727484E+00 0.39921642E+04</pdfrwt>
<totfact> 0.10614523E-01</totfact>
</mgrwt>
</event>
<event>
 6    1  0.5026615E-004  0.1198963E+04  0.7818608E-02  0.9113765E-01
         -2   -1    0    0    0  501 -0.00000000000E+00  0.00000000000E+00  0.37518803782E+03  0.37518803782E+03  0.00000000000E+00 0. -1.
          2   -1    0    0  501    0  0.00000000000E+00 -0.00000000000E+00 -0.95786149143E+03  0.95786149143E+03  0.00000000000E+00 0.  1.
         23    2    1    2    0    0  0.37436772491E+03 -0.42679980844E+03 -0.49494976807E+03  0.75858916078E+03  0.90404491024E+02 0.  0.
         11    1    3    3    0    0  0.15780339625E+03 -0.17298234194E+03 -0.26360444005E+03  0.35257921565E+03  0.00000000000E+00 0.  1.
        -11    1    3    3    0    0  0.21656432866E+03 -0.25381746651E+03 -0.23134532802E+03  0.40600994513E+03  0.00000000000E+00 0. -1.
         22    1    1    2    0    0 -0.37436772491E+03  0.42679980844E+03 -0.87723685540E+02  0.57446036848E+03  0.00000000000E+00 0. -1.
<mgrwt>
<rscale>  0 0.11989632E+04</rscale>
<asrwt>0</asrwt>
<pdfrwt beam="1">  1        2 0.14736330E+00 0.11989632E+04</pdfrwt>
<pdfrwt beam="2">  1       -2 0.57721237E-01 0.11989632E+04</pdfrwt>
<totfact> 0.74409147E+01</totfact>
</mgrwt>
</event>
<event>
 6    1  0.5026615E-004  0.1431610E+04  0.7818608E-02  0.8931251E-01
         -2   -1    0    0    0  501 -0.00000000000E+00  0.00000000000E+00  0.94717908417E+03  0.94717908417E+03  0.00000000000E+00 0. -1.
          2   -1    0    0  501    0  0.00000000000E+00 -0.00000000000E+00 -0.54094992694E+03  0.54094992694E+03  0.00000000000E+00 0.  1.
         23    2    1    2    0    0  0.58854360953E+03 -0.14286346930E+03 -0.18688794390E+03  0.64043717627E+03  0.91864693938E+02 0.  0.
         13    1    3    3    0    0  0.39392358948E+02  0.10919732295E+02 -0.19588368591E+01  0.40924754596E+02  0.00000000000E+00 0. -1.
        -13    1    3    3    0    0  0.54915125059E+03 -0.15378320160E+03 -0.18492910704E+03  0.59951242168E+03  0.00000000000E+00 0.  1.
         22    1    1    2    0    0 -0.58854360953E+03  0.14286346930E+03  0.59311710113E+03  0.84769183483E+03  0.00000000000E+00 0. -1.
<mgrwt>
<rscale>  0 0.14316095E+04</rscale>
<asrwt>0</asrwt>
<pdfrwt beam="1">  1        2 0.83223066E-01 0.14316095E+04</pdfrwt>
<pdfrwt beam="2">  1       -2 0.14571986E+00 0.14316095E+04</pdfrwt>
<totfact> 0.17620750E+01</totfact>
</mgrwt>
</event>
<event>
 6    1  0.6116428E-004  0.3517491E+04  0.7818608E-02  0.8109657E-01
          2   -1    0    0  501    0  0.00000000000E+00  0.00000000000E+00  0.30500435323E+04  0.30500435323E+04  0.00000000000E+00 0. -1.
         -2   -1    0    0    0  501 -0.00000000000E+00 -0.00000000000E+00 -0.10141447250E+04  0.10141447250E+04  0.00000000000E+00 0.  1.
         23    2    1    2    0    0 -0.76417323266E+03  0.32146096728E+03  0.28092900431E+04  0.29304193714E+04  0.89158640764E+02 0.  0.
         13    1    3    3    0    0 -0.45284280500E+03  0.23428645791E+03  0.17750649971E+04  0.18468385134E+04  0.00000000000E+00 0. -1.
        -13    1    3    3    0    0 -0.31133042766E+03  0.87174509372E+02  0.10342250460E+04  0.10835808581E+04  0.00000000000E+00 0.  1.
         22    1    1    2    0    0  0.76417323266E+03 -0.32146096728E+03 -0.77339123577E+03  0.11337688859E+04  0.00000000000E+00 0.  1.
<mgrwt>
<rscale>  0 0.35174909E+04</rscale>
<asrwt>0</asrwt>
<pdfrwt beam="1">  1        2 0.46923746E+00 0.35174909E+04</pdfrwt>
<pdfrwt beam="2">  1       -2 0.15602227E+00 0.35174909E+04</pdfrwt>
<totfact> 0.35804047E-01</totfact>
</mgrwt>
</event>
<event>
 6    1  0.5026615E-004  0.2860524E+04  0.7818608E-02  0.8284721E-01
         -2   -1    0    0    0  501 -0.00000000000E+00  0.00000000000E+00  0.25282004408E+04  0.25282004408E+04  0.00000000000E+00 0. -1.
          2   -1    0    0  501    0  0.00000000000E+00 -0.00000000000E+00 -0.80913232004E+03  0.80913232004E+03  0.00000000000E+00 0.  1.
         23    2    1    2    0    0  0.13950054524E+04  0.21869112020E+03  0.60707733176E+03  0.15400043176E+04  0.95939529347E+02 0.  0.
         13    1    3    3    0    0  0.64574685767E+03  0.59084808231E+02  0.25277516966E+03  0.69597076458E+03  0.00000000000E+00 0.  1.
        -13    1    3    3    0    0  0.74925859469E+03  0.15960631197E+03  0.35430216210E+03  0.84403355301E+03  0.00000000000E+00 0. -1.
         22    1    1    2    0    0 -0.13950054524E+04 -0.21869112020E+03  0.11119907890E+04  0.17973284433E+04  0.00000000000E+00 0. -1.
<mgrwt>
<rscale>  0 0.28605235E+04</rscale>
<asrwt>0</asrwt>
<pdfrwt beam="1">  1        2 0.12448190E+00 0.28605235E+04</pdfrwt>
<pdfrwt beam="2">  1       -2 0.38895391E+00 0.28605235E+04</pdfrwt>
<totfact> 0.25726537E-01</totfact>
</mgrwt>
</event>
<event>
 6    1  0.5026615E-004  0.4112832E+04  0.7818608E-02  0.7982164E-01
         -2   -1    0    0    0  501 -0.00000000000E+00  0.00000000000E+00  0.23027511780E+04  0.23027511780E+04  0.00000000000E+00 0. -1.
          2   -1    0    0  501    0  0.00000000000E+00 -0.00000000000E+00 -0.18364322205E+04  0.18364322205E+04  0.00000000000E+00 0.  1.
         23    2    1    2    0    0  0.11775257656E+04  0.84917381029E+03 -0.12310835920E+04  0.19056126018E+04  0.90163678587E+02 0.  0.
         13    1    3    3    0    0  0.14265400764E+03  0.77232916733E+02 -0.16357391034E+03  0.23037255364E+03  0.00000000000E+00 0.  1.
        -13    1    3    3    0    0  0.10348717579E+04  0.77194089356E+03 -0.10675096817E+04  0.16752400482E+04  0.00000000000E+00 0. -1.
         22    1    1    2    0    0 -0.11775257656E+04 -0.84917381029E+03  0.16974025495E+04  0.22335707967E+04  0.00000000000E+00 0. -1.
<mgrwt>
<rscale>  0 0.41128319E+04</rscale>
<asrwt>0</asrwt>
<pdfrwt beam="1">  1        2 0.28252803E+00 0.41128319E+04</pdfrwt>
<pdfrwt beam="2">  1       -2 0.35426941E+00 0.41128319E+04</pdfrwt>
<totfact> 0.94119557E-02</totfact>
</mgrwt>
</event>
<event>
 6    1  0.5026615E-004  0.3975039E+04  0.7818608E-02  0.8009601E-01
          2   -1    0    0  501    0  0.00000000000E+00  0.00000000000E+00  0.28274497472E+04  0.28274497472E+04  0.00000000000E+00 0.  1.
         -2   -1    0    0    0  501 -0.00000000000E+00 -0.00000000000E+00 -0.13971010860E+04  0.13971010860E+04  0.00000000000E+00 0. -1.
         23    2    1    2    0    0  0.13672694122E+04  0.66487759779E+03  0.20743200217E+04  0.25734339449E+04  0.90944217869E+02 0.  0.
         13    1    3    3    0    0  0.68435582714E+03  0.28321953764E+03  0.99377046533E+03  0.12394095136E+04  0.00000000000E+00 0. -1.
        -13    1    3    3    0    0  0.68291358509E+03  0.38165806015E+03  0.10805495564E+04  0.13340244313E+04  0.00000000000E+00 0.  1.
         22    1    1    2    0    0 -0.13672694122E+04 -0.66487759779E+03 -0.64397136055E+03  0.16511168883E+04  0.00000000000E+00 0. -1.
<mgrwt>
<rscale>  0 0.39750387E+04</rscale>
<asrwt>0</asrwt>
<pdfrwt beam="1">  1        2 0.43499227E+00 0.39750387E+04</pdfrwt>
<pdfrwt beam="2">  1       -2 0.21493863E+00 0.39750387E+04</pdfrwt>
<totfact> 0.18718980E-01</totfact>
</mgrwt>
</event>
<event>
 6    1  0.5026615E-004  0.2090465E+04  0.7818608E-02  0.8565455E-01
         -2   -1    0    0    0  501 -0.00000000000E+00  0.00000000000E+00  0.16096411242E+04  0.16096411242E+04  0.00000000000E+00 0.  1.
          2   -1    0    0  501    0  0.00000000000E+00 -0.00000000000E+00 -0.67872975270E+03  0.67872975270E+03  0.00000000000E+00 0. -1.
         23    2    1    2    0    0  0.73670707375E+03  0.64180464504E+03  0.86664544025E+03  0.13091974373E+04  0.90956559888E+02 0.  0.
         11    1    3    3    0    0  0.46536423068E+03  0.38246180626E+03  0.47888097968E+03  0.76952445909E+03  0.00000000000E+00 0. -1.
        -11    1    3    3    0    0  0.27134284307E+03  0.25934283878E+03  0.38776446058E+03  0.53967297820E+03  0.00000000000E+00 0.  1.
         22    1    1    2    0    0 -0.73670707375E+03 -0.64180464504E+03  0.64265931245E+02  0.97917343960E+03  0.00000000000E+00 0.  1.
<mgrwt>
<rscale>  0 0.20904653E+04</rscale>
<asrwt>0</asrwt>
<pdfrwt beam="1">  1        2 0.10441996E+00 0.20904653E+04</pdfrwt>
<pdfrwt beam="2">  1       -2 0.24763709E+00 0.20904653E+04</pdfrwt>
<totfact> 0.26102246E+00</totfact>
</mgrwt>
</event>
<event>
 6    1  0.5026615E-004  0.1957026E+04  0.7818608E-02  0.8626980E-01
         -2   -1    0    0    0  501 -0.00000000000E+00  0.00000000000E+00  0.51503431678E+03  0.51503431678E+03  0.00000000000E+00 0. -1.
          2   -1    0    0  501    0  0.00000000000E+00 -0.00000000000E+00 -0.18590756851E+04  0.18590756851E+04  0.00000000000E+00 0.  1.
         23    2    1    2    0    0  0.19160956364E+03  0.71010369526E+03 -0.14523074483E+04  0.16306834575E+04  0.94710776513E+02 0.  0.
         13    1    3    3    0    0  0.13598531563E+03  0.38516628176E+03 -0.72492744063E+03  0.83208465005E+03  0.00000000000E+00 0.  1.
        -13    1    3    3    0    0  0.55624248012E+02  0.32493741350E+03 -0.72738000766E+03  0.79859880741E+03  0.00000000000E+00 0. -1.
         22    1    1    2    0    0 -0.19160956364E+03 -0.71010369526E+03  0.10826607995E+03  0.74342654443E+03  0.00000000000E+00 0. -1.
<mgrwt>
<rscale>  0 0.19570261E+04</rscale>
<asrwt>0</asrwt>
<pdfrwt beam="1">  1        2 0.28601164E+00 0.19570261E+04</pdfrwt>
<pdfrwt beam="2">  1       -2 0.79236049E-01 0.19570261E+04</pdfrwt>
<totfact> 0.10535191E+01</totfact>
</mgrwt>
</event>
<event>
 6    1  0.5026615E-004  0.3704638E+04  0.7818608E-02  0.8066935E-01
          2   -1    0    0  501    0  0.00000000000E+00  0.00000000000E+00  0.20525135817E+04  0.20525135817E+04  0.00000000000E+00 0.  1.
         -2   -1    0    0    0  501 -0.00000000000E+00 -0.00000000000E+00 -0.16716509774E+04  0.16716509774E+04  0.00000000000E+00 0. -1.
         23    2    1    2    0    0  0.83821597688E+03 -0.30799715369E+01 -0.14686746224E+04  0.16935480362E+04  0.92110228776E+02 0.  0.
         11    1    3    3    0    0  0.19302352396E+03  0.16549290273E+02 -0.41276785025E+03  0.45597067670E+03  0.00000000000E+00 0.  1.
        -11    1    3    3    0    0  0.64519245292E+03 -0.19629261809E+02 -0.10559067721E+04  0.12375773595E+04  0.00000000000E+00 0. -1.
         22    1    1    2    0    0 -0.83821597688E+03  0.30799715369E+01  0.18495372267E+04  0.20306165229E+04  0.00000000000E+00 0.  1.
<mgrwt>
<rscale>  0 0.37046384E+04</rscale>
<asrwt>0</asrwt>
<pdfrwt beam="1">  1        2 0.31577132E+00 0.37046384E+04</pdfrwt>
<pdfrwt beam="2">  1       -2 0.25717707E+00 0.37046384E+04</pdfrwt>
<totfact> 0.29305894E-01</totfact>
</mgrwt>
</event>
<event>
 6    1  0.5026615E-004  0.3302278E+04  0.7818608E-02  0.8162316E-01
          2   -1    0    0  501    0  0.00000000000E+00  0.00000000000E+00  0.33979993209E+04  0.33979993209E+04  0.00000000000E+00 0.  1.
         -2   -1    0    0    0  501 -0.00000000000E+00 -0.00000000000E+00 -0.80231344553E+03  0.80231344553E+03  0.00000000000E+00 0. -1.
         23    2    1    2    0    0  0.88094624680E+02  0.12061096962E+04  0.27263380187E+04  0.29839529329E+04  0.92708420953E+02 0.  0.
         13    1    3    3    0    0  0.12581383926E+02  0.44159548336E+03  0.10957724188E+04  0.11814745262E+04  0.00000000000E+00 0. -1.
        -13    1    3    3    0    0  0.75513240754E+02  0.76451421286E+03  0.16305655999E+04  0.18024784067E+04  0.00000000000E+00 0.  1.
         22    1    1    2    0    0 -0.88094624680E+02 -0.12061096962E+04 -0.13065214328E+03  0.12163598336E+04  0.00000000000E+00 0. -1.
<mgrwt>
<rscale>  0 0.33022783E+04</rscale>
<asrwt>0</asrwt>
<pdfrwt beam="1">  1        2 0.52276912E+00 0.33022783E+04</pdfrwt>
<pdfrwt beam="2">  1       -2 0.12343284E+00 0.33022783E+04</pdfrwt>
<totfact> 0.39474560E-01</totfact>
</mgrwt>
</event>
<event>
 6    1  0.5026615E-004  0.1151824E+04  0.7818608E-02  0.9156103E-01
         -2   -1    0    0    0  501 -0.00000000000E+00  0.00000000000E+00  0.18940571629E+03  0.18940571629E+03  0.00000000000E+00 0. -1.
          2   -1    0    0  501    0  0.00000000000E+00 -0.00000000000E+00 -0.17511325655E+04  0.17511325655E+04  0.00000000000E+00 0.  1.
         23    2    1    2    0    0 -0.39028110797E+03 -0.39389582334E+03 -0.10242604067E+04  0.11683055191E+04  0.91406468197E+02 0.  0.
         11    1    3    3    0    0 -0.27913712812E+03 -0.25756928243E+03 -0.77703117913E+03  0.86489127923E+03  0.00000000000E+00 0.  1.
        -11    1    3    3    0    0 -0.11114397985E+03 -0.13632654092E+03 -0.24722922758E+03  0.30341423991E+03  0.00000000000E+00 0. -1.
         22    1    1    2    0    0  0.39028110797E+03  0.39389582334E+03 -0.53746644251E+03  0.77223276265E+03  0.00000000000E+00 0.  1.
<mgrwt>
<rscale>  0 0.11518238E+04</rscale>
<asrwt>0</asrwt>
<pdfrwt beam="1">  1        2 0.26940502E+00 0.11518238E+04</pdfrwt>
<pdfrwt beam="2">  1       -2 0.29139340E-01 0.11518238E+04</pdfrwt>
<totfact> 0.98434323E+01</totfact>
</mgrwt>
</event>
<event>
 6    1  0.5026615E-004  0.3239348E+04  0.7818608E-02  0.8178502E-01
          2   -1    0    0  501    0  0.00000000000E+00  0.00000000000E+00  0.14246464565E+04  0.14246464565E+04  0.00000000000E+00 0.  1.
         -2   -1    0    0    0  501 -0.00000000000E+00 -0.00000000000E+00 -0.18414003157E+04  0.18414003157E+04  0.00000000000E+00 0. -1.
         23    2    1    2    0    0 -0.15619281960E+04  0.41102474818E+03 -0.31261358441E+03  0.16475887931E+04  0.90887540575E+02 0.  0.
         13    1    3    3    0    0 -0.12017594791E+04  0.35482424578E+03 -0.24923234319E+03  0.12775926001E+04  0.00000000000E+00 0. -1.
        -13    1    3    3    0    0 -0.36016871693E+03  0.56200502399E+02 -0.63381241225E+02  0.36999619304E+03  0.00000000000E+00 0.  1.
         22    1    1    2    0    0  0.15619281960E+04 -0.41102474818E+03 -0.10414027480E+03  0.16184579790E+04  0.00000000000E+00 0. -1.
<mgrwt>
<rscale>  0 0.32393484E+04</rscale>
<asrwt>0</asrwt>
<pdfrwt beam="1">  1        2 0.21917638E+00 0.32393484E+04</pdfrwt>
<pdfrwt beam="2">  1       -2 0.28329235E+00 0.32393484E+04</pdfrwt>
<totfact> 0.47275002E-01</totfact>
</mgrwt>
</event>
<event>
 6    1  0.5026615E-004  0.3171231E+03  0.7818608E-02  0.1076981E+00
         -2   -1    0    0    0  501 -0.00000000000E+00  0.00000000000E+00  0.32762141203E+02  0.32762141203E+02  0.00000000000E+00 0. -1.
          2   -1    0    0  501    0  0.00000000000E+00 -0.00000000000E+00 -0.76740277463E+03  0.76740277463E+03  0.00000000000E+00 0.  1.
         23    2    1    2    0    0 -0.14703370767E+03  0.26057692594E+02 -0.36766410995E+03  0.40397091876E+03  0.75615414594E+02 0.  0.
         11    1    3    3    0    0 -0.34627155140E+02 -0.26119417007E+02 -0.10084098999E+03  0.10977326214E+03  0.00000000000E+00 0. -1.
        -11    1    3    3    0    0 -0.11240655253E+03  0.52177109600E+02 -0.26682311996E+03  0.29419765662E+03  0.00000000000E+00 0.  1.
         22    1    1    2    0    0  0.14703370767E+03 -0.26057692594E+02 -0.36697652348E+03  0.39619399708E+03  0.00000000000E+00 0.  1.
<mgrwt>
<rscale>  0 0.31712306E+03</rscale>
<asrwt>0</asrwt>
<pdfrwt beam="1">  1        2 0.11806195E+00 0.31712306E+03</pdfrwt>
<pdfrwt beam="2">  1       -2 0.50403300E-02 0.31712306E+03</pdfrwt>
<totfact> 0.72493771E+03</totfact>
</mgrwt>
</event>
<event>
 6    1  0.5026615E-004  0.3941947E+04  0.7818608E-02  0.8016361E-01
          2   -1    0    0  501    0  0.00000000000E+00  0.00000000000E+00  0.28839025121E+04  0.28839025121E+04  0.00000000000E+00 0.  1.
         -2   -1    0    0    0  501 -0.00000000000E+00 -0.00000000000E+00 -0.13470416102E+04  0.13470416102E+04  0.00000000000E+00 0. -1.
         23    2    1    2    0    0 -0.20178171072E+03 -0.53222468355E+03 -0.12552613443E+04  0.13813958054E+04  0.92705749962E+02 0.  0.
         11    1    3    3    0    0 -0.64961638154E+02 -0.30175738296E+03 -0.67299693909E+03  0.74040692368E+03  0.00000000000E+00 0. -1.
        -11    1    3    3    0    0 -0.13682007257E+03 -0.23046730059E+03 -0.58226440520E+03  0.64098888170E+03  0.00000000000E+00 0.  1.
         22    1    1    2    0    0  0.20178171072E+03  0.53222468355E+03  0.27921222462E+04  0.28495483169E+04  0.00000000000E+00 0.  1.
<mgrwt>
<rscale>  0 0.39419471E+04</rscale>
<asrwt>0</asrwt>
<pdfrwt beam="1">  1        2 0.44367731E+00 0.39419471E+04</pdfrwt>
<pdfrwt beam="2">  1       -2 0.20723717E+00 0.39419471E+04</pdfrwt>
<totfact> 0.19427950E-01</totfact>
</mgrwt>
</event>
<event>
 6    1  0.5026615E-004  0.2290686E+04  0.7818608E-02  0.8481603E-01
          1   -1    0    0  501    0  0.00000000000E+00  0.00000000000E+00  0.22172378091E+04  0.22172378091E+04  0.00000000000E+00 0. -1.
         -1   -1    0    0    0  501 -0.00000000000E+00 -0.00000000000E+00 -0.59164185273E+03  0.59164185273E+03  0.00000000000E+00 0.  1.
         23    2    1    2    0    0 -0.12712079830E+03 -0.69921338555E+02  0.22049749768E+04  0.22116119326E+04  0.90906552478E+02 0.  0.
         13    1    3    3    0    0 -0.11857497094E+03 -0.40493197800E+02  0.12772973889E+04  0.12834283551E+04  0.00000000000E+00 0.  1.
        -13    1    3    3    0    0 -0.85458273630E+01 -0.29428140755E+02  0.92767758787E+03  0.92818357757E+03  0.00000000000E+00 0. -1.
         22    1    1    2    0    0  0.12712079830E+03  0.69921338555E+02 -0.57937902046E+03  0.59726772916E+03  0.00000000000E+00 0.  1.
<mgrwt>
<rscale>  0 0.22906861E+04</rscale>
<asrwt>0</asrwt>
<pdfrwt beam="1">  1        1 0.34111350E+00 0.22906861E+04</pdfrwt>
<pdfrwt beam="2">  1       -1 0.91021825E-01 0.22906861E+04</pdfrwt>
<totfact> 0.22592390E+00</totfact>
</mgrwt>
</event>
<event>
 6    1  0.5026615E-004  0.3166429E+04  0.7818608E-02  0.8197740E-01
          2   -1    0    0  501    0  0.00000000000E+00  0.00000000000E+00  0.29470333653E+04  0.29470333653E+04  0.00000000000E+00 0.  1.
         -2   -1    0    0    0  501 -0.00000000000E+00 -0.00000000000E+00 -0.85053954462E+03  0.85053954462E+03  0.00000000000E+00 0. -1.
         23    2    1    2    0    0  0.13522921847E+04 -0.70468180264E+03  0.54436670282E+03  0.16217123478E+04  0.91352264393E+02 0.  0.
         11    1    3    3    0    0  0.84654621559E+03 -0.39542664666E+03  0.31348701713E+03  0.98553378325E+03  0.00000000000E+00 0. -1.
        -11    1    3    3    0    0  0.50574596908E+03 -0.30925515599E+03  0.23087968569E+03  0.63617856456E+03  0.00000000000E+00 0.  1.
         22    1    1    2    0    0 -0.13522921847E+04  0.70468180264E+03  0.15521271178E+04  0.21758605621E+04  0.00000000000E+00 0.  1.
<mgrwt>
<rscale>  0 0.31664292E+04</rscale>
<asrwt>0</asrwt>
<pdfrwt beam="1">  1        2 0.45338974E+00 0.31664292E+04</pdfrwt>
<pdfrwt beam="2">  1       -2 0.13085224E+00 0.31664292E+04</pdfrwt>
<totfact> 0.67726529E-01</totfact>
</mgrwt>
</event>
<event>
 6    1  0.5026615E-004  0.4449686E+04  0.7818608E-02  0.7919505E-01
         -2   -1    0    0    0  501 -0.00000000000E+00  0.00000000000E+00  0.19315871852E+04  0.19315871852E+04  0.00000000000E+00 0. -1.
          2   -1    0    0  501    0  0.00000000000E+00 -0.00000000000E+00 -0.25626214070E+04  0.25626214070E+04  0.00000000000E+00 0.  1.
         23    2    1    2    0    0  0.12571651695E+04  0.18272802153E+03  0.15278623914E+04  0.19892757828E+04  0.94872862402E+02 0.  0.
         13    1    3    3    0    0  0.70043292031E+03  0.55682808142E+02  0.86148156478E+03  0.11116912060E+04  0.00000000000E+00 0. -1.
        -13    1    3    3    0    0  0.55673224918E+03  0.12704521338E+03  0.66638082659E+03  0.87758457687E+03  0.00000000000E+00 0.  1.
         22    1    1    2    0    0 -0.12571651695E+04 -0.18272802153E+03 -0.21588966132E+04  0.25049328094E+04  0.00000000000E+00 0.  1.
<mgrwt>
<rscale>  0 0.44496861E+04</rscale>
<asrwt>0</asrwt>
<pdfrwt beam="1">  1        2 0.39424945E+00 0.44496861E+04</pdfrwt>
<pdfrwt beam="2">  1       -2 0.29716726E+00 0.44496861E+04</pdfrwt>
<totfact> 0.80546154E-02</totfact>
</mgrwt>
</event>
<event>
 6    1  0.5026615E-004  0.5838791E+03  0.7818608E-02  0.9939428E-01
          1   -1    0    0  501    0  0.00000000000E+00  0.00000000000E+00  0.15654069855E+03  0.15654069855E+03  0.00000000000E+00 0.  1.
         -1   -1    0    0    0  501 -0.00000000000E+00 -0.00000000000E+00 -0.54445073944E+03  0.54445073944E+03  0.00000000000E+00 0. -1.
         23    2    1    2    0    0 -0.25537897509E+03  0.10455772362E+03 -0.28435648053E+03  0.40624734839E+03  0.89596660471E+02 0.  0.
         13    1    3    3    0    0 -0.97214042946E+02  0.93690161380E+01 -0.14556458175E+03  0.17529231606E+03  0.00000000000E+00 0. -1.
        -13    1    3    3    0    0 -0.15816493214E+03  0.95188707484E+02 -0.13879189878E+03  0.23095503234E+03  0.00000000000E+00 0.  1.
         22    1    1    2    0    0  0.25537897509E+03 -0.10455772362E+03 -0.10355356036E+03  0.29474408959E+03  0.00000000000E+00 0.  1.
<mgrwt>
<rscale>  0 0.58387909E+03</rscale>
<asrwt>0</asrwt>
<pdfrwt beam="1">  1        1 0.24083185E-01 0.58387909E+03</pdfrwt>
<pdfrwt beam="2">  1       -1 0.83761651E-01 0.58387909E+03</pdfrwt>
<totfact> 0.29452846E+02</totfact>
</mgrwt>
</event>
<event>
 6    1  0.5026615E-004  0.1921920E+04  0.7818608E-02  0.8644022E-01
         -2   -1    0    0    0  501 -0.00000000000E+00  0.00000000000E+00  0.96057394979E+03  0.96057394979E+03  0.00000000000E+00 0. -1.
          2   -1    0    0  501    0  0.00000000000E+00 -0.00000000000E+00 -0.96134608235E+03  0.96134608235E+03  0.00000000000E+00 0.  1.
         23    2    1    2    0    0 -0.16753332851E+03 -0.52809047662E+03  0.78216943927E+03  0.96278267360E+03  0.90633753137E+02 0.  0.
         13    1    3    3    0    0  0.53207331191E+01 -0.49482479757E+02  0.10026825549E+03  0.11193993506E+03  0.00000000000E+00 0. -1.
        -13    1    3    3    0    0 -0.17285406163E+03 -0.47860799686E+03  0.68190118378E+03  0.85084273854E+03  0.00000000000E+00 0.  1.
         22    1    1    2    0    0  0.16753332851E+03  0.52809047662E+03 -0.78294157182E+03  0.95913735854E+03  0.00000000000E+00 0.  1.
<mgrwt>
<rscale>  0 0.19219199E+04</rscale>
<asrwt>0</asrwt>
<pdfrwt beam="1">  1        2 0.14789940E+00 0.19219199E+04</pdfrwt>
<pdfrwt beam="2">  1       -2 0.14778061E+00 0.19219199E+04</pdfrwt>
<totfact> 0.77755636E+00</totfact>
</mgrwt>
</event>
<event>
 6    1  0.5026615E-004  0.4052269E+04  0.7818608E-02  0.7994084E-01
          2   -1    0    0  501    0  0.00000000000E+00  0.00000000000E+00  0.21764460749E+04  0.21764460749E+04  0.00000000000E+00 0.  1.
         -2   -1    0    0    0  501 -0.00000000000E+00 -0.00000000000E+00 -0.18862040665E+04  0.18862040665E+04  0.00000000000E+00 0. -1.
         23    2    1    2    0    0 -0.14715391911E+04 -0.10811633745E+04 -0.73259550708E+03  0.19696765591E+04  0.92670044137E+02 0.  0.
         11    1    3    3    0    0 -0.33455743624E+03 -0.25499165224E+03 -0.21053966177E+03  0.47040022325E+03  0.00000000000E+00 0. -1.
        -11    1    3    3    0    0 -0.11369817549E+04 -0.82617172225E+03 -0.52205584531E+03  0.14992763359E+04  0.00000000000E+00 0.  1.
         22    1    1    2    0    0  0.14715391911E+04  0.10811633745E+04  0.10228375155E+04  0.20929735824E+04  0.00000000000E+00 0. -1.
<mgrwt>
<rscale>  0 0.40522692E+04</rscale>
<asrwt>0</asrwt>
<pdfrwt beam="1">  1        2 0.33483786E+00 0.40522692E+04</pdfrwt>
<pdfrwt beam="2">  1       -2 0.29018524E+00 0.40522692E+04</pdfrwt>
<totfact> 0.15263433E-01</totfact>
</mgrwt>
</event>
<event>
 6    1  0.5026615E-004  0.1709874E+04  0.7818608E-02  0.8755753E-01
          2   -1    0    0  501    0  0.00000000000E+00  0.00000000000E+00  0.41821696193E+04  0.41821696193E+04  0.00000000000E+00 0.  1.
         -2   -1    0    0    0  501 -0.00000000000E+00 -0.00000000000E+00 -0.17476988472E+03  0.17476988472E+03  0.00000000000E+00 0. -1.
         23    2    1    2    0    0  0.10231940800E+03  0.43875474118E+02  0.41630685561E+04  0.41655574241E+04  0.91293659288E+02 0.  0.
         13    1    3    3    0    0  0.11952189808E+03  0.41847457858E+02  0.36828902235E+04  0.36850667691E+04  0.00000000000E+00 0.  1.
        -13    1    3    3    0    0 -0.17202490077E+02  0.20280162605E+01  0.48017833259E+03  0.48049065506E+03  0.00000000000E+00 0. -1.
         22    1    1    2    0    0 -0.10231940800E+03 -0.43875474118E+02 -0.15566882157E+03  0.19138207986E+03  0.00000000000E+00 0. -1.
<mgrwt>
<rscale>  0 0.17098740E+04</rscale>
<asrwt>0</asrwt>
<pdfrwt beam="1">  1        2 0.64341064E+00 0.17098740E+04</pdfrwt>
<pdfrwt beam="2">  1       -2 0.26887678E-01 0.17098740E+04</pdfrwt>
<totfact> 0.29359382E+00</totfact>
</mgrwt>
</event>
<event>
 6    1  0.5026615E-004  0.1438500E+04  0.7818608E-02  0.8926412E-01
         -2   -1    0    0    0  501 -0.00000000000E+00  0.00000000000E+00  0.37428868971E+03  0.37428868971E+03  0.00000000000E+00 0. -1.
          2   -1    0    0  501    0  0.00000000000E+00 -0.00000000000E+00 -0.13821436997E+04  0.13821436997E+04  0.00000000000E+00 0.  1.
         23    2    1    2    0    0 -0.37705994814E+03 -0.47331910201E+03 -0.97398927127E+03  0.11503366337E+04  0.91728367779E+02 0.  0.
         13    1    3    3    0    0 -0.10548413335E+03 -0.13739888022E+03 -0.36132969322E+03  0.40070500605E+03  0.00000000000E+00 0. -1.
        -13    1    3    3    0    0 -0.27157581479E+03 -0.33592022179E+03 -0.61265957806E+03  0.74963162765E+03  0.00000000000E+00 0.  1.
         22    1    1    2    0    0  0.37705994814E+03  0.47331910201E+03 -0.33865738704E+02  0.60609575570E+03  0.00000000000E+00 0. -1.
<mgrwt>
<rscale>  0 0.14385003E+04</rscale>
<asrwt>0</asrwt>
<pdfrwt beam="1">  1        2 0.21263750E+00 0.14385003E+04</pdfrwt>
<pdfrwt beam="2">  1       -2 0.57582874E-01 0.14385003E+04</pdfrwt>
<totfact> 0.40612492E+01</totfact>
</mgrwt>
</event>
<event>
 6    1  0.5026615E-004  0.3199203E+04  0.7818608E-02  0.8189028E-01
         -2   -1    0    0    0  501 -0.00000000000E+00  0.00000000000E+00  0.10562528999E+04  0.10562528999E+04  0.00000000000E+00 0. -1.
          2   -1    0    0  501    0  0.00000000000E+00 -0.00000000000E+00 -0.24224547286E+04  0.24224547286E+04  0.00000000000E+00 0.  1.
         23    2    1    2    0    0  0.35842108125E+03  0.96516698388E+03 -0.20126081503E+04  0.22630373974E+04  0.10360365249E+03 0.  0.
         11    1    3    3    0    0  0.25044632287E+03  0.56374895059E+03 -0.11290968072E+04  0.12866218714E+04  0.00000000000E+00 0. -1.
        -11    1    3    3    0    0  0.10797475838E+03  0.40141803330E+03 -0.88351134311E+03  0.97641552594E+03  0.00000000000E+00 0.  1.
         22    1    1    2    0    0 -0.35842108125E+03 -0.96516698388E+03  0.64640632165E+03  0.12156702312E+04  0.00000000000E+00 0. -1.
<mgrwt>
<rscale>  0 0.31992029E+04</rscale>
<asrwt>0</asrwt>
<pdfrwt beam="1">  1        2 0.37268534E+00 0.31992029E+04</pdfrwt>
<pdfrwt beam="2">  1       -2 0.16250045E+00 0.31992029E+04</pdfrwt>
<totfact> 0.78454628E-01</totfact>
</mgrwt>
</event>
<event>
 6    1  0.5026615E-004  0.8818659E+03  0.7818608E-02  0.9448538E-01
          2   -1    0    0  501    0  0.00000000000E+00  0.00000000000E+00  0.95536407127E+03  0.95536407127E+03  0.00000000000E+00 0.  1.
         -2   -1    0    0    0  501 -0.00000000000E+00 -0.00000000000E+00 -0.20350550195E+03  0.20350550195E+03  0.00000000000E+00 0. -1.
         23    2    1    2    0    0  0.33413901195E+03 -0.23724287321E+03  0.57824339602E+03  0.71381307277E+03  0.85033038369E+02 0.  0.
         11    1    3    3    0    0  0.12563314853E+02 -0.34553160746E+02  0.34829374319E+02  0.50644280162E+02  0.00000000000E+00 0. -1.
        -11    1    3    3    0    0  0.32157569710E+03 -0.20268971247E+03  0.54341402170E+03  0.66316879261E+03  0.00000000000E+00 0.  1.
         22    1    1    2    0    0 -0.33413901195E+03  0.23724287321E+03  0.17361517330E+03  0.44505650046E+03  0.00000000000E+00 0. -1.
<mgrwt>
<rscale>  0 0.88186585E+03</rscale>
<asrwt>0</asrwt>
<pdfrwt beam="1">  1        2 0.14697908E+00 0.88186585E+03</pdfrwt>
<pdfrwt beam="2">  1       -2 0.31308539E-01 0.88186585E+03</pdfrwt>
<totfact> 0.25539734E+02</totfact>
</mgrwt>
</event>
<event>
 6    1  0.5026615E-004  0.1260084E+04  0.7818608E-02  0.9061832E-01
          2   -1    0    0  501    0  0.00000000000E+00  0.00000000000E+00  0.17013600263E+04  0.17013600263E+04  0.00000000000E+00 0.  1.
         -2   -1    0    0    0  501 -0.00000000000E+00 -0.00000000000E+00 -0.23331503982E+03  0.23331503982E+03  0.00000000000E+00 0. -1.
         23    2    1    2    0    0 -0.26291331174E+03  0.19155963737E+03  0.15603233937E+04  0.15965422393E+04  0.92301270861E+02 0.  0.
         13    1    3    3    0    0 -0.94718861397E+02  0.34749119795E+02  0.64122402551E+03  0.64911279060E+03  0.00000000000E+00 0.  1.
        -13    1    3    3    0    0 -0.16819445034E+03  0.15681051758E+03  0.91909936823E+03  0.94742944868E+03  0.00000000000E+00 0. -1.
         22    1    1    2    0    0  0.26291331174E+03 -0.19155963737E+03 -0.92278407240E+02  0.33813282686E+03  0.00000000000E+00 0. -1.
<mgrwt>
<rscale>  0 0.12600839E+04</rscale>
<asrwt>0</asrwt>
<pdfrwt beam="1">  1        2 0.26174769E+00 0.12600839E+04</pdfrwt>
<pdfrwt beam="2">  1       -2 0.35894623E-01 0.12600839E+04</pdfrwt>
<totfact> 0.70212304E+01</totfact>
</mgrwt>
</event>
<event>
 6    1  0.5026615E-004  0.3022350E+04  0.7818608E-02  0.8237377E-01
          2   -1    0    0  501    0  0.00000000000E+00  0.00000000000E+00  0.23166844864E+04  0.23166844864E+04  0.00000000000E+00 0.  1.
         -2   -1    0    0    0  501 -0.00000000000E+00 -0.00000000000E+00 -0.98574062852E+03  0.98574062852E+03  0.00000000000E+00 0. -1.
         23    2    1    2    0    0  0.14308798152E+04  0.31920854593E+03  0.10613569568E+04  0.18117916126E+04  0.82456754145E+02 0.  0.
         11    1    3    3    0    0  0.68346828044E+03  0.19457815862E+03  0.50992509447E+03  0.87465030277E+03  0.00000000000E+00 0. -1.
        -11    1    3    3    0    0  0.74741153472E+03  0.12463038731E+03  0.55143186237E+03  0.93714130979E+03  0.00000000000E+00 0.  1.
         22    1    1    2    0    0 -0.14308798152E+04 -0.31920854593E+03  0.26958690106E+03  0.14906335024E+04  0.00000000000E+00 0. -1.
<mgrwt>
<rscale>  0 0.30223501E+04</rscale>
<asrwt>0</asrwt>
<pdfrwt beam="1">  1        2 0.35641300E+00 0.30223501E+04</pdfrwt>
<pdfrwt beam="2">  1       -2 0.15165240E+00 0.30223501E+04</pdfrwt>
<totfact> 0.11028887E+00</totfact>
</mgrwt>
</event>
<event>
 6    1  0.5026615E-004  0.4442966E+04  0.7818608E-02  0.7920698E-01
          2   -1    0    0  501    0  0.00000000000E+00  0.00000000000E+00  0.30427113110E+04  0.30427113110E+04  0.00000000000E+00 0.  1.
         -2   -1    0    0    0  501 -0.00000000000E+00 -0.00000000000E+00 -0.16219043954E+04  0.16219043954E+04  0.00000000000E+00 0. -1.
         23    2    1    2    0    0 -0.15762132434E+04  0.81141770010E+03  0.21145832700E+04  0.27608897538E+04  0.90570162408E+02 0.  0.
         13    1    3    3    0    0 -0.46224530763E+02  0.96001211254E+01  0.45810635635E+02  0.65783614276E+02  0.00000000000E+00 0.  1.
        -13    1    3    3    0    0 -0.15299887126E+04  0.80181757898E+03  0.20687726344E+04  0.26951061396E+04  0.00000000000E+00 0. -1.
         22    1    1    2    0    0  0.15762132434E+04 -0.81141770010E+03 -0.69377635444E+03  0.19037259526E+04  0.00000000000E+00 0. -1.
<mgrwt>
<rscale>  0 0.44429661E+04</rscale>
<asrwt>0</asrwt>
<pdfrwt beam="1">  1        2 0.46810943E+00 0.44429661E+04</pdfrwt>
<pdfrwt beam="2">  1       -2 0.24952375E+00 0.44429661E+04</pdfrwt>
<totfact> 0.80546488E-02</totfact>
</mgrwt>
</event>
<event>
 6    1  0.5026615E-004  0.1633111E+04  0.7818608E-02  0.8800461E-01
         -2   -1    0    0    0  501 -0.00000000000E+00  0.00000000000E+00  0.33659800059E+03  0.33659800059E+03  0.00000000000E+00 0.  1.
          2   -1    0    0  501    0  0.00000000000E+00 -0.00000000000E+00 -0.19808872577E+04  0.19808872577E+04  0.00000000000E+00 0. -1.
         23    2    1    2    0    0 -0.93507901986E+01  0.65004758843E+03 -0.12953122848E+03  0.66910994006E+03  0.90997078151E+02 0.  0.
         13    1    3    3    0    0  0.40646934507E+02  0.28163828172E+03 -0.50101441902E+02  0.28893329593E+03  0.00000000000E+00 0. -1.
        -13    1    3    3    0    0 -0.49997724706E+02  0.36840930671E+03 -0.79429786582E+02  0.38017664413E+03  0.00000000000E+00 0.  1.
         22    1    1    2    0    0  0.93507901986E+01 -0.65004758843E+03 -0.15147580287E+04  0.16483753183E+04  0.00000000000E+00 0. -1.
<mgrwt>
<rscale>  0 0.16331108E+04</rscale>
<asrwt>0</asrwt>
<pdfrwt beam="1">  1        2 0.30475189E+00 0.16331108E+04</pdfrwt>
<pdfrwt beam="2">  1       -2 0.51784308E-01 0.16331108E+04</pdfrwt>
<totfact> 0.23067546E+01</totfact>
</mgrwt>
</event>
<event>
 6    1  0.5026615E-004  0.3766586E+04  0.7818608E-02  0.8053364E-01
         -2   -1    0    0    0  501 -0.00000000000E+00  0.00000000000E+00  0.20231664833E+04  0.20231664833E+04  0.00000000000E+00 0. -1.
          2   -1    0    0  501    0  0.00000000000E+00 -0.00000000000E+00 -0.17530901961E+04  0.17530901961E+04  0.00000000000E+00 0.  1.
         23    2    1    2    0    0 -0.14592720385E+04  0.11596012379E+04 -0.12721622492E+03  0.18704782942E+04  0.91406607563E+02 0.  0.
         11    1    3    3    0    0 -0.84513506228E+03  0.69098662664E+03 -0.11696273543E+03  0.10979053116E+04  0.00000000000E+00 0.  1.
        -11    1    3    3    0    0 -0.61413697621E+03  0.46861461126E+03 -0.10253489487E+02  0.77257298263E+03  0.00000000000E+00 0. -1.
         22    1    1    2    0    0  0.14592720385E+04 -0.11596012379E+04  0.39729251212E+03  0.19057783852E+04  0.00000000000E+00 0.  1.
<mgrwt>
<rscale>  0 0.37665864E+04</rscale>
<asrwt>0</asrwt>
<pdfrwt beam="1">  1        2 0.26970618E+00 0.37665864E+04</pdfrwt>
<pdfrwt beam="2">  1       -2 0.31125638E+00 0.37665864E+04</pdfrwt>
<totfact> 0.19967903E-01</totfact>
</mgrwt>
</event>
<event>
 6    1  0.5026615E-004  0.2889455E+04  0.7818608E-02  0.8276022E-01
          2   -1    0    0  501    0  0.00000000000E+00  0.00000000000E+00  0.41618578713E+03  0.41618578713E+03  0.00000000000E+00 0.  1.
         -2   -1    0    0    0  501 -0.00000000000E+00 -0.00000000000E+00 -0.50151585846E+04  0.50151585846E+04  0.00000000000E+00 0. -1.
         23    2    1    2    0    0  0.16488613428E+03  0.94054587685E+03 -0.43360495417E+04  0.44409188964E+04  0.92849517362E+02 0.  0.
         13    1    3    3    0    0  0.82088460336E+02  0.67238963494E+03 -0.29555494095E+04  0.30321805106E+04  0.00000000000E+00 0.  1.
        -13    1    3    3    0    0  0.82797673944E+02  0.26815624191E+03 -0.13805001322E+04  0.14087383859E+04  0.00000000000E+00 0. -1.
         22    1    1    2    0    0 -0.16488613428E+03 -0.94054587685E+03 -0.26292325579E+03  0.99042547532E+03  0.00000000000E+00 0.  1.
<mgrwt>
<rscale>  0 0.28894551E+04</rscale>
<asrwt>0</asrwt>
<pdfrwt beam="1">  1        2 0.64028584E-01 0.28894551E+04</pdfrwt>
<pdfrwt beam="2">  1       -2 0.77156285E+00 0.28894551E+04</pdfrwt>
<totfact> 0.74224457E-03</totfact>
</mgrwt>
</event>
<event>
 6    1  0.5026615E-004  0.1940750E+04  0.7818608E-02  0.8634834E-01
          2   -1    0    0  501    0  0.00000000000E+00  0.00000000000E+00  0.22386510219E+04  0.22386510219E+04  0.00000000000E+00 0.  1.
         -2   -1    0    0    0  501 -0.00000000000E+00 -0.00000000000E+00 -0.42062257911E+03  0.42062257911E+03  0.00000000000E+00 0. -1.
         23    2    1    2    0    0  0.33533731244E+02  0.65601043455E+03 -0.63559856134E+02  0.66632384548E+03  0.92051129120E+02 0.  0.
         11    1    3    3    0    0  0.31057126847E+02  0.42703421971E+03  0.18833352431E+01  0.42816622576E+03  0.00000000000E+00 0. -1.
        -11    1    3    3    0    0  0.24766043979E+01  0.22897621485E+03 -0.65443191377E+02  0.23815761972E+03  0.00000000000E+00 0.  1.
         22    1    1    2    0    0 -0.33533731244E+02 -0.65601043455E+03  0.18815882989E+04  0.19929497555E+04  0.00000000000E+00 0.  1.
<mgrwt>
<rscale>  0 0.19407495E+04</rscale>
<asrwt>0</asrwt>
<pdfrwt beam="1">  1        2 0.34440784E+00 0.19407495E+04</pdfrwt>
<pdfrwt beam="2">  1       -2 0.64711167E-01 0.19407495E+04</pdfrwt>
<totfact> 0.10106576E+01</totfact>
</mgrwt>
</event>
<event>
 6    1  0.5026615E-004  0.1434388E+04  0.7818608E-02  0.8929296E-01
         -2   -1    0    0    0  501 -0.00000000000E+00  0.00000000000E+00  0.19617951896E+03  0.19617951896E+03  0.00000000000E+00 0. -1.
          2   -1    0    0  501    0  0.00000000000E+00 -0.00000000000E+00 -0.26219211232E+04  0.26219211232E+04  0.00000000000E+00 0.  1.
         23    2    1    2    0    0 -0.12500223914E+03  0.70318194267E+03 -0.12000013030E+04  0.13994640818E+04  0.91685248460E+02 0.  0.
         11    1    3    3    0    0 -0.77488070127E+02  0.34878631028E+03 -0.51574791291E+03  0.62741708689E+03  0.00000000000E+00 0. -1.
        -11    1    3    3    0    0 -0.47514169017E+02  0.35439563240E+03 -0.68425339010E+03  0.77204699493E+03  0.00000000000E+00 0.  1.
         22    1    1    2    0    0  0.12500223914E+03 -0.70318194267E+03 -0.12257403012E+04  0.14186365603E+04  0.00000000000E+00 0. -1.
<mgrwt>
<rscale>  0 0.14343880E+04</rscale>
<asrwt>0</asrwt>
<pdfrwt beam="1">  1        2 0.40337248E+00 0.14343880E+04</pdfrwt>
<pdfrwt beam="2">  1       -2 0.30181464E-01 0.14343880E+04</pdfrwt>
<totfact> 0.29209610E+01</totfact>
</mgrwt>
</event>
<event>
 6    1  0.5026615E-004  0.1676870E+04  0.7818608E-02  0.8774667E-01
         -2   -1    0    0    0  501 -0.00000000000E+00  0.00000000000E+00  0.47452016063E+03  0.47452016063E+03  0.00000000000E+00 0. -1.
          2   -1    0    0  501    0  0.00000000000E+00 -0.00000000000E+00 -0.14814407965E+04  0.14814407965E+04  0.00000000000E+00 0.  1.
         23    2    1    2    0    0  0.47613125803E+03 -0.60647371140E+03 -0.88180046523E+03  0.11748294736E+04  0.90226903058E+02 0.  0.
         13    1    3    3    0    0  0.31256354077E+03 -0.45825716922E+03 -0.60524099563E+03  0.82098249856E+03  0.00000000000E+00 0.  1.
        -13    1    3    3    0    0  0.16356771727E+03 -0.14821654218E+03 -0.27655946961E+03  0.35384697503E+03  0.00000000000E+00 0. -1.
         22    1    1    2    0    0 -0.47613125803E+03  0.60647371140E+03 -0.12512017065E+03  0.78113148355E+03  0.00000000000E+00 0.  1.
<mgrwt>
<rscale>  0 0.16768703E+04</rscale>
<asrwt>0</asrwt>
<pdfrwt beam="1">  1        2 0.22791396E+00 0.16768703E+04</pdfrwt>
<pdfrwt beam="2">  1       -2 0.73003103E-01 0.16768703E+04</pdfrwt>
<totfact> 0.21012589E+01</totfact>
</mgrwt>
</event>
<event>
 6    1  0.5026615E-004  0.1060328E+04  0.7818608E-02  0.9244745E-01
         -2   -1    0    0    0  501 -0.00000000000E+00  0.00000000000E+00  0.27970928696E+03  0.27970928696E+03  0.00000000000E+00 0. -1.
          2   -1    0    0  501    0  0.00000000000E+00 -0.00000000000E+00 -0.10048794014E+04  0.10048794014E+04  0.00000000000E+00 0.  1.
         23    2    1    2    0    0  0.17696368383E+03  0.48893085504E+03 -0.26990061336E+03  0.59347375938E+03  0.94843215804E+02 0.  0.
         13    1    3    3    0    0  0.58527264624E+02  0.29922368965E+03 -0.15777300396E+03  0.34329663256E+03  0.00000000000E+00 0.  1.
        -13    1    3    3    0    0  0.11843641921E+03  0.18970716539E+03 -0.11212760940E+03  0.25017712682E+03  0.00000000000E+00 0. -1.
         22    1    1    2    0    0 -0.17696368383E+03 -0.48893085504E+03 -0.45526950104E+03  0.69111492892E+03  0.00000000000E+00 0.  1.
<mgrwt>
<rscale>  0 0.10603284E+04</rscale>
<asrwt>0</asrwt>
<pdfrwt beam="1">  1        2 0.15459683E+00 0.10603284E+04</pdfrwt>
<pdfrwt beam="2">  1       -2 0.43032197E-01 0.10603284E+04</pdfrwt>
<totfact> 0.12733822E+02</totfact>
</mgrwt>
</event>
<event>
 6    1  0.5026615E-004  0.3992657E+04  0.7818608E-02  0.8006029E-01
          3   -1    0    0  501    0  0.00000000000E+00  0.00000000000E+00  0.27962285280E+04  0.27962285280E+04  0.00000000000E+00 0.  1.
         -3   -1    0    0    0  501 -0.00000000000E+00 -0.00000000000E+00 -0.14252512791E+04  0.14252512791E+04  0.00000000000E+00 0. -1.
         23    2    1    2    0    0  0.57412464567E+03  0.18893032607E+04  0.38277135771E+03  0.20133953878E+04  0.90339114861E+02 0.  0.
         11    1    3    3    0    0  0.14904248703E+03  0.60347442904E+03  0.93916402218E+02  0.62866154650E+03  0.00000000000E+00 0.  1.
        -11    1    3    3    0    0  0.42508215864E+03  0.12858288316E+04  0.28885495549E+03  0.13847338413E+04  0.00000000000E+00 0. -1.
         22    1    1    2    0    0 -0.57412464567E+03 -0.18893032607E+04  0.98820589123E+03  0.22080844194E+04  0.00000000000E+00 0.  1.
<mgrwt>
<rscale>  0 0.39926574E+04</rscale>
<asrwt>0</asrwt>
<pdfrwt beam="1">  1        3 0.43018900E+00 0.39926574E+04</pdfrwt>
<pdfrwt beam="2">  1       -3 0.21926943E+00 0.39926574E+04</pdfrwt>
<totfact> 0.17478881E-03</totfact>
</mgrwt>
</event>
<event>
 6    1  0.5026615E-004  0.2095340E+04  0.7818608E-02  0.8563299E-01
         -2   -1    0    0    0  501 -0.00000000000E+00  0.00000000000E+00  0.33765169127E+03  0.33765169127E+03  0.00000000000E+00 0. -1.
          2   -1    0    0  501    0  0.00000000000E+00 -0.00000000000E+00 -0.32507235941E+04  0.32507235941E+04  0.00000000000E+00 0.  1.
         23    2    1    2    0    0 -0.58592491158E+03  0.16190121260E+03 -0.21149276598E+01  0.61462504099E+03  0.90771490190E+02 0.  0.
         13    1    3    3    0    0 -0.15420466973E+03  0.32270925996E+02 -0.39173048782E+02  0.16234229450E+03  0.00000000000E+00 0. -1.
        -13    1    3    3    0    0 -0.43172024185E+03  0.12963028660E+03  0.37058121122E+02  0.45228274649E+03  0.00000000000E+00 0.  1.
         22    1    1    2    0    0  0.58592491158E+03 -0.16190121260E+03 -0.29109569752E+04  0.29737502444E+04  0.00000000000E+00 0.  1.
<mgrwt>
<rscale>  0 0.20953399E+04</rscale>
<asrwt>0</asrwt>
<pdfrwt beam="1">  1        2 0.50011134E+00 0.20953399E+04</pdfrwt>
<pdfrwt beam="2">  1       -2 0.51946412E-01 0.20953399E+04</pdfrwt>
<totfact> 0.38861226E+00</totfact>
</mgrwt>
</event>
<event>
 6    1  0.5026615E-004  0.7222438E+04  0.7818608E-02  0.7554920E-01
         -2   -1    0    0    0  501 -0.00000000000E+00  0.00000000000E+00  0.38789333974E+04  0.38789333974E+04  0.00000000000E+00 0. -1.
          2   -1    0    0  501    0  0.00000000000E+00 -0.00000000000E+00 -0.33619811446E+04  0.33619811446E+04  0.00000000000E+00 0.  1.
         23    2    1    2    0    0 -0.18070050900E+04 -0.28359220814E+04  0.15767847649E+04  0.37151569779E+04  0.91759076888E+02 0.  0.
         11    1    3    3    0    0 -0.16200144100E+04 -0.25736131056E+04  0.14488698282E+04  0.33685538269E+04  0.00000000000E+00 0.  1.
        -11    1    3    3    0    0 -0.18699067996E+03 -0.26230897585E+03  0.12791493670E+03  0.34660315093E+03  0.00000000000E+00 0. -1.
         22    1    1    2    0    0  0.18070050900E+04  0.28359220814E+04 -0.10598325121E+04  0.35257575641E+04  0.00000000000E+00 0.  1.
<mgrwt>
<rscale>  0 0.72224375E+04</rscale>
<asrwt>0</asrwt>
<pdfrwt beam="1">  1        2 0.51722787E+00 0.72224375E+04</pdfrwt>
<pdfrwt beam="2">  1       -2 0.59675898E+00 0.72224375E+04</pdfrwt>
<totfact> 0.33416648E-04</totfact>
</mgrwt>
</event>
<event>
 6    1  0.5026615E-004  0.7621930E+03  0.7818608E-02  0.9616413E-01
          2   -1    0    0  501    0  0.00000000000E+00  0.00000000000E+00  0.22215327519E+04  0.22215327519E+04  0.00000000000E+00 0.  1.
         -2   -1    0    0    0  501 -0.00000000000E+00 -0.00000000000E+00 -0.65375829620E+02  0.65375829620E+02  0.00000000000E+00 0. -1.
         23    2    1    2    0    0  0.99716599584E+02 -0.33466218969E+03  0.15088968816E+04  0.15514578750E+04  0.91156772766E+02 0.  0.
         13    1    3    3    0    0  0.10390435580E+03 -0.19929546730E+03  0.89342994923E+03  0.92126645040E+03  0.00000000000E+00 0. -1.
        -13    1    3    3    0    0 -0.41877562141E+01 -0.13536672239E+03  0.61546693232E+03  0.63019142458E+03  0.00000000000E+00 0.  1.
         22    1    1    2    0    0 -0.99716599584E+02  0.33466218969E+03  0.64726004078E+03  0.73545070660E+03  0.00000000000E+00 0. -1.
<mgrwt>
<rscale>  0 0.76219301E+03</rscale>
<asrwt>0</asrwt>
<pdfrwt beam="1">  1        2 0.34177421E+00 0.76219301E+03</pdfrwt>
<pdfrwt beam="2">  1       -2 0.10057822E-01 0.76219301E+03</pdfrwt>
<totfact> 0.35120020E+02</totfact>
</mgrwt>
</event>
<event>
 6    1  0.5026615E-004  0.1852315E+04  0.7818608E-02  0.8678963E-01
         -2   -1    0    0    0  501 -0.00000000000E+00  0.00000000000E+00  0.50571373441E+03  0.50571373441E+03  0.00000000000E+00 0. -1.
          2   -1    0    0  501    0  0.00000000000E+00 -0.00000000000E+00 -0.16961526972E+04  0.16961526972E+04  0.00000000000E+00 0.  1.
         23    2    1    2    0    0 -0.26992836729E+03 -0.83924350592E+03 -0.26825419904E+03  0.92608599432E+03  0.92108457058E+02 0.  0.
         11    1    3    3    0    0 -0.21100368717E+03 -0.51132703903E+03 -0.17270805207E+03  0.57948767725E+03  0.00000000000E+00 0.  1.
        -11    1    3    3    0    0 -0.58924680122E+02 -0.32791646690E+03 -0.95546146968E+02  0.34659831706E+03  0.00000000000E+00 0. -1.
         22    1    1    2    0    0  0.26992836729E+03  0.83924350592E+03 -0.92218476373E+03  0.12757804373E+04  0.00000000000E+00 0.  1.
<mgrwt>
<rscale>  0 0.18523150E+04</rscale>
<asrwt>0</asrwt>
<pdfrwt beam="1">  1        2 0.26094656E+00 0.18523150E+04</pdfrwt>
<pdfrwt beam="2">  1       -2 0.77802114E-01 0.18523150E+04</pdfrwt>
<totfact> 0.13632732E+01</totfact>
</mgrwt>
</event>
<event>
 6    1  0.5026615E-004  0.2616096E+04  0.7818608E-02  0.8362754E-01
         -2   -1    0    0    0  501 -0.00000000000E+00  0.00000000000E+00  0.26359998093E+04  0.26359998093E+04  0.00000000000E+00 0. -1.
          2   -1    0    0  501    0  0.00000000000E+00 -0.00000000000E+00 -0.64908547824E+03  0.64908547824E+03  0.00000000000E+00 0.  1.
         23    2    1    2    0    0  0.88329918869E+03 -0.49392117595E+03 -0.42978987908E+02  0.10169048558E+04  0.89848246885E+02 0.  0.
         11    1    3    3    0    0  0.53588152700E+03 -0.32098755272E+03 -0.66032982859E+02  0.62814200210E+03  0.00000000000E+00 0.  1.
        -11    1    3    3    0    0  0.34741766169E+03 -0.17293362323E+03  0.23053994952E+02  0.38876285365E+03  0.00000000000E+00 0. -1.
         22    1    1    2    0    0 -0.88329918869E+03  0.49392117595E+03  0.20298933190E+04  0.22681804318E+04  0.00000000000E+00 0. -1.
<mgrwt>
<rscale>  0 0.26160957E+04</rscale>
<asrwt>0</asrwt>
<pdfrwt beam="1">  1        2 0.99859305E-01 0.26160957E+04</pdfrwt>
<pdfrwt beam="2">  1       -2 0.40553843E+00 0.26160957E+04</pdfrwt>
<totfact> 0.27162113E-01</totfact>
</mgrwt>
</event>
<event>
 6    1  0.5026615E-004  0.1939136E+04  0.7818608E-02  0.8635618E-01
          2   -1    0    0  501    0  0.00000000000E+00  0.00000000000E+00  0.12069727651E+04  0.12069727651E+04  0.00000000000E+00 0.  1.
         -2   -1    0    0    0  501 -0.00000000000E+00 -0.00000000000E+00 -0.77885920605E+03  0.77885920605E+03  0.00000000000E+00 0. -1.
         23    2    1    2    0    0  0.49778160897E+03  0.80097547304E+03  0.43464945485E+03  0.10427567056E+04  0.95253135034E+02 0.  0.
         13    1    3    3    0    0  0.29199518785E+03  0.40238284414E+03  0.26312795112E+03  0.56250285479E+03  0.00000000000E+00 0.  1.
        -13    1    3    3    0    0  0.20578642111E+03  0.39859262890E+03  0.17152150373E+03  0.48025385076E+03  0.00000000000E+00 0. -1.
         22    1    1    2    0    0 -0.49778160897E+03 -0.80097547304E+03 -0.65358958116E+01  0.94307526559E+03  0.00000000000E+00 0.  1.
<mgrwt>
<rscale>  0 0.19391357E+04</rscale>
<asrwt>0</asrwt>
<pdfrwt beam="1">  1        2 0.18568812E+00 0.19391357E+04</pdfrwt>
<pdfrwt beam="2">  1       -2 0.11982449E+00 0.19391357E+04</pdfrwt>
<totfact> 0.93358028E+00</totfact>
</mgrwt>
</event>
<event>
 6    1  0.5026615E-004  0.4886969E+04  0.7818608E-02  0.7846184E-01
          2   -1    0    0  501    0  0.00000000000E+00  0.00000000000E+00  0.35429468152E+04  0.35429468152E+04  0.00000000000E+00 0.  1.
         -2   -1    0    0    0  501 -0.00000000000E+00 -0.00000000000E+00 -0.16852119285E+04  0.16852119285E+04  0.00000000000E+00 0. -1.
         23    2    1    2    0    0  0.81553989826E+03 -0.22842626766E+04  0.61961625733E+03  0.25049439080E+04  0.88647474748E+02 0.  0.
         11    1    3    3    0    0  0.22228678010E+03 -0.51630136981E+03  0.15484977608E+03  0.58305829059E+03  0.00000000000E+00 0. -1.
        -11    1    3    3    0    0  0.59325311817E+03 -0.17679613068E+04  0.46476648125E+03  0.19218856174E+04  0.00000000000E+00 0.  1.
         22    1    1    2    0    0 -0.81553989826E+03  0.22842626766E+04  0.12381186293E+04  0.27232148357E+04  0.00000000000E+00 0. -1.
<mgrwt>
<rscale>  0 0.48869689E+04</rscale>
<asrwt>0</asrwt>
<pdfrwt beam="1">  1        2 0.54506874E+00 0.48869689E+04</pdfrwt>
<pdfrwt beam="2">  1       -2 0.25926337E+00 0.48869689E+04</pdfrwt>
<totfact> 0.31334062E-02</totfact>
</mgrwt>
</event>
<event>
 6    1  0.5026615E-004  0.5015584E+03  0.7818608E-02  0.1013373E+00
         -2   -1    0    0    0  501 -0.00000000000E+00  0.00000000000E+00  0.75955457165E+02  0.75955457165E+02  0.00000000000E+00 0. -1.
          2   -1    0    0  501    0  0.00000000000E+00 -0.00000000000E+00 -0.82798789310E+03  0.82798789310E+03  0.00000000000E+00 0.  1.
         23    2    1    2    0    0 -0.20878820560E+03 -0.83881328002E+02 -0.22188245080E+03  0.32802009260E+03  0.87958894892E+02 0.  0.
         11    1    3    3    0    0 -0.17243386774E+03 -0.97418822720E+02 -0.20696327315E+03  0.28645708614E+03  0.00000000000E+00 0.  1.
        -11    1    3    3    0    0 -0.36354337863E+02  0.13537494718E+02 -0.14919177649E+02  0.41563006465E+02  0.00000000000E+00 0. -1.
         22    1    1    2    0    0  0.20878820560E+03  0.83881328002E+02 -0.53014998513E+03  0.57592325766E+03  0.00000000000E+00 0.  1.
<mgrwt>
<rscale>  0 0.50155837E+03</rscale>
<asrwt>0</asrwt>
<pdfrwt beam="1">  1        2 0.12738275E+00 0.50155837E+03</pdfrwt>
<pdfrwt beam="2">  1       -2 0.11685455E-01 0.50155837E+03</pdfrwt>
<totfact> 0.17542544E+03</totfact>
</mgrwt>
</event>
<event>
 6    1  0.5026615E-004  0.3529514E+04  0.7818608E-02  0.8106831E-01
         -2   -1    0    0    0  501 -0.00000000000E+00  0.00000000000E+00  0.23621121714E+04  0.23621121714E+04  0.00000000000E+00 0. -1.
          2   -1    0    0  501    0  0.00000000000E+00 -0.00000000000E+00 -0.13184671654E+04  0.13184671654E+04  0.00000000000E+00 0.  1.
         23    2    1    2    0    0  0.10409396870E+04 -0.17699467404E+03 -0.95019935521E+03  0.14244104860E+04  0.10575382409E+03 0.  0.
         13    1    3    3    0    0  0.71453431695E+03 -0.97932931494E+02 -0.70527581016E+03  0.10087438315E+04  0.00000000000E+00 0.  1.
        -13    1    3    3    0    0  0.32640537009E+03 -0.79061742550E+02 -0.24492354505E+03  0.41566665451E+03  0.00000000000E+00 0. -1.
         22    1    1    2    0    0 -0.10409396870E+04  0.17699467404E+03  0.19938443612E+04  0.22561688508E+04  0.00000000000E+00 0. -1.
<mgrwt>
<rscale>  0 0.35295140E+04</rscale>
<asrwt>0</asrwt>
<pdfrwt beam="1">  1        2 0.20284110E+00 0.35295140E+04</pdfrwt>
<pdfrwt beam="2">  1       -2 0.36340187E+00 0.35295140E+04</pdfrwt>
<totfact> 0.16903426E-01</totfact>
</mgrwt>
</event>
<event>
 6    1  0.5026615E-004  0.1069678E+04  0.7818608E-02  0.9235260E-01
         -1   -1    0    0    0  501 -0.00000000000E+00  0.00000000000E+00  0.22648071802E+03  0.22648071802E+03  0.00000000000E+00 0.  1.
          1   -1    0    0  501    0  0.00000000000E+00 -0.00000000000E+00 -0.12630334597E+04  0.12630334597E+04  0.00000000000E+00 0. -1.
         23    2    1    2    0    0  0.42914961595E+03  0.30708254880E+03 -0.44120291090E+03  0.69395745086E+03  0.91912188346E+02 0.  0.
         11    1    3    3    0    0  0.17548513970E+03  0.13187777710E+03 -0.24291314214E+03  0.32740430201E+03  0.00000000000E+00 0.  1.
        -11    1    3    3    0    0  0.25366447625E+03  0.17520477170E+03 -0.19828976876E+03  0.36655314885E+03  0.00000000000E+00 0. -1.
         22    1    1    2    0    0 -0.42914961595E+03 -0.30708254880E+03 -0.59534983077E+03  0.79555672685E+03  0.00000000000E+00 0. -1.
<mgrwt>
<rscale>  0 0.10696779E+04</rscale>
<asrwt>0</asrwt>
<pdfrwt beam="1">  1        1 0.19431284E+00 0.10696779E+04</pdfrwt>
<pdfrwt beam="2">  1       -1 0.34843187E-01 0.10696779E+04</pdfrwt>
<totfact> 0.75043124E+01</totfact>
</mgrwt>
</event>
<event>
 6    1  0.5026615E-004  0.1590333E+04  0.7818608E-02  0.8826509E-01
         -2   -1    0    0    0  501 -0.00000000000E+00  0.00000000000E+00  0.45227787868E+03  0.45227787868E+03  0.00000000000E+00 0. -1.
          2   -1    0    0  501    0  0.00000000000E+00 -0.00000000000E+00 -0.13980124972E+04  0.13980124972E+04  0.00000000000E+00 0.  1.
         23    2    1    2    0    0 -0.58350268085E+02 -0.47458273431E+03  0.26096319640E+03  0.55230996693E+03  0.91164599507E+02 0.  0.
         11    1    3    3    0    0  0.13208357494E+02 -0.23867151297E+03  0.10904294333E+03  0.26273354431E+03  0.00000000000E+00 0.  1.
        -11    1    3    3    0    0 -0.71558625579E+02 -0.23591122134E+03  0.15192025307E+03  0.28957642262E+03  0.00000000000E+00 0. -1.
         22    1    1    2    0    0  0.58350268085E+02  0.47458273431E+03 -0.12066978149E+04  0.12979804089E+04  0.00000000000E+00 0.  1.
<mgrwt>
<rscale>  0 0.15903335E+04</rscale>
<asrwt>0</asrwt>
<pdfrwt beam="1">  1        2 0.21507884E+00 0.15903335E+04</pdfrwt>
<pdfrwt beam="2">  1       -2 0.69581214E-01 0.15903335E+04</pdfrwt>
<totfact> 0.26222668E+01</totfact>
</mgrwt>
</event>
<event>
 6    1  0.5026615E-004  0.1276183E+04  0.7818608E-02  0.9048668E-01
          2   -1    0    0  501    0  0.00000000000E+00  0.00000000000E+00  0.88133330308E+03  0.88133330308E+03  0.00000000000E+00 0.  1.
         -2   -1    0    0    0  501 -0.00000000000E+00 -0.00000000000E+00 -0.46198273539E+03  0.46198273539E+03  0.00000000000E+00 0. -1.
         23    2    1    2    0    0 -0.28766003374E+03 -0.37217759155E+03 -0.23780931579E+03  0.53515543121E+03  0.92593791459E+02 0.  0.
         11    1    3    3    0    0 -0.89491734494E+02 -0.17066125141E+03 -0.13101855805E+03  0.23302338043E+03  0.00000000000E+00 0. -1.
        -11    1    3    3    0    0 -0.19816829924E+03 -0.20151634014E+03 -0.10679075774E+03  0.30213205078E+03  0.00000000000E+00 0.  1.
         22    1    1    2    0    0  0.28766003374E+03  0.37217759155E+03  0.65715988348E+03  0.80816060726E+03  0.00000000000E+00 0.  1.
<mgrwt>
<rscale>  0 0.12761830E+04</rscale>
<asrwt>0</asrwt>
<pdfrwt beam="1">  1        2 0.13558974E+00 0.12761830E+04</pdfrwt>
<pdfrwt beam="2">  1       -2 0.71074267E-01 0.12761830E+04</pdfrwt>
<totfact> 0.53314526E+01</totfact>
</mgrwt>
</event>
<event>
 6    1  0.5026615E-004  0.1783030E+04  0.7818608E-02  0.8715376E-01
         -2   -1    0    0    0  501 -0.00000000000E+00  0.00000000000E+00  0.28720220911E+03  0.28720220911E+03  0.00000000000E+00 0. -1.
          2   -1    0    0  501    0  0.00000000000E+00 -0.00000000000E+00 -0.27673842059E+04  0.27673842059E+04  0.00000000000E+00 0.  1.
         23    2    1    2    0    0 -0.62680417846E+03 -0.35072961872E+03 -0.21411793537E+04  0.22603461896E+04  0.92850033407E+02 0.  0.
         11    1    3    3    0    0 -0.43364307882E+03 -0.24468343827E+03 -0.13437871491E+04  0.14330667141E+04  0.00000000000E+00 0. -1.
        -11    1    3    3    0    0 -0.19316109964E+03 -0.10604618045E+03 -0.79739220459E+03  0.82727947559E+03  0.00000000000E+00 0.  1.
         22    1    1    2    0    0  0.62680417846E+03  0.35072961872E+03 -0.33900264309E+03  0.79424022538E+03  0.00000000000E+00 0. -1.
<mgrwt>
<rscale>  0 0.17830298E+04</rscale>
<asrwt>0</asrwt>
<pdfrwt beam="1">  1        2 0.42575141E+00 0.17830298E+04</pdfrwt>
<pdfrwt beam="2">  1       -2 0.44184956E-01 0.17830298E+04</pdfrwt>
<totfact> 0.11139613E+01</totfact>
</mgrwt>
</event>
<event>
 6    1  0.6147869E-004  0.3282282E+04  0.7818608E-02  0.8167418E-01
         -2   -1    0    0    0  501 -0.00000000000E+00  0.00000000000E+00  0.13346135549E+04  0.13346135549E+04  0.00000000000E+00 0. -1.
          2   -1    0    0  501    0  0.00000000000E+00 -0.00000000000E+00 -0.20180702632E+04  0.20180702632E+04  0.00000000000E+00 0.  1.
         23    2    1    2    0    0 -0.11741964193E+04  0.62714012778E+03 -0.13207519338E+04  0.18768155396E+04  0.77517276358E+02 0.  0.
         11    1    3    3    0    0 -0.91130765745E+03  0.47869276248E+03 -0.97545917220E+03  0.14181498525E+04  0.00000000000E+00 0.  1.
        -11    1    3    3    0    0 -0.26288876190E+03  0.14844736530E+03 -0.34529276157E+03  0.45866568717E+03  0.00000000000E+00 0. -1.
         22    1    1    2    0    0  0.11741964193E+04 -0.62714012778E+03  0.63729522538E+03  0.14758682785E+04  0.00000000000E+00 0. -1.
<mgrwt>
<rscale>  0 0.32822821E+04</rscale>
<asrwt>0</asrwt>
<pdfrwt beam="1">  1        2 0.31047235E+00 0.32822821E+04</pdfrwt>
<pdfrwt beam="2">  1       -2 0.20532516E+00 0.32822821E+04</pdfrwt>
<totfact> 0.67035751E-01</totfact>
</mgrwt>
</event>
<event>
 6    1  0.5026615E-004  0.1893802E+04  0.7818608E-02  0.8657947E-01
          2   -1    0    0  501    0  0.00000000000E+00  0.00000000000E+00  0.14168391013E+04  0.14168391013E+04  0.00000000000E+00 0.  1.
         -2   -1    0    0    0  501 -0.00000000000E+00 -0.00000000000E+00 -0.63283255701E+03  0.63283255701E+03  0.00000000000E+00 0. -1.
         23    2    1    2    0    0  0.88622674666E+03  0.91991458403E+02  0.53767041213E+02  0.89766905120E+03  0.95176445861E+02 0.  0.
         13    1    3    3    0    0  0.51473615844E+03  0.10042412706E+03  0.27842034320E+02  0.52517949025E+03  0.00000000000E+00 0.  1.
        -13    1    3    3    0    0  0.37149058822E+03 -0.84326686544E+01  0.25925006893E+02  0.37248956095E+03  0.00000000000E+00 0. -1.
         22    1    1    2    0    0 -0.88622674666E+03 -0.91991458403E+02  0.73023950306E+03  0.11520026071E+04  0.00000000000E+00 0.  1.
<mgrwt>
<rscale>  0 0.18938024E+04</rscale>
<asrwt>0</asrwt>
<pdfrwt beam="1">  1        2 0.21797524E+00 0.18938024E+04</pdfrwt>
<pdfrwt beam="2">  1       -2 0.97358856E-01 0.18938024E+04</pdfrwt>
<totfact> 0.11670373E+01</totfact>
</mgrwt>
</event>
<event>
 6    1  0.5026615E-004  0.9424887E+03  0.7818608E-02  0.9373973E-01
         -2   -1    0    0    0  501 -0.00000000000E+00  0.00000000000E+00  0.97885039718E+02  0.97885039718E+02  0.00000000000E+00 0. -1.
          2   -1    0    0  501    0  0.00000000000E+00 -0.00000000000E+00 -0.22686944160E+04  0.22686944160E+04  0.00000000000E+00 0.  1.
         23    2    1    2    0    0 -0.35323939239E+03 -0.27987330042E+03 -0.79529289642E+03  0.91911521817E+03  0.95785492346E+02 0.  0.
         13    1    3    3    0    0 -0.15091037399E+03 -0.61898044798E+02 -0.26810748775E+03  0.31382627984E+03  0.00000000000E+00 0. -1.
        -13    1    3    3    0    0 -0.20232901840E+03 -0.21797525562E+03 -0.52718540867E+03  0.60528893833E+03  0.00000000000E+00 0.  1.
         22    1    1    2    0    0  0.35323939239E+03  0.27987330042E+03 -0.13755164799E+04  0.14474642376E+04  0.00000000000E+00 0.  1.
<mgrwt>
<rscale>  0 0.94248871E+03</rscale>
<asrwt>0</asrwt>
<pdfrwt beam="1">  1        2 0.34902991E+00 0.94248871E+03</pdfrwt>
<pdfrwt beam="2">  1       -2 0.15059237E-01 0.94248871E+03</pdfrwt>
<totfact> 0.16658838E+02</totfact>
</mgrwt>
</event>
<event>
 6    1  0.5026615E-004  0.3245137E+04  0.7818608E-02  0.8176997E-01
          2   -1    0    0  501    0  0.00000000000E+00  0.00000000000E+00  0.19905554946E+04  0.19905554946E+04  0.00000000000E+00 0.  1.
         -2   -1    0    0    0  501 -0.00000000000E+00 -0.00000000000E+00 -0.13226097230E+04  0.13226097230E+04  0.00000000000E+00 0. -1.
         23    2    1    2    0    0  0.16929412765E+03 -0.16067301275E+04  0.47240617059E+03  0.16857507222E+04  0.91354820311E+02 0.  0.
         11    1    3    3    0    0  0.13204371369E+03 -0.86230618778E+03  0.27546207745E+03  0.91481520534E+03  0.00000000000E+00 0.  1.
        -11    1    3    3    0    0  0.37250413954E+02 -0.74442393975E+03  0.19694409314E+03  0.77093551691E+03  0.00000000000E+00 0. -1.
         22    1    1    2    0    0 -0.16929412765E+03  0.16067301275E+04  0.19553960101E+03  0.16274144954E+04  0.00000000000E+00 0.  1.
<mgrwt>
<rscale>  0 0.32451367E+04</rscale>
<asrwt>0</asrwt>
<pdfrwt beam="1">  1        2 0.30623931E+00 0.32451367E+04</pdfrwt>
<pdfrwt beam="2">  1       -2 0.20347842E+00 0.32451367E+04</pdfrwt>
<totfact> 0.71607370E-01</totfact>
</mgrwt>
</event>
<event>
 6    1  0.5026615E-004  0.4398284E+04  0.7818608E-02  0.7928690E-01
          2   -1    0    0  501    0  0.00000000000E+00  0.00000000000E+00  0.43742623757E+04  0.43742623757E+04  0.00000000000E+00 0. -1.
         -2   -1    0    0    0  501 -0.00000000000E+00 -0.00000000000E+00 -0.11056095518E+04  0.11056095518E+04  0.00000000000E+00 0.  1.
         23    2    1    2    0    0  0.50979414598E+03 -0.18345513846E+04  0.26633759779E+03  0.19246833853E+04  0.89451459382E+02 0.  0.
         13    1    3    3    0    0  0.41701063030E+02 -0.22111786839E+03  0.96509717007E+01  0.22522262682E+03  0.00000000000E+00 0. -1.
        -13    1    3    3    0    0  0.46809308295E+03 -0.16134335162E+04  0.25668662609E+03  0.16994607584E+04  0.00000000000E+00 0.  1.
         22    1    1    2    0    0 -0.50979414598E+03  0.18345513846E+04  0.30023152261E+04  0.35551885422E+04  0.00000000000E+00 0. -1.
<mgrwt>
<rscale>  0 0.43982843E+04</rscale>
<asrwt>0</asrwt>
<pdfrwt beam="1">  1        2 0.67296344E+00 0.43982843E+04</pdfrwt>
<pdfrwt beam="2">  1       -2 0.17009378E+00 0.43982843E+04</pdfrwt>
<totfact> 0.26184936E-02</totfact>
</mgrwt>
</event>
<event>
 6    1  0.5026615E-004  0.1618945E+04  0.7818608E-02  0.8808993E-01
         -2   -1    0    0    0  501 -0.00000000000E+00  0.00000000000E+00  0.11648833144E+04  0.11648833144E+04  0.00000000000E+00 0. -1.
          2   -1    0    0  501    0  0.00000000000E+00 -0.00000000000E+00 -0.56249886033E+03  0.56249886033E+03  0.00000000000E+00 0.  1.
         23    2    1    2    0    0 -0.36967179162E+03  0.17889699757E+03 -0.43936907719E+03  0.60760014720E+03  0.86437165754E+02 0.  0.
         11    1    3    3    0    0 -0.20449792562E+03  0.10545135354E+03 -0.18339903044E+03  0.29423560952E+03  0.00000000000E+00 0. -1.
        -11    1    3    3    0    0 -0.16517386600E+03  0.73445644029E+02 -0.25597004676E+03  0.31336453768E+03  0.00000000000E+00 0.  1.
         22    1    1    2    0    0  0.36967179162E+03 -0.17889699757E+03  0.10417535312E+04  0.11197820275E+04  0.00000000000E+00 0. -1.
<mgrwt>
<rscale>  0 0.16189448E+04</rscale>
<asrwt>0</asrwt>
<pdfrwt beam="1">  1        2 0.86538286E-01 0.16189448E+04</pdfrwt>
<pdfrwt beam="2">  1       -2 0.17921282E+00 0.16189448E+04</pdfrwt>
<totfact> 0.94145703E+00</totfact>
</mgrwt>
</event>
<event>
 6    1  0.5026615E-004  0.2852884E+04  0.7818608E-02  0.8287036E-01
         -2   -1    0    0    0  501 -0.00000000000E+00  0.00000000000E+00  0.15282032236E+04  0.15282032236E+04  0.00000000000E+00 0. -1.
          2   -1    0    0  501    0  0.00000000000E+00 -0.00000000000E+00 -0.13314567189E+04  0.13314567189E+04  0.00000000000E+00 0.  1.
         23    2    1    2    0    0 -0.29575077475E+03  0.28499300995E+03  0.14661995050E+04  0.15254184140E+04  0.92037018592E+02 0.  0.
         11    1    3    3    0    0 -0.20697159007E+03  0.20738465407E+03  0.11810227674E+04  0.12168239030E+04  0.00000000000E+00 0. -1.
        -11    1    3    3    0    0 -0.88779184680E+02  0.77608355871E+02  0.28517673763E+03  0.30859451100E+03  0.00000000000E+00 0.  1.
         22    1    1    2    0    0  0.29575077475E+03 -0.28499300995E+03 -0.12694530003E+04  0.13342415285E+04  0.00000000000E+00 0.  1.
<mgrwt>
<rscale>  0 0.28528838E+04</rscale>
<asrwt>0</asrwt>
<pdfrwt beam="1">  1        2 0.20483949E+00 0.28528838E+04</pdfrwt>
<pdfrwt beam="2">  1       -2 0.23510819E+00 0.28528838E+04</pdfrwt>
<totfact> 0.10909068E+00</totfact>
</mgrwt>
</event>
<event>
 6    1  0.5026615E-004  0.2485287E+04  0.7818608E-02  0.8408246E-01
         -2   -1    0    0    0  501 -0.00000000000E+00  0.00000000000E+00  0.54621237445E+03  0.54621237445E+03  0.00000000000E+00 0. -1.
          2   -1    0    0  501    0  0.00000000000E+00 -0.00000000000E+00 -0.28270383370E+04  0.28270383370E+04  0.00000000000E+00 0.  1.
         23    2    1    2    0    0  0.81954678481E+03  0.50461880088E+03 -0.22051585884E+04  0.24078375262E+04  0.93059583178E+02 0.  0.
         13    1    3    3    0    0  0.43032404221E+03  0.21130416370E+03 -0.11153668560E+04  0.12140310764E+04  0.00000000000E+00 0.  1.
        -13    1    3    3    0    0  0.38922274260E+03  0.29331463718E+03 -0.10897917324E+04  0.11938064498E+04  0.00000000000E+00 0. -1.
         22    1    1    2    0    0 -0.81954678481E+03 -0.50461880088E+03 -0.75667374135E+02  0.96541318522E+03  0.00000000000E+00 0. -1.
<mgrwt>
<rscale>  0 0.24852874E+04</rscale>
<asrwt>0</asrwt>
<pdfrwt beam="1">  1        2 0.43492897E+00 0.24852874E+04</pdfrwt>
<pdfrwt beam="2">  1       -2 0.84032673E-01 0.24852874E+04</pdfrwt>
<totfact> 0.24589924E+00</totfact>
</mgrwt>
</event>
<event>
 6    1  0.5026615E-004  0.2084015E+04  0.7818608E-02  0.8568318E-01
          2   -1    0    0  501    0  0.00000000000E+00  0.00000000000E+00  0.11008358524E+04  0.11008358524E+04  0.00000000000E+00 0.  1.
         -2   -1    0    0    0  501 -0.00000000000E+00 -0.00000000000E+00 -0.98632284969E+03  0.98632284969E+03  0.00000000000E+00 0. -1.
         23    2    1    2    0    0 -0.24654004006E+03  0.40132126243E+03 -0.87148386159E+03  0.99444164656E+03  0.87116705527E+02 0.  0.
         11    1    3    3    0    0 -0.15506559707E+03  0.24809845179E+03 -0.45012955483E+03  0.53685640287E+03  0.00000000000E+00 0.  1.
        -11    1    3    3    0    0 -0.91474442999E+02  0.15322281064E+03 -0.42135430676E+03  0.45758524369E+03  0.00000000000E+00 0. -1.
         22    1    1    2    0    0  0.24654004006E+03 -0.40132126243E+03  0.98599686426E+03  0.10927170555E+04  0.00000000000E+00 0.  1.
<mgrwt>
<rscale>  0 0.20840149E+04</rscale>
<asrwt>0</asrwt>
<pdfrwt beam="1">  1        2 0.16935936E+00 0.20840149E+04</pdfrwt>
<pdfrwt beam="2">  1       -2 0.15174198E+00 0.20840149E+04</pdfrwt>
<totfact> 0.58342163E+00</totfact>
</mgrwt>
</event>
<event>
 6    1  0.5026615E-004  0.1508768E+04  0.7818608E-02  0.8878643E-01
         -2   -1    0    0    0  501 -0.00000000000E+00  0.00000000000E+00  0.34871723218E+03  0.34871723218E+03  0.00000000000E+00 0. -1.
          2   -1    0    0  501    0  0.00000000000E+00 -0.00000000000E+00 -0.16319672252E+04  0.16319672252E+04  0.00000000000E+00 0.  1.
         23    2    1    2    0    0  0.37323548307E+03 -0.40857819423E+03 -0.13116739733E+04  0.14265646244E+04  0.91417442222E+02 0.  0.
         13    1    3    3    0    0  0.21519028105E+03 -0.25994723614E+03 -0.68956795564E+03  0.76771308969E+03  0.00000000000E+00 0.  1.
        -13    1    3    3    0    0  0.15804520202E+03 -0.14863095809E+03 -0.62210601769E+03  0.65885153474E+03  0.00000000000E+00 0. -1.
         22    1    1    2    0    0 -0.37323548307E+03  0.40857819423E+03  0.28423980292E+02  0.55411983296E+03  0.00000000000E+00 0. -1.
<mgrwt>
<rscale>  0 0.15087678E+04</rscale>
<asrwt>0</asrwt>
<pdfrwt beam="1">  1        2 0.25107188E+00 0.15087678E+04</pdfrwt>
<pdfrwt beam="2">  1       -2 0.53648806E-01 0.15087678E+04</pdfrwt>
<totfact> 0.33824410E+01</totfact>
</mgrwt>
</event>
<event>
 6    1  0.5026615E-004  0.8380390E+03  0.7818608E-02  0.9506533E-01
         -2   -1    0    0    0  501 -0.00000000000E+00  0.00000000000E+00  0.33171977357E+03  0.33171977357E+03  0.00000000000E+00 0. -1.
          2   -1    0    0  501    0  0.00000000000E+00 -0.00000000000E+00 -0.52929411028E+03  0.52929411028E+03  0.00000000000E+00 0.  1.
         23    2    1    2    0    0  0.40344874757E+03 -0.50883870274E+01 -0.20491874935E+03  0.45746621133E+03  0.66984006130E+02 0.  0.
         13    1    3    3    0    0  0.36370381548E+03  0.14927999405E+02 -0.17539806365E+03  0.40406409305E+03  0.00000000000E+00 0.  1.
        -13    1    3    3    0    0  0.39744932087E+02 -0.20016386432E+02 -0.29520685706E+02  0.53402118281E+02  0.00000000000E+00 0. -1.
         22    1    1    2    0    0 -0.40344874757E+03  0.50883870274E+01  0.73444126467E+01  0.40354767252E+03  0.00000000000E+00 0.  1.
<mgrwt>
<rscale>  0 0.83803895E+03</rscale>
<asrwt>0</asrwt>
<pdfrwt beam="1">  1        2 0.81429862E-01 0.83803895E+03</pdfrwt>
<pdfrwt beam="2">  1       -2 0.51033812E-01 0.83803895E+03</pdfrwt>
<totfact> 0.21028666E+02</totfact>
</mgrwt>
</event>
<event>
 6    1  0.5026615E-004  0.1492266E+04  0.7818608E-02  0.8889612E-01
          2   -1    0    0  501    0  0.00000000000E+00  0.00000000000E+00  0.21882221316E+04  0.21882221316E+04  0.00000000000E+00 0.  1.
         -2   -1    0    0    0  501 -0.00000000000E+00 -0.00000000000E+00 -0.25441394536E+03  0.25441394536E+03  0.00000000000E+00 0. -1.
         23    2    1    2    0    0  0.50877505862E+03  0.51452922625E+03  0.12488725649E+04  0.14462781140E+04  0.91898393597E+02 0.  0.
         11    1    3    3    0    0  0.16633729982E+03  0.22113912972E+03  0.42687956096E+03  0.50872072060E+03  0.00000000000E+00 0. -1.
        -11    1    3    3    0    0  0.34243775880E+03  0.29339009653E+03  0.82199300399E+03  0.93755739345E+03  0.00000000000E+00 0.  1.
         22    1    1    2    0    0 -0.50877505862E+03 -0.51452922625E+03  0.68493562126E+03  0.99635796288E+03  0.00000000000E+00 0. -1.
<mgrwt>
<rscale>  0 0.14922657E+04</rscale>
<asrwt>0</asrwt>
<pdfrwt beam="1">  1        2 0.33664955E+00 0.14922657E+04</pdfrwt>
<pdfrwt beam="2">  1       -2 0.39140608E-01 0.14922657E+04</pdfrwt>
<totfact> 0.31313704E+01</totfact>
</mgrwt>
</event>
<event>
 6    1  0.5026615E-004  0.1458064E+04  0.7818608E-02  0.8912829E-01
          2   -1    0    0  501    0  0.00000000000E+00  0.00000000000E+00  0.13358688079E+04  0.13358688079E+04  0.00000000000E+00 0.  1.
         -2   -1    0    0    0  501 -0.00000000000E+00 -0.00000000000E+00 -0.39785919241E+03  0.39785919241E+03  0.00000000000E+00 0. -1.
         23    2    1    2    0    0  0.71819992840E+03  0.96588916737E+02  0.52670395147E+03  0.90047359423E+03  0.91077359534E+02 0.  0.
         13    1    3    3    0    0  0.13850164848E+03  0.16863817919E+02  0.14835041188E+03  0.20365397047E+03  0.00000000000E+00 0.  1.
        -13    1    3    3    0    0  0.57969827992E+03  0.79725098818E+02  0.37835353959E+03  0.69681962375E+03  0.00000000000E+00 0. -1.
         22    1    1    2    0    0 -0.71819992840E+03 -0.96588916737E+02  0.41130566401E+03  0.83325440607E+03  0.00000000000E+00 0.  1.
<mgrwt>
<rscale>  0 0.14580640E+04</rscale>
<asrwt>0</asrwt>
<pdfrwt beam="1">  1        2 0.20551828E+00 0.14580640E+04</pdfrwt>
<pdfrwt beam="2">  1       -2 0.61209107E-01 0.14580640E+04</pdfrwt>
<totfact> 0.37908483E+01</totfact>
</mgrwt>
</event>
<event>
 6    1  0.5026615E-004  0.1610262E+04  0.7818608E-02  0.8814268E-01
         -2   -1    0    0    0  501 -0.00000000000E+00  0.00000000000E+00  0.28778230479E+03  0.28778230479E+03  0.00000000000E+00 0. -1.
          2   -1    0    0  501    0  0.00000000000E+00 -0.00000000000E+00 -0.22525217336E+04  0.22525217336E+04  0.00000000000E+00 0.  1.
         23    2    1    2    0    0  0.28776197366E+02 -0.47785944323E+03  0.29871507310E+02  0.48904820269E+03  0.95384068826E+02 0.  0.
         11    1    3    3    0    0 -0.16195746016E+02 -0.24639805570E+03 -0.21040285664E+02  0.24782452998E+03  0.00000000000E+00 0. -1.
        -11    1    3    3    0    0  0.44971943381E+02 -0.23146138753E+03  0.50911792975E+02  0.24122367271E+03  0.00000000000E+00 0.  1.
         22    1    1    2    0    0 -0.28776197366E+02  0.47785944323E+03 -0.19946109361E+04  0.20512558357E+04  0.00000000000E+00 0.  1.
<mgrwt>
<rscale>  0 0.16102620E+04</rscale>
<asrwt>0</asrwt>
<pdfrwt beam="1">  1        2 0.34654178E+00 0.16102620E+04</pdfrwt>
<pdfrwt beam="2">  1       -2 0.44274203E-01 0.16102620E+04</pdfrwt>
<totfact> 0.22379837E+01</totfact>
</mgrwt>
</event>
<event>
 6    1  0.5026615E-004  0.3278878E+04  0.7818608E-02  0.8168291E-01
          2   -1    0    0  501    0  0.00000000000E+00  0.00000000000E+00  0.23668615672E+04  0.23668615672E+04  0.00000000000E+00 0. -1.
         -2   -1    0    0    0  501 -0.00000000000E+00 -0.00000000000E+00 -0.11355801198E+04  0.11355801198E+04  0.00000000000E+00 0.  1.
         23    2    1    2    0    0 -0.67919129443E+03  0.19423526887E+02 -0.97619040469E+03  0.11927642062E+04  0.89781164790E+02 0.  0.
         13    1    3    3    0    0 -0.14664636603E+03  0.14711951114E+02 -0.27790782931E+03  0.31457011900E+03  0.00000000000E+00 0.  1.
        -13    1    3    3    0    0 -0.53254492840E+03  0.47115757731E+01 -0.69828257538E+03  0.87819408720E+03  0.00000000000E+00 0. -1.
         22    1    1    2    0    0  0.67919129443E+03 -0.19423526887E+02  0.22074718521E+04  0.23096774809E+04  0.00000000000E+00 0. -1.
<mgrwt>
<rscale>  0 0.32788784E+04</rscale>
<asrwt>0</asrwt>
<pdfrwt beam="1">  1        2 0.36413255E+00 0.32788784E+04</pdfrwt>
<pdfrwt beam="2">  1       -2 0.17470463E+00 0.32788784E+04</pdfrwt>
<totfact> 0.68590026E-01</totfact>
</mgrwt>
</event>
<event>
 6    1  0.5026615E-004  0.3100451E+04  0.7818608E-02  0.8215614E-01
          2   -1    0    0  501    0  0.00000000000E+00  0.00000000000E+00  0.30002168830E+04  0.30002168830E+04  0.00000000000E+00 0.  1.
         -2   -1    0    0    0  501 -0.00000000000E+00 -0.00000000000E+00 -0.80100835806E+03  0.80100835806E+03  0.00000000000E+00 0. -1.
         23    2    1    2    0    0  0.28783888310E+03 -0.99773877857E+03  0.25095396598E+04  0.27174174601E+04  0.90743897936E+02 0.  0.
         11    1    3    3    0    0  0.80742605646E+02 -0.42316190426E+03  0.10917062662E+04  0.11736302387E+04  0.00000000000E+00 0. -1.
        -11    1    3    3    0    0  0.20709627746E+03 -0.57457687431E+03  0.14178333936E+04  0.15437872213E+04  0.00000000000E+00 0.  1.
         22    1    1    2    0    0 -0.28783888310E+03  0.99773877857E+03 -0.31033113489E+03  0.10838077810E+04  0.00000000000E+00 0. -1.
<mgrwt>
<rscale>  0 0.31004508E+04</rscale>
<asrwt>0</asrwt>
<pdfrwt beam="1">  1        2 0.46157182E+00 0.31004508E+04</pdfrwt>
<pdfrwt beam="2">  1       -2 0.12323206E+00 0.31004508E+04</pdfrwt>
<totfact> 0.73383652E-01</totfact>
</mgrwt>
</event>
<event>
 6    1  0.5662620E-004  0.4594264E+04  0.7818608E-02  0.7894339E-01
          2   -1    0    0  501    0  0.00000000000E+00  0.00000000000E+00  0.29902611793E+04  0.29902611793E+04  0.00000000000E+00 0.  1.
         -2   -1    0    0    0  501 -0.00000000000E+00 -0.00000000000E+00 -0.17646672599E+04  0.17646672599E+04  0.00000000000E+00 0. -1.
         23    2    1    2    0    0 -0.79184076032E+03  0.18358303678E+04  0.17817917670E+04  0.26796836404E+04  0.92938597952E+02 0.  0.
         13    1    3    3    0    0 -0.44496930860E+03  0.11178523265E+04  0.11116957827E+04  0.16381266809E+04  0.00000000000E+00 0.  1.
        -13    1    3    3    0    0 -0.34687145172E+03  0.71797804133E+03  0.67009598426E+03  0.10415569595E+04  0.00000000000E+00 0. -1.
         22    1    1    2    0    0  0.79184076032E+03 -0.18358303678E+04 -0.55619784758E+03  0.20752447987E+04  0.00000000000E+00 0. -1.
<mgrwt>
<rscale>  0 0.45942643E+04</rscale>
<asrwt>0</asrwt>
<pdfrwt beam="1">  1        2 0.46004018E+00 0.45942643E+04</pdfrwt>
<pdfrwt beam="2">  1       -2 0.27148727E+00 0.45942643E+04</pdfrwt>
<totfact> 0.62991192E-02</totfact>
</mgrwt>
</event>
<event>
 6    1  0.5026615E-004  0.1966145E+04  0.7818608E-02  0.8622614E-01
          2   -1    0    0  501    0  0.00000000000E+00  0.00000000000E+00  0.16586843208E+04  0.16586843208E+04  0.00000000000E+00 0.  1.
         -2   -1    0    0    0  501 -0.00000000000E+00 -0.00000000000E+00 -0.58264966624E+03  0.58264966624E+03  0.00000000000E+00 0. -1.
         23    2    1    2    0    0  0.79159624264E+03 -0.45002979150E+03  0.12277891806E+03  0.92305938599E+03  0.88388589480E+02 0.  0.
         13    1    3    3    0    0  0.69423565610E+03 -0.37626918042E+03  0.80218738513E+02  0.79371070822E+03  0.00000000000E+00 0. -1.
        -13    1    3    3    0    0  0.97360586537E+02 -0.73760611082E+02  0.42560179548E+02  0.12934867777E+03  0.00000000000E+00 0.  1.
         22    1    1    2    0    0 -0.79159624264E+03  0.45002979150E+03  0.95325573650E+03  0.13182746010E+04  0.00000000000E+00 0.  1.
<mgrwt>
<rscale>  0 0.19661453E+04</rscale>
<asrwt>0</asrwt>
<pdfrwt beam="1">  1        2 0.25518220E+00 0.19661453E+04</pdfrwt>
<pdfrwt beam="2">  1       -2 0.89638411E-01 0.19661453E+04</pdfrwt>
<totfact> 0.10275895E+01</totfact>
</mgrwt>
</event>
<event>
 6    1  0.5026615E-004  0.4513058E+04  0.7818608E-02  0.7908355E-01
          2   -1    0    0  501    0  0.00000000000E+00  0.00000000000E+00  0.46503376227E+04  0.46503376227E+04  0.00000000000E+00 0.  1.
         -2   -1    0    0    0  501 -0.00000000000E+00 -0.00000000000E+00 -0.10949576538E+04  0.10949576538E+04  0.00000000000E+00 0. -1.
         23    2    1    2    0    0 -0.29260888027E+03 -0.11678004343E+04 -0.64994493182E+03  0.13710370158E+04  0.89085763023E+02 0.  0.
         13    1    3    3    0    0 -0.16761967098E+03 -0.49530444739E+03 -0.29628465333E+03  0.60100536229E+03  0.00000000000E+00 0. -1.
        -13    1    3    3    0    0 -0.12498920929E+03 -0.67249598687E+03 -0.35366027848E+03  0.77003165348E+03  0.00000000000E+00 0.  1.
         22    1    1    2    0    0  0.29260888027E+03  0.11678004343E+04  0.42053249007E+04  0.43742582607E+04  0.00000000000E+00 0.  1.
<mgrwt>
<rscale>  0 0.45130578E+04</rscale>
<asrwt>0</asrwt>
<pdfrwt beam="1">  1        2 0.71543655E+00 0.45130578E+04</pdfrwt>
<pdfrwt beam="2">  1       -2 0.16845503E+00 0.45130578E+04</pdfrwt>
<totfact> 0.14190868E-02</totfact>
</mgrwt>
</event>
<event>
 6    1  0.5026615E-004  0.1753453E+04  0.7818608E-02  0.8731452E-01
          2   -1    0    0  501    0  0.00000000000E+00  0.00000000000E+00  0.80592018812E+03  0.80592018812E+03  0.00000000000E+00 0.  1.
         -2   -1    0    0    0  501 -0.00000000000E+00 -0.00000000000E+00 -0.95375321237E+03  0.95375321237E+03  0.00000000000E+00 0. -1.
         23    2    1    2    0    0  0.42829834151E+03  0.24161774017E+03  0.65148821095E+03  0.82119961890E+03  0.90073988348E+02 0.  0.
         11    1    3    3    0    0  0.37461903517E+03  0.17296424480E+03  0.54570336849E+03  0.68414049571E+03  0.00000000000E+00 0. -1.
        -11    1    3    3    0    0  0.53679306337E+02  0.68653495376E+02  0.10578484246E+03  0.13705912319E+03  0.00000000000E+00 0.  1.
         22    1    1    2    0    0 -0.42829834151E+03 -0.24161774017E+03 -0.79932123519E+03  0.93847378159E+03  0.00000000000E+00 0. -1.
<mgrwt>
<rscale>  0 0.17534526E+04</rscale>
<asrwt>0</asrwt>
<pdfrwt beam="1">  1        2 0.12398772E+00 0.17534526E+04</pdfrwt>
<pdfrwt beam="2">  1       -2 0.14673126E+00 0.17534526E+04</pdfrwt>
<totfact> 0.10261194E+01</totfact>
</mgrwt>
</event>
<event>
 6    1  0.5026615E-004  0.3747023E+04  0.7818608E-02  0.8057620E-01
          2   -1    0    0  501    0  0.00000000000E+00  0.00000000000E+00  0.21810147821E+04  0.21810147821E+04  0.00000000000E+00 0.  1.
         -2   -1    0    0    0  501 -0.00000000000E+00 -0.00000000000E+00 -0.16093630614E+04  0.16093630614E+04  0.00000000000E+00 0. -1.
         23    2    1    2    0    0 -0.13629438423E+04 -0.32904913802E+03  0.15413092751E+04  0.20856417862E+04  0.91532105160E+02 0.  0.
         11    1    3    3    0    0 -0.19697732791E+03 -0.74202897395E+02  0.20240114914E+03  0.29201431963E+03  0.00000000000E+00 0. -1.
        -11    1    3    3    0    0 -0.11659665144E+04 -0.25484624063E+03  0.13389081259E+04  0.17936274665E+04  0.00000000000E+00 0.  1.
         22    1    1    2    0    0  0.13629438423E+04  0.32904913802E+03 -0.96965755428E+03  0.17047360573E+04  0.00000000000E+00 0. -1.
<mgrwt>
<rscale>  0 0.37470226E+04</rscale>
<asrwt>0</asrwt>
<pdfrwt beam="1">  1        2 0.33554074E+00 0.37470226E+04</pdfrwt>
<pdfrwt beam="2">  1       -2 0.24759432E+00 0.37470226E+04</pdfrwt>
<totfact> 0.28340605E-01</totfact>
</mgrwt>
</event>
<event>
 6    1  0.5026615E-004  0.1362144E+04  0.7818608E-02  0.8981686E-01
         -4   -1    0    0    0  501 -0.00000000000E+00  0.00000000000E+00  0.56144744763E+03  0.56144744763E+03  0.00000000000E+00 0. -1.
          4   -1    0    0  501    0  0.00000000000E+00 -0.00000000000E+00 -0.82618453714E+03  0.82618453714E+03  0.00000000000E+00 0.  1.
         23    2    1    2    0    0 -0.21877444678E+03  0.47995514763E+03  0.29858810668E+03  0.61591022210E+03  0.10941362778E+03 0.  0.
         11    1    3    3    0    0 -0.15022408696E+03  0.27406083435E+03  0.23095545853E+03  0.38860911087E+03  0.00000000000E+00 0.  1.
        -11    1    3    3    0    0 -0.68550359820E+02  0.20589431328E+03  0.67632648146E+02  0.22730111123E+03  0.00000000000E+00 0. -1.
         22    1    1    2    0    0  0.21877444678E+03 -0.47995514763E+03 -0.56332519619E+03  0.77172176266E+03  0.00000000000E+00 0. -1.
<mgrwt>
<rscale>  0 0.13621442E+04</rscale>
<asrwt>0</asrwt>
<pdfrwt beam="1">  1        4 0.12710531E+00 0.13621442E+04</pdfrwt>
<pdfrwt beam="2">  1       -4 0.86376531E-01 0.13621442E+04</pdfrwt>
<totfact> 0.10394156E+00</totfact>
</mgrwt>
</event>
<event>
 6    1  0.5026615E-004  0.1061203E+04  0.7818608E-02  0.9243854E-01
          2   -1    0    0  501    0  0.00000000000E+00  0.00000000000E+00  0.31372698784E+04  0.31372698784E+04  0.00000000000E+00 0.  1.
         -2   -1    0    0    0  501 -0.00000000000E+00 -0.00000000000E+00 -0.89739750884E+02  0.89739750884E+02  0.00000000000E+00 0. -1.
         23    2    1    2    0    0  0.21233504691E+00  0.41136501545E+03  0.25351780890E+04  0.25699511598E+04  0.91103235282E+02 0.  0.
         13    1    3    3    0    0  0.42359807565E+02  0.16839333868E+03  0.11397443389E+04  0.11528954107E+04  0.00000000000E+00 0.  1.
        -13    1    3    3    0    0 -0.42147472518E+02  0.24297167677E+03  0.13954337501E+04  0.14170557491E+04  0.00000000000E+00 0. -1.
         22    1    1    2    0    0 -0.21233504691E+00 -0.41136501545E+03  0.51235203848E+03  0.65705846951E+03  0.00000000000E+00 0. -1.
<mgrwt>
<rscale>  0 0.10612027E+04</rscale>
<asrwt>0</asrwt>
<pdfrwt beam="1">  1        2 0.48265682E+00 0.10612027E+04</pdfrwt>
<pdfrwt beam="2">  1       -2 0.13806118E-01 0.10612027E+04</pdfrwt>
<totfact> 0.58638114E+01</totfact>
</mgrwt>
</event>
<event>
 6    1  0.5026615E-004  0.3361406E+04  0.7818608E-02  0.8147444E-01
          2   -1    0    0  501    0  0.00000000000E+00  0.00000000000E+00  0.19266304639E+04  0.19266304639E+04  0.00000000000E+00 0.  1.
         -2   -1    0    0    0  501 -0.00000000000E+00 -0.00000000000E+00 -0.14661673529E+04  0.14661673529E+04  0.00000000000E+00 0. -1.
         23    2    1    2    0    0 -0.21232451299E+02 -0.14633962801E+04  0.10619385321E+04  0.18104728908E+04  0.90106341910E+02 0.  0.
         11    1    3    3    0    0 -0.70134451733E+01 -0.77838053231E+03  0.50940966165E+03  0.93028148690E+03  0.00000000000E+00 0. -1.
        -11    1    3    3    0    0 -0.14219006126E+02 -0.68501574776E+03  0.55252887043E+03  0.88019140388E+03  0.00000000000E+00 0.  1.
         22    1    1    2    0    0  0.21232451299E+02  0.14633962801E+04 -0.60147542106E+03  0.15823249261E+04  0.00000000000E+00 0.  1.
<mgrwt>
<rscale>  0 0.33614061E+04</rscale>
<asrwt>0</asrwt>
<pdfrwt beam="1">  1        2 0.29640469E+00 0.33614061E+04</pdfrwt>
<pdfrwt beam="2">  1       -2 0.22556421E+00 0.33614061E+04</pdfrwt>
<totfact> 0.55602079E-01</totfact>
</mgrwt>
</event>
<event>
 6    1  0.5026615E-004  0.1642380E+04  0.7818608E-02  0.8794927E-01
          2   -1    0    0  501    0  0.00000000000E+00  0.00000000000E+00  0.13372067515E+04  0.13372067515E+04  0.00000000000E+00 0.  1.
         -2   -1    0    0    0  501 -0.00000000000E+00 -0.00000000000E+00 -0.50429965236E+03  0.50429965236E+03  0.00000000000E+00 0. -1.
         23    2    1    2    0    0 -0.51985096416E+03 -0.43756232630E+03  0.92979616441E+03  0.11551440321E+04  0.90172130961E+02 0.  0.
         11    1    3    3    0    0 -0.44757345343E+03 -0.34733551323E+03  0.81191510399E+03  0.99003539889E+03  0.00000000000E+00 0. -1.
        -11    1    3    3    0    0 -0.72277510728E+02 -0.90226813067E+02  0.11788106042E+03  0.16510863320E+03  0.00000000000E+00 0.  1.
         22    1    1    2    0    0  0.51985096416E+03  0.43756232630E+03 -0.96889065310E+02  0.68636237172E+03  0.00000000000E+00 0. -1.
<mgrwt>
<rscale>  0 0.16423799E+04</rscale>
<asrwt>0</asrwt>
<pdfrwt beam="1">  1        2 0.20572412E+00 0.16423799E+04</pdfrwt>
<pdfrwt beam="2">  1       -2 0.77584562E-01 0.16423799E+04</pdfrwt>
<totfact> 0.22260624E+01</totfact>
</mgrwt>
</event>
<event>
 6    1  0.5026615E-004  0.3902768E+04  0.7818608E-02  0.8024454E-01
          2   -1    0    0  501    0  0.00000000000E+00  0.00000000000E+00  0.34180199955E+04  0.34180199955E+04  0.00000000000E+00 0.  1.
         -2   -1    0    0    0  501 -0.00000000000E+00 -0.00000000000E+00 -0.11140659305E+04  0.11140659305E+04  0.00000000000E+00 0. -1.
         23    2    1    2    0    0 -0.59629938331E+03  0.36790130456E+03 -0.96180639408E+03  0.11920087263E+04  0.69920951074E+02 0.  0.
         11    1    3    3    0    0 -0.43360491802E+03  0.25135610557E+03 -0.73384658784E+03  0.88866412735E+03  0.00000000000E+00 0.  1.
        -11    1    3    3    0    0 -0.16269446529E+03  0.11654519899E+03 -0.22795980624E+03  0.30334459894E+03  0.00000000000E+00 0. -1.
         22    1    1    2    0    0  0.59629938331E+03 -0.36790130456E+03  0.32657604591E+04  0.33400771998E+04  0.00000000000E+00 0.  1.
<mgrwt>
<rscale>  0 0.39027681E+04</rscale>
<asrwt>0</asrwt>
<pdfrwt beam="1">  1        2 0.52584923E+00 0.39027681E+04</pdfrwt>
<pdfrwt beam="2">  1       -2 0.17139476E+00 0.39027681E+04</pdfrwt>
<totfact> 0.15325308E-01</totfact>
</mgrwt>
</event>
<event>
 6    1  0.5026615E-004  0.3935819E+04  0.7818608E-02  0.8017620E-01
          2   -1    0    0  501    0  0.00000000000E+00  0.00000000000E+00  0.35895466410E+04  0.35895466410E+04  0.00000000000E+00 0.  1.
         -2   -1    0    0    0  501 -0.00000000000E+00 -0.00000000000E+00 -0.10788739818E+04  0.10788739818E+04  0.00000000000E+00 0. -1.
         23    2    1    2    0    0  0.74567162639E+03 -0.11047317753E+04  0.29716841112E+04  0.32581050451E+04  0.88789406660E+02 0.  0.
         13    1    3    3    0    0  0.18126776408E+03 -0.25547189580E+03  0.61155605609E+03  0.68711331058E+03  0.00000000000E+00 0.  1.
        -13    1    3    3    0    0  0.56440386231E+03 -0.84925987947E+03  0.23601280551E+04  0.25709917345E+04  0.00000000000E+00 0. -1.
         22    1    1    2    0    0 -0.74567162639E+03  0.11047317753E+04 -0.46101145207E+03  0.14103155777E+04  0.00000000000E+00 0. -1.
<mgrwt>
<rscale>  0 0.39358193E+04</rscale>
<asrwt>0</asrwt>
<pdfrwt beam="1">  1        2 0.55223794E+00 0.39358193E+04</pdfrwt>
<pdfrwt beam="2">  1       -2 0.16598061E+00 0.39358193E+04</pdfrwt>
<totfact> 0.12660191E-01</totfact>
</mgrwt>
</event>
<event>
 6    1  0.5026615E-004  0.1226409E+04  0.7818608E-02  0.9090050E-01
         -2   -1    0    0    0  501 -0.00000000000E+00  0.00000000000E+00  0.35107526962E+03  0.35107526962E+03  0.00000000000E+00 0. -1.
          2   -1    0    0  501    0  0.00000000000E+00 -0.00000000000E+00 -0.10710520847E+04  0.10710520847E+04  0.00000000000E+00 0.  1.
         23    2    1    2    0    0  0.18226739189E+03 -0.20391517898E+03  0.26978969270E+03  0.39526780098E+03  0.92991149234E+02 0.  0.
         13    1    3    3    0    0  0.10643892136E+03 -0.52570928251E+02  0.12658114572E+03  0.17353885136E+03  0.00000000000E+00 0. -1.
        -13    1    3    3    0    0  0.75828470532E+02 -0.15134425073E+03  0.14320854697E+03  0.22172894962E+03  0.00000000000E+00 0.  1.
         22    1    1    2    0    0 -0.18226739189E+03  0.20391517898E+03 -0.98976650775E+03  0.10268595533E+04  0.00000000000E+00 0.  1.
<mgrwt>
<rscale>  0 0.12264092E+04</rscale>
<asrwt>0</asrwt>
<pdfrwt beam="1">  1        2 0.16477724E+00 0.12264092E+04</pdfrwt>
<pdfrwt beam="2">  1       -2 0.54011580E-01 0.12264092E+04</pdfrwt>
<totfact> 0.72205247E+01</totfact>
</mgrwt>
</event>
<event>
 6    1  0.5026615E-004  0.3011734E+04  0.7818608E-02  0.8240388E-01
         -2   -1    0    0    0  501 -0.00000000000E+00  0.00000000000E+00  0.30119616644E+04  0.30119616644E+04  0.00000000000E+00 0. -1.
          2   -1    0    0  501    0  0.00000000000E+00 -0.00000000000E+00 -0.75287663667E+03  0.75287663667E+03  0.00000000000E+00 0.  1.
         23    2    1    2    0    0 -0.70045040925E+03  0.11868159094E+04  0.37641214195E+03  0.14316816468E+04  0.94145942926E+02 0.  0.
         11    1    3    3    0    0 -0.54311543977E+03  0.85361555157E+03  0.25066522546E+03  0.10423372516E+04  0.00000000000E+00 0.  1.
        -11    1    3    3    0    0 -0.15733496948E+03  0.33320035780E+03  0.12574691649E+03  0.38934439519E+03  0.00000000000E+00 0. -1.
         22    1    1    2    0    0  0.70045040925E+03 -0.11868159094E+04  0.18826728857E+04  0.23331566542E+04  0.00000000000E+00 0. -1.
<mgrwt>
<rscale>  0 0.30117341E+04</rscale>
<asrwt>0</asrwt>
<pdfrwt beam="1">  1        2 0.11582718E+00 0.30117341E+04</pdfrwt>
<pdfrwt beam="2">  1       -2 0.46337871E+00 0.30117341E+04</pdfrwt>
<totfact> 0.90240840E-02</totfact>
</mgrwt>
</event>
<event>
 6    1  0.5026615E-004  0.2551252E+04  0.7818608E-02  0.8384951E-01
          2   -1    0    0  501    0  0.00000000000E+00  0.00000000000E+00  0.22357993412E+04  0.22357993412E+04  0.00000000000E+00 0.  1.
         -2   -1    0    0    0  501 -0.00000000000E+00 -0.00000000000E+00 -0.72780286892E+03  0.72780286892E+03  0.00000000000E+00 0. -1.
         23    2    1    2    0    0  0.22910342438E+02  0.45837391335E+03 -0.62587055848E+03  0.78093869203E+03  0.86716529603E+02 0.  0.
         11    1    3    3    0    0  0.46457124321E+02  0.14215909954E+03 -0.18535740933E+03  0.23816977805E+03  0.00000000000E+00 0. -1.
        -11    1    3    3    0    0 -0.23546781883E+02  0.31621481382E+03 -0.44051314915E+03  0.54276891399E+03  0.00000000000E+00 0.  1.
         22    1    1    2    0    0 -0.22910342438E+02 -0.45837391335E+03  0.21338670307E+04  0.21826635181E+04  0.00000000000E+00 0.  1.
<mgrwt>
<rscale>  0 0.25512516E+04</rscale>
<asrwt>0</asrwt>
<pdfrwt beam="1">  1        2 0.34396913E+00 0.25512516E+04</pdfrwt>
<pdfrwt beam="2">  1       -2 0.11196967E+00 0.25512516E+04</pdfrwt>
<totfact> 0.27546838E+00</totfact>
</mgrwt>
</event>
<event>
 6    1  0.5026615E-004  0.3485684E+04  0.7818608E-02  0.8117191E-01
          2   -1    0    0  501    0  0.00000000000E+00  0.00000000000E+00  0.17665102193E+04  0.17665102193E+04  0.00000000000E+00 0.  1.
         -2   -1    0    0    0  501 -0.00000000000E+00 -0.00000000000E+00 -0.17194911149E+04  0.17194911149E+04  0.00000000000E+00 0. -1.
         23    2    1    2    0    0 -0.11886263220E+04  0.76167951487E+03 -0.99651576585E+03  0.17304520633E+04  0.91828400554E+02 0.  0.
         13    1    3    3    0    0 -0.21660066433E+03  0.14196584972E+03 -0.14071735213E+03  0.29473975548E+03  0.00000000000E+00 0. -1.
        -13    1    3    3    0    0 -0.97202565767E+03  0.61971366516E+03 -0.85579841372E+03  0.14357123078E+04  0.00000000000E+00 0.  1.
         22    1    1    2    0    0  0.11886263220E+04 -0.76167951487E+03  0.10435348703E+04  0.17555492708E+04  0.00000000000E+00 0.  1.
<mgrwt>
<rscale>  0 0.34856842E+04</rscale>
<asrwt>0</asrwt>
<pdfrwt beam="1">  1        2 0.27177080E+00 0.34856842E+04</pdfrwt>
<pdfrwt beam="2">  1       -2 0.26453709E+00 0.34856842E+04</pdfrwt>
<totfact> 0.38781216E-01</totfact>
</mgrwt>
</event>
<event>
 6    1  0.5026615E-004  0.2279456E+04  0.7818608E-02  0.8486066E-01
          2   -1    0    0  501    0  0.00000000000E+00  0.00000000000E+00  0.21511971250E+04  0.21511971250E+04  0.00000000000E+00 0.  1.
         -2   -1    0    0    0  501 -0.00000000000E+00 -0.00000000000E+00 -0.60384061403E+03  0.60384061403E+03  0.00000000000E+00 0. -1.
         23    2    1    2    0    0  0.59791493320E+03  0.64963814879E+03  0.16425179897E+04  0.18670131342E+04  0.91327460486E+02 0.  0.
         13    1    3    3    0    0  0.38197374102E+03  0.37198777714E+03  0.10599052176E+04  0.11864560318E+04  0.00000000000E+00 0. -1.
        -13    1    3    3    0    0  0.21594119218E+03  0.27765037165E+03  0.58261277210E+03  0.68055710236E+03  0.00000000000E+00 0.  1.
         22    1    1    2    0    0 -0.59791493320E+03 -0.64963814879E+03 -0.95161478759E+02  0.88802460481E+03  0.00000000000E+00 0. -1.
<mgrwt>
<rscale>  0 0.22794562E+04</rscale>
<asrwt>0</asrwt>
<pdfrwt beam="1">  1        2 0.33095340E+00 0.22794562E+04</pdfrwt>
<pdfrwt beam="2">  1       -2 0.92898557E-01 0.22794562E+04</pdfrwt>
<totfact> 0.49042971E+00</totfact>
</mgrwt>
</event>
<event>
 6    1  0.5026615E-004  0.5761814E+04  0.7818608E-02  0.7720656E-01
          2   -1    0    0  501    0  0.00000000000E+00  0.00000000000E+00  0.33201843173E+04  0.33201843173E+04  0.00000000000E+00 0.  1.
         -2   -1    0    0    0  501 -0.00000000000E+00 -0.00000000000E+00 -0.24997486222E+04  0.24997486222E+04  0.00000000000E+00 0. -1.
         23    2    1    2    0    0  0.24011543356E+03 -0.19395190763E+04  0.25470897978E+04  0.32121131491E+04  0.10302803453E+03 0.  0.
         11    1    3    3    0    0  0.16848611085E+03 -0.12826732915E+04  0.17633235798E+04  0.21869952879E+04  0.00000000000E+00 0. -1.
        -11    1    3    3    0    0  0.71629322710E+02 -0.65684578476E+03  0.78376621799E+03  0.10251178612E+04  0.00000000000E+00 0.  1.
         22    1    1    2    0    0 -0.24011543356E+03  0.19395190763E+04 -0.17266541027E+04  0.26078197904E+04  0.00000000000E+00 0. -1.
<mgrwt>
<rscale>  0 0.57618144E+04</rscale>
<asrwt>0</asrwt>
<pdfrwt beam="1">  1        2 0.51079759E+00 0.57618144E+04</pdfrwt>
<pdfrwt beam="2">  1       -2 0.38457671E+00 0.57618144E+04</pdfrwt>
<totfact> 0.69189268E-03</totfact>
</mgrwt>
</event>
<event>
 6    1  0.5026615E-004  0.2084660E+04  0.7818608E-02  0.8568031E-01
         -2   -1    0    0    0  501 -0.00000000000E+00  0.00000000000E+00  0.74579946839E+03  0.74579946839E+03  0.00000000000E+00 0. -1.
          2   -1    0    0  501    0  0.00000000000E+00 -0.00000000000E+00 -0.14567612765E+04  0.14567612765E+04  0.00000000000E+00 0.  1.
         23    2    1    2    0    0  0.11133378742E+03  0.30835821395E+03 -0.13993097119E+04  0.14401285596E+04  0.91774714220E+02 0.  0.
         11    1    3    3    0    0  0.66545318007E+01  0.74663208742E+02 -0.48016307117E+03  0.48597886009E+03  0.00000000000E+00 0.  1.
        -11    1    3    3    0    0  0.10467925562E+03  0.23369500521E+03 -0.91914664072E+03  0.95414969955E+03  0.00000000000E+00 0. -1.
         22    1    1    2    0    0 -0.11133378742E+03 -0.30835821395E+03  0.68834790382E+03  0.76243218520E+03  0.00000000000E+00 0. -1.
<mgrwt>
<rscale>  0 0.20846600E+04</rscale>
<asrwt>0</asrwt>
<pdfrwt beam="1">  1        2 0.22411712E+00 0.20846600E+04</pdfrwt>
<pdfrwt beam="2">  1       -2 0.11473838E+00 0.20846600E+04</pdfrwt>
<totfact> 0.73492177E+00</totfact>
</mgrwt>
</event>
<event>
 6    1  0.5026615E-004  0.5701121E+03  0.7818608E-02  0.9969431E-01
         -2   -1    0    0    0  501 -0.00000000000E+00  0.00000000000E+00  0.13752737598E+03  0.13752737598E+03  0.00000000000E+00 0. -1.
          2   -1    0    0  501    0  0.00000000000E+00 -0.00000000000E+00 -0.59084205060E+03  0.59084205060E+03  0.00000000000E+00 0.  1.
         23    2    1    2    0    0  0.60498664477E+02  0.24669647728E+03 -0.37627396534E+03  0.46293673983E+03  0.90604016361E+02 0.  0.
         11    1    3    3    0    0  0.11895932750E+02  0.12274314638E+03 -0.11007918999E+03  0.16530221193E+03  0.00000000000E+00 0.  1.
        -11    1    3    3    0    0  0.48602731727E+02  0.12395333090E+03 -0.26619477535E+03  0.29763452790E+03  0.00000000000E+00 0. -1.
         22    1    1    2    0    0 -0.60498664477E+02 -0.24669647728E+03 -0.77040709279E+02  0.26543268675E+03  0.00000000000E+00 0. -1.
<mgrwt>
<rscale>  0 0.57011212E+03</rscale>
<asrwt>0</asrwt>
<pdfrwt beam="1">  1        2 0.90898776E-01 0.57011212E+03</pdfrwt>
<pdfrwt beam="2">  1       -2 0.21158058E-01 0.57011212E+03</pdfrwt>
<totfact> 0.97990155E+02</totfact>
</mgrwt>
</event>
<event>
 6    1  0.5026615E-004  0.2854804E+04  0.7818608E-02  0.8286453E-01
          2   -1    0    0  501    0  0.00000000000E+00  0.00000000000E+00  0.22865614800E+04  0.22865614800E+04  0.00000000000E+00 0.  1.
         -2   -1    0    0    0  501 -0.00000000000E+00 -0.00000000000E+00 -0.89106587056E+03  0.89106587056E+03  0.00000000000E+00 0. -1.
         23    2    1    2    0    0  0.26041538385E+03  0.11850279992E+04 -0.13553381430E+03  0.12241282778E+04  0.89515891056E+02 0.  0.
         11    1    3    3    0    0  0.78304050968E+02  0.22350918194E+03 -0.47672307125E+02  0.24157923685E+03  0.00000000000E+00 0. -1.
        -11    1    3    3    0    0  0.18211133288E+03  0.96151881722E+03 -0.87861507180E+02  0.98254904095E+03  0.00000000000E+00 0.  1.
         22    1    1    2    0    0 -0.26041538385E+03 -0.11850279992E+04  0.15310294238E+04  0.19534990728E+04  0.00000000000E+00 0.  1.
<mgrwt>
<rscale>  0 0.28548043E+04</rscale>
<asrwt>0</asrwt>
<pdfrwt beam="1">  1        2 0.35177869E+00 0.28548043E+04</pdfrwt>
<pdfrwt beam="2">  1       -2 0.13708706E+00 0.28548043E+04</pdfrwt>
<totfact> 0.15158195E+00</totfact>
</mgrwt>
</event>
<event>
 6    1  0.5026615E-004  0.4872697E+04  0.7818608E-02  0.7848451E-01
         -2   -1    0    0    0  501 -0.00000000000E+00  0.00000000000E+00  0.31052484199E+04  0.31052484199E+04  0.00000000000E+00 0. -1.
          2   -1    0    0  501    0  0.00000000000E+00 -0.00000000000E+00 -0.19115359612E+04  0.19115359612E+04  0.00000000000E+00 0.  1.
         23    2    1    2    0    0 -0.15481614640E+04  0.10663116631E+04 -0.99722746229E+03  0.21299102552E+04  0.90722666521E+02 0.  0.
         13    1    3    3    0    0 -0.59324937840E+03  0.40409527872E+03 -0.33134258858E+03  0.79058568812E+03  0.00000000000E+00 0. -1.
        -13    1    3    3    0    0 -0.95491208559E+03  0.66221638434E+03 -0.66588487371E+03  0.13393245671E+04  0.00000000000E+00 0.  1.
         22    1    1    2    0    0  0.15481614640E+04 -0.10663116631E+04  0.21909399210E+04  0.28868741259E+04  0.00000000000E+00 0. -1.
<mgrwt>
<rscale>  0 0.48726970E+04</rscale>
<asrwt>0</asrwt>
<pdfrwt beam="1">  1        2 0.29408245E+00 0.48726970E+04</pdfrwt>
<pdfrwt beam="2">  1       -2 0.47773053E+00 0.48726970E+04</pdfrwt>
<totfact> 0.12621347E-02</totfact>
</mgrwt>
</event>
<event>
 6    1  0.5026615E-004  0.2758837E+04  0.7818608E-02  0.8316163E-01
          2   -1    0    0  501    0  0.00000000000E+00  0.00000000000E+00  0.29734770529E+04  0.29734770529E+04  0.00000000000E+00 0.  1.
         -2   -1    0    0    0  501 -0.00000000000E+00 -0.00000000000E+00 -0.63992268118E+03  0.63992268118E+03  0.00000000000E+00 0. -1.
         23    2    1    2    0    0  0.45756030020E+03  0.79907809433E+03 -0.17425091449E+03  0.94188806788E+03  0.94353177260E+02 0.  0.
         11    1    3    3    0    0  0.27118694022E+03  0.55849808661E+03 -0.10313689334E+03  0.62936451128E+03  0.00000000000E+00 0.  1.
        -11    1    3    3    0    0  0.18637335998E+03  0.24058000772E+03 -0.71114021151E+02  0.31252355660E+03  0.00000000000E+00 0. -1.
         22    1    1    2    0    0 -0.45756030020E+03 -0.79907809433E+03  0.25078052862E+04  0.26715116662E+04  0.00000000000E+00 0.  1.
<mgrwt>
<rscale>  0 0.27588370E+04</rscale>
<asrwt>0</asrwt>
<pdfrwt beam="1">  1        2 0.45745800E+00 0.27588370E+04</pdfrwt>
<pdfrwt beam="2">  1       -2 0.98449645E-01 0.27588370E+04</pdfrwt>
<totfact> 0.13532096E+00</totfact>
</mgrwt>
</event>
<event>
 6    1  0.5026615E-004  0.2461991E+04  0.7818608E-02  0.8416653E-01
         -2   -1    0    0    0  501 -0.00000000000E+00  0.00000000000E+00  0.98939142079E+03  0.98939142079E+03  0.00000000000E+00 0. -1.
          2   -1    0    0  501    0  0.00000000000E+00 -0.00000000000E+00 -0.15315974866E+04  0.15315974866E+04  0.00000000000E+00 0.  1.
         23    2    1    2    0    0 -0.68978099288E+02  0.10897027595E+04  0.30696273975E+03  0.11377688444E+04  0.89898484345E+02 0.  0.
         13    1    3    3    0    0 -0.30242662326E+02  0.83077414675E+03  0.26552996938E+03  0.87270067387E+03  0.00000000000E+00 0. -1.
        -13    1    3    3    0    0 -0.38735436962E+02  0.25892861276E+03  0.41432770376E+02  0.26506817056E+03  0.00000000000E+00 0.  1.
         22    1    1    2    0    0  0.68978099288E+02 -0.10897027595E+04 -0.84916880557E+03  0.13832200630E+04  0.00000000000E+00 0.  1.
<mgrwt>
<rscale>  0 0.24619906E+04</rscale>
<asrwt>0</asrwt>
<pdfrwt beam="1">  1        2 0.23563038E+00 0.24619906E+04</pdfrwt>
<pdfrwt beam="2">  1       -2 0.15221406E+00 0.24619906E+04</pdfrwt>
<totfact> 0.31415246E+00</totfact>
</mgrwt>
</event>
<event>
 6    1  0.5026615E-004  0.5897568E+04  0.7818608E-02  0.7703233E-01
          2   -1    0    0  501    0  0.00000000000E+00  0.00000000000E+00  0.44680111818E+04  0.44680111818E+04  0.00000000000E+00 0.  1.
         -2   -1    0    0    0  501 -0.00000000000E+00 -0.00000000000E+00 -0.19461289021E+04  0.19461289021E+04  0.00000000000E+00 0. -1.
         23    2    1    2    0    0  0.12358327324E+04 -0.26559024632E+04  0.16219290872E+04  0.33496635895E+04  0.92150760680E+02 0.  0.
         11    1    3    3    0    0  0.12630490027E+03 -0.22817859212E+03  0.16625758638E+03  0.30928948052E+03  0.00000000000E+00 0.  1.
        -11    1    3    3    0    0  0.11095278321E+04 -0.24277238710E+04  0.14556715008E+04  0.30403741090E+04  0.00000000000E+00 0. -1.
         22    1    1    2    0    0 -0.12358327324E+04  0.26559024632E+04  0.89995319258E+03  0.30644764944E+04  0.00000000000E+00 0.  1.
<mgrwt>
<rscale>  0 0.58975675E+04</rscale>
<asrwt>0</asrwt>
<pdfrwt beam="1">  1        2 0.68738633E+00 0.58975675E+04</pdfrwt>
<pdfrwt beam="2">  1       -2 0.29940445E+00 0.58975675E+04</pdfrwt>
<totfact> 0.28432790E-03</totfact>
</mgrwt>
</event>
<event>
 6    1  0.5026615E-004  0.3435645E+04  0.7818608E-02  0.8129213E-01
         -2   -1    0    0    0  501 -0.00000000000E+00  0.00000000000E+00  0.15853497473E+04  0.15853497473E+04  0.00000000000E+00 0. -1.
          2   -1    0    0  501    0  0.00000000000E+00 -0.00000000000E+00 -0.18613650084E+04  0.18613650084E+04  0.00000000000E+00 0.  1.
         23    2    1    2    0    0 -0.11127765195E+04  0.12097522708E+04  0.35854514592E+03  0.16847729153E+04  0.90183233268E+02 0.  0.
         13    1    3    3    0    0 -0.42441484271E+03  0.39796499310E+03  0.12294034474E+03  0.59465824034E+03  0.00000000000E+00 0.  1.
        -13    1    3    3    0    0 -0.68836167675E+03  0.81178727771E+03  0.23560480117E+03  0.10901146750E+04  0.00000000000E+00 0. -1.
         22    1    1    2    0    0  0.11127765195E+04 -0.12097522708E+04 -0.63456040697E+03  0.17619418404E+04  0.00000000000E+00 0. -1.
<mgrwt>
<rscale>  0 0.34356452E+04</rscale>
<asrwt>0</asrwt>
<pdfrwt beam="1">  1        2 0.28636385E+00 0.34356452E+04</pdfrwt>
<pdfrwt beam="2">  1       -2 0.24389996E+00 0.34356452E+04</pdfrwt>
<totfact> 0.46181239E-01</totfact>
</mgrwt>
</event>
<event>
 6    1  0.5026615E-004  0.1568119E+04  0.7818608E-02  0.8840377E-01
         -2   -1    0    0    0  501 -0.00000000000E+00  0.00000000000E+00  0.18981545418E+03  0.18981545418E+03  0.00000000000E+00 0. -1.
          2   -1    0    0  501    0  0.00000000000E+00 -0.00000000000E+00 -0.32386682327E+04  0.32386682327E+04  0.00000000000E+00 0.  1.
         23    2    1    2    0    0 -0.87966669489E+02 -0.69325923155E+03 -0.76505091746E+03  0.10401584499E+04  0.90995590544E+02 0.  0.
         11    1    3    3    0    0 -0.58709775485E+02 -0.28562656009E+03 -0.26190492431E+03  0.39194841363E+03  0.00000000000E+00 0. -1.
        -11    1    3    3    0    0 -0.29256894004E+02 -0.40763267145E+03 -0.50314599315E+03  0.64821003625E+03  0.00000000000E+00 0.  1.
         22    1    1    2    0    0  0.87966669489E+02  0.69325923155E+03 -0.22838018610E+04  0.23883252369E+04  0.00000000000E+00 0.  1.
<mgrwt>
<rscale>  0 0.15681190E+04</rscale>
<asrwt>0</asrwt>
<pdfrwt beam="1">  1        2 0.49825658E+00 0.15681190E+04</pdfrwt>
<pdfrwt beam="2">  1       -2 0.29202382E-01 0.15681190E+04</pdfrwt>
<totfact> 0.12793723E+01</totfact>
</mgrwt>
</event>
<event>
 6    1  0.5026615E-004  0.4244109E+04  0.7818608E-02  0.7957034E-01
          2   -1    0    0  501    0  0.00000000000E+00  0.00000000000E+00  0.15579904372E+04  0.15579904372E+04  0.00000000000E+00 0.  1.
         -2   -1    0    0    0  501 -0.00000000000E+00 -0.00000000000E+00 -0.28903362924E+04  0.28903362924E+04  0.00000000000E+00 0. -1.
         23    2    1    2    0    0  0.24954805549E+03 -0.67516804255E+03  0.14247468043E+04  0.15988204476E+04  0.90538662572E+02 0.  0.
         11    1    3    3    0    0  0.10881344043E+03 -0.26116004423E+03  0.65602560731E+03  0.71443301363E+03  0.00000000000E+00 0. -1.
        -11    1    3    3    0    0  0.14073461505E+03 -0.41400799833E+03  0.76872119703E+03  0.88438743394E+03  0.00000000000E+00 0.  1.
         22    1    1    2    0    0 -0.24954805549E+03  0.67516804255E+03 -0.27570926596E+04  0.28495062820E+04  0.00000000000E+00 0. -1.
<mgrwt>
<rscale>  0 0.42441095E+04</rscale>
<asrwt>0</asrwt>
<pdfrwt beam="1">  1        2 0.23969084E+00 0.42441095E+04</pdfrwt>
<pdfrwt beam="2">  1       -2 0.44466712E+00 0.42441095E+04</pdfrwt>
<totfact> 0.34300538E-02</totfact>
</mgrwt>
</event>
<event>
 6    1  0.5026615E-004  0.2239644E+04  0.7818608E-02  0.8502106E-01
          2   -1    0    0  501    0  0.00000000000E+00  0.00000000000E+00  0.31608797350E+04  0.31608797350E+04  0.00000000000E+00 0.  1.
         -2   -1    0    0    0  501 -0.00000000000E+00 -0.00000000000E+00 -0.39672545600E+03  0.39672545600E+03  0.00000000000E+00 0. -1.
         23    2    1    2    0    0  0.10729185101E+04  0.29565513213E+03  0.12115501148E+04  0.16473314470E+04  0.85329531889E+02 0.  0.
         13    1    3    3    0    0  0.88912248419E+03  0.22352625890E+03  0.10326499960E+04  0.13808942010E+04  0.00000000000E+00 0. -1.
        -13    1    3    3    0    0  0.18379602590E+03  0.72128873233E+02  0.17890011883E+03  0.26643724591E+03  0.00000000000E+00 0.  1.
         22    1    1    2    0    0 -0.10729185101E+04 -0.29565513213E+03  0.15526041642E+04  0.19102737440E+04  0.00000000000E+00 0. -1.
<mgrwt>
<rscale>  0 0.22396441E+04</rscale>
<asrwt>0</asrwt>
<pdfrwt beam="1">  1        2 0.48628917E+00 0.22396441E+04</pdfrwt>
<pdfrwt beam="2">  1       -2 0.61034688E-01 0.22396441E+04</pdfrwt>
<totfact> 0.31339953E+00</totfact>
</mgrwt>
</event>
<event>
 6    1  0.5026615E-004  0.3476409E+04  0.7818608E-02  0.8119404E-01
         -1   -1    0    0    0  501 -0.00000000000E+00  0.00000000000E+00  0.12110712665E+04  0.12110712665E+04  0.00000000000E+00 0. -1.
          1   -1    0    0  501    0  0.00000000000E+00 -0.00000000000E+00 -0.24947789252E+04  0.24947789252E+04  0.00000000000E+00 0.  1.
         23    2    1    2    0    0  0.69668603751E+03 -0.15499288373E+04 -0.25881946310E+03  0.17213989706E+04  0.92607050955E+02 0.  0.
         13    1    3    3    0    0  0.36666368606E+03 -0.71434907866E+03 -0.14263368196E+03  0.81552512658E+03  0.00000000000E+00 0. -1.
        -13    1    3    3    0    0  0.33002235146E+03 -0.83557975862E+03 -0.11618578114E+03  0.90587384399E+03  0.00000000000E+00 0.  1.
         22    1    1    2    0    0 -0.69668603751E+03  0.15499288373E+04 -0.10248881956E+04  0.19844512211E+04  0.00000000000E+00 0.  1.
<mgrwt>
<rscale>  0 0.34764091E+04</rscale>
<asrwt>0</asrwt>
<pdfrwt beam="1">  1        1 0.38381214E+00 0.34764091E+04</pdfrwt>
<pdfrwt beam="2">  1       -1 0.18631866E+00 0.34764091E+04</pdfrwt>
<totfact> 0.20944596E-01</totfact>
</mgrwt>
</event>
<event>
 6    1  0.5026615E-004  0.2687481E+04  0.7818608E-02  0.8339078E-01
         -2   -1    0    0    0  501 -0.00000000000E+00  0.00000000000E+00  0.82872212867E+03  0.82872212867E+03  0.00000000000E+00 0. -1.
          2   -1    0    0  501    0  0.00000000000E+00 -0.00000000000E+00 -0.21788229833E+04  0.21788229833E+04  0.00000000000E+00 0.  1.
         23    2    1    2    0    0  0.95802488472E+03  0.29842405676E+03  0.32174658383E+03  0.10576880775E+04  0.91184470617E+02 0.  0.
         11    1    3    3    0    0  0.45659290667E+03  0.95514492779E+02  0.15826069261E+03  0.49259166413E+03  0.00000000000E+00 0.  1.
        -11    1    3    3    0    0  0.50143197805E+03  0.20290956399E+03  0.16348589122E+03  0.56509641336E+03  0.00000000000E+00 0. -1.
         22    1    1    2    0    0 -0.95802488472E+03 -0.29842405676E+03 -0.16718474385E+04  0.19498570345E+04  0.00000000000E+00 0.  1.
<mgrwt>
<rscale>  0 0.26874812E+04</rscale>
<asrwt>0</asrwt>
<pdfrwt beam="1">  1        2 0.33520353E+00 0.26874812E+04</pdfrwt>
<pdfrwt beam="2">  1       -2 0.12749572E+00 0.26874812E+04</pdfrwt>
<totfact> 0.21261863E+00</totfact>
</mgrwt>
</event>
<event>
 6    1  0.5026615E-004  0.2024293E+04  0.7818608E-02  0.8595346E-01
         -2   -1    0    0    0  501 -0.00000000000E+00  0.00000000000E+00  0.61850673893E+03  0.61850673893E+03  0.00000000000E+00 0. -1.
          2   -1    0    0  501    0  0.00000000000E+00 -0.00000000000E+00 -0.16563126968E+04  0.16563126968E+04  0.00000000000E+00 0.  1.
         23    2    1    2    0    0  0.34095424248E+03  0.43328188707E+02  0.54724777587E+03  0.65293088646E+03  0.93335346445E+02 0.  0.
         13    1    3    3    0    0  0.20945348236E+03 -0.19017766205E+02  0.33646991772E+03  0.39679269428E+03  0.00000000000E+00 0. -1.
        -13    1    3    3    0    0  0.13150076012E+03  0.62345954912E+02  0.21077785815E+03  0.25613819218E+03  0.00000000000E+00 0.  1.
         22    1    1    2    0    0 -0.34095424248E+03 -0.43328188707E+02 -0.15850537338E+04  0.16218885493E+04  0.00000000000E+00 0.  1.
<mgrwt>
<rscale>  0 0.20242930E+04</rscale>
<asrwt>0</asrwt>
<pdfrwt beam="1">  1        2 0.25481734E+00 0.20242930E+04</pdfrwt>
<pdfrwt beam="2">  1       -2 0.95154884E-01 0.20242930E+04</pdfrwt>
<totfact> 0.89299230E+00</totfact>
</mgrwt>
</event>
<event>
 6    1  0.5026615E-004  0.3172335E+04  0.7818608E-02  0.8196162E-01
         -2   -1    0    0    0  501 -0.00000000000E+00  0.00000000000E+00  0.16410905947E+04  0.16410905947E+04  0.00000000000E+00 0. -1.
          2   -1    0    0  501    0  0.00000000000E+00 -0.00000000000E+00 -0.15330829707E+04  0.15330829707E+04  0.00000000000E+00 0.  1.
         23    2    1    2    0    0 -0.10615478946E+04 -0.66651312353E+03 -0.91630900992E+03  0.15554245908E+04  0.92734996112E+02 0.  0.
         13    1    3    3    0    0 -0.53472406624E+03 -0.39040706702E+03 -0.48279018601E+03  0.81941068379E+03  0.00000000000E+00 0. -1.
        -13    1    3    3    0    0 -0.52682382838E+03 -0.27610605651E+03 -0.43351882391E+03  0.73601390698E+03  0.00000000000E+00 0.  1.
         22    1    1    2    0    0  0.10615478946E+04  0.66651312353E+03  0.10243166339E+04  0.16187489746E+04  0.00000000000E+00 0. -1.
<mgrwt>
<rscale>  0 0.31723354E+04</rscale>
<asrwt>0</asrwt>
<pdfrwt beam="1">  1        2 0.23585892E+00 0.31723354E+04</pdfrwt>
<pdfrwt beam="2">  1       -2 0.25247548E+00 0.31723354E+04</pdfrwt>
<totfact> 0.63678771E-01</totfact>
</mgrwt>
</event>
<event>
 6    1  0.5026615E-004  0.3974334E+04  0.7818608E-02  0.8009744E-01
         -2   -1    0    0    0  501 -0.00000000000E+00  0.00000000000E+00  0.14923545448E+04  0.14923545448E+04  0.00000000000E+00 0. -1.
          2   -1    0    0  501    0  0.00000000000E+00 -0.00000000000E+00 -0.26460418066E+04  0.26460418066E+04  0.00000000000E+00 0.  1.
         23    2    1    2    0    0  0.13272838099E+04  0.13072886435E+04 -0.12941450001E+04  0.22701313045E+04  0.89436842037E+02 0.  0.
         13    1    3    3    0    0  0.61567360009E+03  0.58014771192E+03 -0.53845642130E+03  0.10027764792E+04  0.00000000000E+00 0. -1.
        -13    1    3    3    0    0  0.71161020982E+03  0.72714093156E+03 -0.75568857884E+03  0.12673548253E+04  0.00000000000E+00 0.  1.
         22    1    1    2    0    0 -0.13272838099E+04 -0.13072886435E+04  0.14045773830E+03  0.18682650470E+04  0.00000000000E+00 0. -1.
<mgrwt>
<rscale>  0 0.39743339E+04</rscale>
<asrwt>0</asrwt>
<pdfrwt beam="1">  1        2 0.40708335E+00 0.39743339E+04</pdfrwt>
<pdfrwt beam="2">  1       -2 0.22959301E+00 0.39743339E+04</pdfrwt>
<totfact> 0.19433997E-01</totfact>
</mgrwt>
</event>
<event>
 6    1  0.5026615E-004  0.4655986E+04  0.7818608E-02  0.7883883E-01
         -2   -1    0    0    0  501 -0.00000000000E+00  0.00000000000E+00  0.14656289641E+04  0.14656289641E+04  0.00000000000E+00 0. -1.
          2   -1    0    0  501    0  0.00000000000E+00 -0.00000000000E+00 -0.36977651544E+04  0.36977651544E+04  0.00000000000E+00 0.  1.
         23    2    1    2    0    0  0.37620508245E+03 -0.15782893280E+04 -0.29664295783E+04  0.33824633936E+04  0.93950515422E+02 0.  0.
         13    1    3    3    0    0  0.24583228875E+03 -0.12022445730E+04 -0.22236950794E+04  0.25398120666E+04  0.00000000000E+00 0.  1.
        -13    1    3    3    0    0  0.13037279370E+03 -0.37604475496E+03 -0.74273449895E+03  0.84265132706E+03  0.00000000000E+00 0. -1.
         22    1    1    2    0    0 -0.37620508245E+03  0.15782893280E+04  0.73429338797E+03  0.17809307248E+04  0.00000000000E+00 0. -1.
<mgrwt>
<rscale>  0 0.46559861E+04</rscale>
<asrwt>0</asrwt>
<pdfrwt beam="1">  1        2 0.56888695E+00 0.46559861E+04</pdfrwt>
<pdfrwt beam="2">  1       -2 0.22548138E+00 0.46559861E+04</pdfrwt>
<totfact> 0.39900893E-02</totfact>
</mgrwt>
</event>
<event>
 6    1  0.5026615E-004  0.3125179E+04  0.7818608E-02  0.8208861E-01
          2   -1    0    0  501    0  0.00000000000E+00  0.00000000000E+00  0.12844125126E+04  0.12844125126E+04  0.00000000000E+00 0.  1.
         -2   -1    0    0    0  501 -0.00000000000E+00 -0.00000000000E+00 -0.19010141965E+04  0.19010141965E+04  0.00000000000E+00 0. -1.
         23    2    1    2    0    0 -0.15068100629E+04 -0.26165809390E+03  0.11539376399E+02  0.15320959148E+04  0.90792131969E+02 0.  0.
         13    1    3    3    0    0 -0.67905402983E+03 -0.14520368314E+03  0.41576890401E+02  0.69564870649E+03  0.00000000000E+00 0. -1.
        -13    1    3    3    0    0 -0.82775603306E+03 -0.11645441076E+03 -0.30037514002E+02  0.83644720831E+03  0.00000000000E+00 0.  1.
         22    1    1    2    0    0  0.15068100629E+04  0.26165809390E+03 -0.62814106025E+03  0.16533307943E+04  0.00000000000E+00 0. -1.
<mgrwt>
<rscale>  0 0.31251793E+04</rscale>
<asrwt>0</asrwt>
<pdfrwt beam="1">  1        2 0.19760192E+00 0.31251793E+04</pdfrwt>
<pdfrwt beam="2">  1       -2 0.29246372E+00 0.31251793E+04</pdfrwt>
<totfact> 0.50549381E-01</totfact>
</mgrwt>
</event>
<event>
 6    1  0.5026615E-004  0.3882396E+04  0.7818608E-02  0.8028700E-01
          2   -1    0    0  501    0  0.00000000000E+00  0.00000000000E+00  0.27492592495E+04  0.27492592495E+04  0.00000000000E+00 0.  1.
         -2   -1    0    0    0  501 -0.00000000000E+00 -0.00000000000E+00 -0.13706418651E+04  0.13706418651E+04  0.00000000000E+00 0. -1.
         23    2    1    2    0    0  0.11668757151E+04  0.13410757700E+04 -0.13509470364E+03  0.17850761874E+04  0.90350764514E+02 0.  0.
         13    1    3    3    0    0  0.42515567031E+03  0.53789417730E+03 -0.81967584226E+02  0.69051153128E+03  0.00000000000E+00 0. -1.
        -13    1    3    3    0    0  0.74172004479E+03  0.80318159268E+03 -0.53127119414E+02  0.10945646561E+04  0.00000000000E+00 0.  1.
         22    1    1    2    0    0 -0.11668757151E+04 -0.13410757700E+04  0.15137120880E+04  0.23348249272E+04  0.00000000000E+00 0. -1.
<mgrwt>
<rscale>  0 0.38823961E+04</rscale>
<asrwt>0</asrwt>
<pdfrwt beam="1">  1        2 0.42296296E+00 0.38823961E+04</pdfrwt>
<pdfrwt beam="2">  1       -2 0.21086798E+00 0.38823961E+04</pdfrwt>
<totfact> 0.22333579E-01</totfact>
</mgrwt>
</event>
<event>
 6    1  0.5026615E-004  0.1953092E+04  0.7818608E-02  0.8628871E-01
          2   -1    0    0  501    0  0.00000000000E+00  0.00000000000E+00  0.84248358676E+03  0.84248358676E+03  0.00000000000E+00 0.  1.
         -2   -1    0    0    0  501 -0.00000000000E+00 -0.00000000000E+00 -0.11319419527E+04  0.11319419527E+04  0.00000000000E+00 0. -1.
         23    2    1    2    0    0 -0.41862921859E+03 -0.72187636980E+03  0.36371380374E+03  0.91471340911E+03  0.89760647526E+02 0.  0.
         13    1    3    3    0    0 -0.15821158800E+03 -0.20783670475E+03  0.85624025889E+02  0.27487902108E+03  0.00000000000E+00 0. -1.
        -13    1    3    3    0    0 -0.26041763059E+03 -0.51403966505E+03  0.27808977785E+03  0.63983438803E+03  0.00000000000E+00 0.  1.
         22    1    1    2    0    0  0.41862921859E+03  0.72187636980E+03 -0.65317216963E+03  0.10597121303E+04  0.00000000000E+00 0.  1.
<mgrwt>
<rscale>  0 0.19530924E+04</rscale>
<asrwt>0</asrwt>
<pdfrwt beam="1">  1        2 0.12961286E+00 0.19530924E+04</pdfrwt>
<pdfrwt beam="2">  1       -2 0.17414492E+00 0.19530924E+04</pdfrwt>
<totfact> 0.59660301E+00</totfact>
</mgrwt>
</event>
<event>
 6    1  0.5026615E-004  0.2026566E+04  0.7818608E-02  0.8594300E-01
         -2   -1    0    0    0  501 -0.00000000000E+00  0.00000000000E+00  0.47621033709E+03  0.47621033709E+03  0.00000000000E+00 0. -1.
          2   -1    0    0  501    0  0.00000000000E+00 -0.00000000000E+00 -0.21560694758E+04  0.21560694758E+04  0.00000000000E+00 0.  1.
         23    2    1    2    0    0 -0.29456663898E+02 -0.91249583303E+03 -0.27695634060E+03  0.95846602357E+03  0.91847500694E+02 0.  0.
         11    1    3    3    0    0 -0.25916550768E+02 -0.70518976918E+03 -0.17316531739E+03  0.72660202677E+03  0.00000000000E+00 0. -1.
        -11    1    3    3    0    0 -0.35401131293E+01 -0.20730606385E+03 -0.10379102322E+03  0.23186399680E+03  0.00000000000E+00 0.  1.
         22    1    1    2    0    0  0.29456663898E+02  0.91249583303E+03 -0.14029027981E+04  0.16738137893E+04  0.00000000000E+00 0. -1.
<mgrwt>
<rscale>  0 0.20265661E+04</rscale>
<asrwt>0</asrwt>
<pdfrwt beam="1">  1        2 0.33170299E+00 0.20265661E+04</pdfrwt>
<pdfrwt beam="2">  1       -2 0.73263130E-01 0.20265661E+04</pdfrwt>
<totfact> 0.85219743E+00</totfact>
</mgrwt>
</event>
<event>
 6    1  0.5026615E-004  0.1740631E+04  0.7818608E-02  0.8738524E-01
         -2   -1    0    0    0  501 -0.00000000000E+00  0.00000000000E+00  0.58540191655E+03  0.58540191655E+03  0.00000000000E+00 0. -1.
          2   -1    0    0  501    0  0.00000000000E+00 -0.00000000000E+00 -0.12938961275E+04  0.12938961275E+04  0.00000000000E+00 0.  1.
         23    2    1    2    0    0 -0.10817128988E+03 -0.79261193483E+03 -0.71944223513E+03  0.10792639408E+04  0.85315983083E+02 0.  0.
         11    1    3    3    0    0 -0.55353634253E+02 -0.15581298364E+03 -0.15659816787E+03  0.22773822007E+03  0.00000000000E+00 0.  1.
        -11    1    3    3    0    0 -0.52817655632E+02 -0.63679895118E+03 -0.56284406726E+03  0.85152572071E+03  0.00000000000E+00 0. -1.
         22    1    1    2    0    0  0.10817128988E+03  0.79261193483E+03  0.10948024173E+02  0.80003410329E+03  0.00000000000E+00 0. -1.
<mgrwt>
<rscale>  0 0.17406312E+04</rscale>
<asrwt>0</asrwt>
<pdfrwt beam="1">  1        2 0.19906094E+00 0.17406312E+04</pdfrwt>
<pdfrwt beam="2">  1       -2 0.90061834E-01 0.17406312E+04</pdfrwt>
<totfact> 0.16683445E+01</totfact>
</mgrwt>
</event>
<event>
 6    1  0.5026615E-004  0.2731992E+04  0.7818608E-02  0.8324699E-01
          2   -1    0    0  501    0  0.00000000000E+00  0.00000000000E+00  0.25944748691E+04  0.25944748691E+04  0.00000000000E+00 0.  1.
         -2   -1    0    0    0  501 -0.00000000000E+00 -0.00000000000E+00 -0.71919948382E+03  0.71919948382E+03  0.00000000000E+00 0. -1.
         23    2    1    2    0    0 -0.11162656610E+04 -0.72785318910E+03  0.58292959322E+03  0.14573400789E+04  0.90630591296E+02 0.  0.
         13    1    3    3    0    0 -0.14113100537E+03 -0.12641581641E+03  0.96982283307E+02  0.21284849680E+03  0.00000000000E+00 0. -1.
        -13    1    3    3    0    0 -0.97513465560E+03 -0.60143737268E+03  0.48594730992E+03  0.12444915821E+04  0.00000000000E+00 0.  1.
         22    1    1    2    0    0  0.11162656610E+04  0.72785318910E+03  0.12923457920E+04  0.18563342740E+04  0.00000000000E+00 0.  1.
<mgrwt>
<rscale>  0 0.27319919E+04</rscale>
<asrwt>0</asrwt>
<pdfrwt beam="1">  1        2 0.39914998E+00 0.27319919E+04</pdfrwt>
<pdfrwt beam="2">  1       -2 0.11064608E+00 0.27319919E+04</pdfrwt>
<totfact> 0.17373189E+00</totfact>
</mgrwt>
</event>
<event>
 6    1  0.5026615E-004  0.3117977E+04  0.7818608E-02  0.8210821E-01
         -1   -1    0    0    0  501 -0.00000000000E+00  0.00000000000E+00  0.93323544497E+03  0.93323544497E+03  0.00000000000E+00 0. -1.
          1   -1    0    0  501    0  0.00000000000E+00 -0.00000000000E+00 -0.26043221198E+04  0.26043221198E+04  0.00000000000E+00 0.  1.
         23    2    1    2    0    0  0.12190993965E+04 -0.60575864289E+03 -0.16948176964E+04  0.21760473616E+04  0.98123512846E+02 0.  0.
         13    1    3    3    0    0  0.79925294753E+03 -0.36761028289E+03 -0.10316756118E+04  0.13558381770E+04  0.00000000000E+00 0. -1.
        -13    1    3    3    0    0  0.41984644895E+03 -0.23814836000E+03 -0.66314208460E+03  0.82020918456E+03  0.00000000000E+00 0.  1.
         22    1    1    2    0    0 -0.12190993965E+04  0.60575864289E+03  0.23731021610E+02  0.13615102032E+04  0.00000000000E+00 0. -1.
<mgrwt>
<rscale>  0 0.31179774E+04</rscale>
<asrwt>0</asrwt>
<pdfrwt beam="1">  1        1 0.40066493E+00 0.31179774E+04</pdfrwt>
<pdfrwt beam="2">  1       -1 0.14357469E+00 0.31179774E+04</pdfrwt>
<totfact> 0.37848602E-01</totfact>
</mgrwt>
</event>
<event>
 6    1  0.5026615E-004  0.2132098E+04  0.7818608E-02  0.8547234E-01
          2   -1    0    0  501    0  0.00000000000E+00  0.00000000000E+00  0.69325006777E+03  0.69325006777E+03  0.00000000000E+00 0.  1.
         -2   -1    0    0    0  501 -0.00000000000E+00 -0.00000000000E+00 -0.16393224937E+04  0.16393224937E+04  0.00000000000E+00 0. -1.
         23    2    1    2    0    0 -0.95390070041E+03 -0.21534785269E+02 -0.98935813852E+03  0.13774474669E+04  0.90231395266E+02 0.  0.
         11    1    3    3    0    0 -0.63963267419E+03 -0.97868951443E+01 -0.60117842168E+03  0.87786174077E+03  0.00000000000E+00 0. -1.
        -11    1    3    3    0    0 -0.31426802622E+03 -0.11747890125E+02 -0.38817971683E+03  0.49958572617E+03  0.00000000000E+00 0.  1.
         22    1    1    2    0    0  0.95390070041E+03  0.21534785269E+02  0.43285712625E+02  0.95512509450E+03  0.00000000000E+00 0.  1.
<mgrwt>
<rscale>  0 0.21320980E+04</rscale>
<asrwt>0</asrwt>
<pdfrwt beam="1">  1        2 0.10665386E+00 0.21320980E+04</pdfrwt>
<pdfrwt beam="2">  1       -2 0.25220346E+00 0.21320980E+04</pdfrwt>
<totfact> 0.23742724E+00</totfact>
</mgrwt>
</event>
<event>
 6    1  0.5026615E-004  0.3047963E+04  0.7818608E-02  0.8230166E-01
          2   -1    0    0  501    0  0.00000000000E+00  0.00000000000E+00  0.25167257138E+04  0.25167257138E+04  0.00000000000E+00 0.  1.
         -2   -1    0    0    0  501 -0.00000000000E+00 -0.00000000000E+00 -0.92283392567E+03  0.92283392567E+03  0.00000000000E+00 0. -1.
         23    2    1    2    0    0  0.77648158977E+03  0.25997153419E+03  0.22462681598E+04  0.23926098851E+04  0.91392332824E+02 0.  0.
         13    1    3    3    0    0  0.27839888897E+03  0.62224525715E+02  0.68941102023E+03  0.74610011915E+03  0.00000000000E+00 0. -1.
        -13    1    3    3    0    0  0.49808270080E+03  0.19774700847E+03  0.15568571396E+04  0.16465097659E+04  0.00000000000E+00 0.  1.
         22    1    1    2    0    0 -0.77648158977E+03 -0.25997153419E+03 -0.65237637170E+03  0.10469497544E+04  0.00000000000E+00 0. -1.
<mgrwt>
<rscale>  0 0.30479632E+04</rscale>
<asrwt>0</asrwt>
<pdfrwt beam="1">  1        2 0.38718857E+00 0.30479632E+04</pdfrwt>
<pdfrwt beam="2">  1       -2 0.14197445E+00 0.30479632E+04</pdfrwt>
<totfact> 0.10048899E+00</totfact>
</mgrwt>
</event>
<event>
 6    1  0.7974775E-004  0.2912874E+04  0.7818608E-02  0.8269058E-01
         -2   -1    0    0    0  501 -0.00000000000E+00  0.00000000000E+00  0.14323962658E+04  0.14323962658E+04  0.00000000000E+00 0. -1.
          2   -1    0    0  501    0  0.00000000000E+00 -0.00000000000E+00 -0.14808807725E+04  0.14808807725E+04  0.00000000000E+00 0.  1.
         23    2    1    2    0    0 -0.11761334388E+04  0.85650176492E+03 -0.25843017068E+02  0.14581489422E+04  0.92980303710E+02 0.  0.
         13    1    3    3    0    0 -0.65967895537E+03  0.52163891670E+03  0.16682810400E+02  0.84116692739E+03  0.00000000000E+00 0.  1.
        -13    1    3    3    0    0 -0.51645448340E+03  0.33486284821E+03 -0.42525827468E+02  0.61698201476E+03  0.00000000000E+00 0. -1.
         22    1    1    2    0    0  0.11761334388E+04 -0.85650176492E+03 -0.22641489646E+02  0.14551280961E+04  0.00000000000E+00 0.  1.
<mgrwt>
<rscale>  0 0.29128736E+04</rscale>
<asrwt>0</asrwt>
<pdfrwt beam="1">  1        2 0.22782781E+00 0.29128736E+04</pdfrwt>
<pdfrwt beam="2">  1       -2 0.22036865E+00 0.29128736E+04</pdfrwt>
<totfact> 0.11030651E+00</totfact>
</mgrwt>
</event>
<event>
 6    1  0.5026615E-004  0.2407154E+04  0.7818608E-02  0.8436830E-01
          1   -1    0    0  501    0  0.00000000000E+00  0.00000000000E+00  0.17267977422E+04  0.17267977422E+04  0.00000000000E+00 0.  1.
         -1   -1    0    0    0  501 -0.00000000000E+00 -0.00000000000E+00 -0.83889232433E+03  0.83889232433E+03  0.00000000000E+00 0. -1.
         23    2    1    2    0    0 -0.11084576451E+04  0.51779389913E+02  0.93683230604E+03  0.14549455880E+04  0.88613984468E+02 0.  0.
         11    1    3    3    0    0 -0.48921295845E+03 -0.21173933309E+02  0.41294719857E+03  0.64054901684E+03  0.00000000000E+00 0.  1.
        -11    1    3    3    0    0 -0.61924468666E+03  0.72953323222E+02  0.52388510747E+03  0.81439657118E+03  0.00000000000E+00 0. -1.
         22    1    1    2    0    0  0.11084576451E+04 -0.51779389913E+02 -0.48926888138E+02  0.11107444785E+04  0.00000000000E+00 0. -1.
<mgrwt>
<rscale>  0 0.24071538E+04</rscale>
<asrwt>0</asrwt>
<pdfrwt beam="1">  1        1 0.26566119E+00 0.24071538E+04</pdfrwt>
<pdfrwt beam="2">  1       -1 0.12906036E+00 0.24071538E+04</pdfrwt>
<totfact> 0.21136323E+00</totfact>
</mgrwt>
</event>
<event>
 6    1  0.5026615E-004  0.2646862E+04  0.7818608E-02  0.8352455E-01
          2   -1    0    0  501    0  0.00000000000E+00  0.00000000000E+00  0.23101797342E+04  0.23101797342E+04  0.00000000000E+00 0.  1.
         -2   -1    0    0    0  501 -0.00000000000E+00 -0.00000000000E+00 -0.75815301754E+03  0.75815301754E+03  0.00000000000E+00 0. -1.
         23    2    1    2    0    0 -0.60440819685E+03 -0.11407497321E+04  0.11062820086E+04  0.17025701207E+04  0.90917068992E+02 0.  0.
         13    1    3    3    0    0 -0.17565778019E+03 -0.33956765749E+03  0.27430415026E+03  0.47053651994E+03  0.00000000000E+00 0. -1.
        -13    1    3    3    0    0 -0.42875041666E+03 -0.80118207463E+03  0.83197785838E+03  0.12320336007E+04  0.00000000000E+00 0.  1.
         22    1    1    2    0    0  0.60440819685E+03  0.11407497321E+04  0.44574470804E+03  0.13657626311E+04  0.00000000000E+00 0.  1.
<mgrwt>
<rscale>  0 0.26468621E+04</rscale>
<asrwt>0</asrwt>
<pdfrwt beam="1">  1        2 0.35541226E+00 0.26468621E+04</pdfrwt>
<pdfrwt beam="2">  1       -2 0.11663893E+00 0.26468621E+04</pdfrwt>
<totfact> 0.22449012E+00</totfact>
</mgrwt>
</event>
<event>
 6    1  0.5026615E-004  0.2186255E+04  0.7818608E-02  0.8524171E-01
         -2   -1    0    0    0  501 -0.00000000000E+00  0.00000000000E+00  0.12529720657E+04  0.12529720657E+04  0.00000000000E+00 0. -1.
          2   -1    0    0  501    0  0.00000000000E+00 -0.00000000000E+00 -0.95367454725E+03  0.95367454725E+03  0.00000000000E+00 0.  1.
         23    2    1    2    0    0 -0.94608573645E+03 -0.22267969947E+02  0.69827171190E+03  0.11796342030E+04  0.91538986379E+02 0.  0.
         13    1    3    3    0    0 -0.69413989279E+03 -0.38279383912E+02  0.55340855384E+03  0.88856993504E+03  0.00000000000E+00 0. -1.
        -13    1    3    3    0    0 -0.25194584366E+03  0.16011413964E+02  0.14486315807E+03  0.29106426796E+03  0.00000000000E+00 0.  1.
         22    1    1    2    0    0  0.94608573645E+03  0.22267969947E+02 -0.39897419344E+03  0.10270124100E+04  0.00000000000E+00 0.  1.
<mgrwt>
<rscale>  0 0.21862549E+04</rscale>
<asrwt>0</asrwt>
<pdfrwt beam="1">  1        2 0.14671916E+00 0.21862549E+04</pdfrwt>
<pdfrwt beam="2">  1       -2 0.19276493E+00 0.21862549E+04</pdfrwt>
<totfact> 0.36685300E+00</totfact>
</mgrwt>
</event>
<event>
 6    1  0.5026615E-004  0.2773614E+04  0.7818608E-02  0.8311507E-01
          2   -1    0    0  501    0  0.00000000000E+00  0.00000000000E+00  0.12557053712E+04  0.12557053712E+04  0.00000000000E+00 0.  1.
         -2   -1    0    0    0  501 -0.00000000000E+00 -0.00000000000E+00 -0.15315967488E+04  0.15315967488E+04  0.00000000000E+00 0. -1.
         23    2    1    2    0    0 -0.12170955986E+04  0.16833141296E+03 -0.78109116319E+03  0.14588127583E+04  0.91510095630E+02 0.  0.
         13    1    3    3    0    0 -0.63273691747E+03  0.52160581907E+02 -0.43774896800E+03  0.77116852375E+03  0.00000000000E+00 0.  1.
        -13    1    3    3    0    0 -0.58435868118E+03  0.11617083105E+03 -0.34334219519E+03  0.68764423451E+03  0.00000000000E+00 0. -1.
         22    1    1    2    0    0  0.12170955986E+04 -0.16833141296E+03  0.50519978567E+03  0.13284893617E+04  0.00000000000E+00 0. -1.
<mgrwt>
<rscale>  0 0.27736144E+04</rscale>
<asrwt>0</asrwt>
<pdfrwt beam="1">  1        2 0.19318544E+00 0.27736144E+04</pdfrwt>
<pdfrwt beam="2">  1       -2 0.23563027E+00 0.27736144E+04</pdfrwt>
<totfact> 0.12068284E+00</totfact>
</mgrwt>
</event>
<event>
 6    1  0.5026615E-004  0.1665089E+04  0.7818608E-02  0.8781530E-01
          2   -1    0    0  501    0  0.00000000000E+00  0.00000000000E+00  0.14163837969E+04  0.14163837969E+04  0.00000000000E+00 0.  1.
         -2   -1    0    0    0  501 -0.00000000000E+00 -0.00000000000E+00 -0.48936590555E+03  0.48936590555E+03  0.00000000000E+00 0. -1.
         23    2    1    2    0    0  0.21212690474E+03 -0.56435957019E+03  0.11179140426E+04  0.12733409037E+04  0.90364275484E+02 0.  0.
         13    1    3    3    0    0  0.94928957949E+02 -0.37594163735E+03  0.71424197942E+03  0.81270242212E+03  0.00000000000E+00 0. -1.
        -13    1    3    3    0    0  0.11719794679E+03 -0.18841793284E+03  0.40367206316E+03  0.46063848159E+03  0.00000000000E+00 0.  1.
         22    1    1    2    0    0 -0.21212690474E+03  0.56435957019E+03 -0.19089615123E+03  0.63240879875E+03  0.00000000000E+00 0. -1.
<mgrwt>
<rscale>  0 0.16650885E+04</rscale>
<asrwt>0</asrwt>
<pdfrwt beam="1">  1        2 0.21790520E+00 0.16650885E+04</pdfrwt>
<pdfrwt beam="2">  1       -2 0.75287063E-01 0.16650885E+04</pdfrwt>
<totfact> 0.21393917E+01</totfact>
</mgrwt>
</event>
<event>
 6    1  0.5026615E-004  0.2115199E+04  0.7818608E-02  0.8554578E-01
         -2   -1    0    0    0  501 -0.00000000000E+00  0.00000000000E+00  0.41843251915E+03  0.41843251915E+03  0.00000000000E+00 0. -1.
          2   -1    0    0  501    0  0.00000000000E+00 -0.00000000000E+00 -0.26731111380E+04  0.26731111380E+04  0.00000000000E+00 0.  1.
         23    2    1    2    0    0 -0.31203880061E+03  0.79856497860E+03 -0.20294838886E+04  0.22050974351E+04  0.92604566904E+02 0.  0.
         11    1    3    3    0    0 -0.11765349564E+03  0.37818985304E+03 -0.10298328069E+04  0.11033700740E+04  0.00000000000E+00 0. -1.
        -11    1    3    3    0    0 -0.19438530497E+03  0.42037512556E+03 -0.99965108172E+03  0.11017273611E+04  0.00000000000E+00 0.  1.
         22    1    1    2    0    0  0.31203880061E+03 -0.79856497860E+03 -0.22519473022E+03  0.88644622209E+03  0.00000000000E+00 0. -1.
<mgrwt>
<rscale>  0 0.21151989E+04</rscale>
<asrwt>0</asrwt>
<pdfrwt beam="1">  1        2 0.41124786E+00 0.21151989E+04</pdfrwt>
<pdfrwt beam="2">  1       -2 0.64374234E-01 0.21151989E+04</pdfrwt>
<totfact> 0.56561610E+00</totfact>
</mgrwt>
</event>
<event>
 6    1  0.5026615E-004  0.3637741E+04  0.7818608E-02  0.8081901E-01
          2   -1    0    0  501    0  0.00000000000E+00  0.00000000000E+00  0.22659737188E+04  0.22659737188E+04  0.00000000000E+00 0.  1.
         -2   -1    0    0    0  501 -0.00000000000E+00 -0.00000000000E+00 -0.14599858117E+04  0.14599858117E+04  0.00000000000E+00 0. -1.
         23    2    1    2    0    0  0.10658103308E+04 -0.12761131076E+04  0.11559122069E+04  0.20268823279E+04  0.87764551073E+02 0.  0.
         11    1    3    3    0    0  0.30830243236E+03 -0.38773220197E+03  0.29826874231E+03  0.57823083010E+03  0.00000000000E+00 0.  1.
        -11    1    3    3    0    0  0.75750789848E+03 -0.88838090566E+03  0.85764346457E+03  0.14486514978E+04  0.00000000000E+00 0. -1.
         22    1    1    2    0    0 -0.10658103308E+04  0.12761131076E+04 -0.34992429971E+03  0.16990772026E+04  0.00000000000E+00 0. -1.
<mgrwt>
<rscale>  0 0.36377408E+04</rscale>
<asrwt>0</asrwt>
<pdfrwt beam="1">  1        2 0.34861134E+00 0.36377408E+04</pdfrwt>
<pdfrwt beam="2">  1       -2 0.22461320E+00 0.36377408E+04</pdfrwt>
<totfact> 0.35591890E-01</totfact>
</mgrwt>
</event>
<event>
 6    1  0.5026615E-004  0.8208706E+03  0.7818608E-02  0.9530290E-01
         -2   -1    0    0    0  501 -0.00000000000E+00  0.00000000000E+00  0.10382938582E+03  0.10382938582E+03  0.00000000000E+00 0. -1.
          2   -1    0    0  501    0  0.00000000000E+00 -0.00000000000E+00 -0.16224416641E+04  0.16224416641E+04  0.00000000000E+00 0.  1.
         23    2    1    2    0    0 -0.72252318346E+01  0.25181010905E+03 -0.10037013237E+03  0.28582968721E+03  0.90354366929E+02 0.  0.
         11    1    3    3    0    0 -0.28032342900E+02  0.10868328521E+03 -0.45410900716E+01  0.11233205344E+03  0.00000000000E+00 0.  1.
        -11    1    3    3    0    0  0.20807111065E+02  0.14312682385E+03 -0.95829042300E+02  0.17349763377E+03  0.00000000000E+00 0. -1.
         22    1    1    2    0    0  0.72252318346E+01 -0.25181010905E+03 -0.14182421459E+04  0.14404413627E+04  0.00000000000E+00 0.  1.
<mgrwt>
<rscale>  0 0.82087057E+03</rscale>
<asrwt>0</asrwt>
<pdfrwt beam="1">  1        2 0.24960641E+00 0.82087057E+03</pdfrwt>
<pdfrwt beam="2">  1       -2 0.15973751E-01 0.82087057E+03</pdfrwt>
<totfact> 0.34468709E+02</totfact>
</mgrwt>
</event>
<event>
 6    1  0.5026615E-004  0.1555927E+04  0.7818608E-02  0.8848091E-01
          2   -1    0    0  501    0  0.00000000000E+00  0.00000000000E+00  0.92589238682E+03  0.92589238682E+03  0.00000000000E+00 0. -1.
         -2   -1    0    0    0  501 -0.00000000000E+00 -0.00000000000E+00 -0.65366865988E+03  0.65366865988E+03  0.00000000000E+00 0.  1.
         23    2    1    2    0    0  0.33906032737E+03 -0.27610402436E+03 -0.51329826788E+03  0.68053927711E+03  0.91995967389E+02 0.  0.
         13    1    3    3    0    0  0.16037286045E+03 -0.16853786716E+03 -0.21659043988E+03  0.31786142528E+03  0.00000000000E+00 0. -1.
        -13    1    3    3    0    0  0.17868746692E+03 -0.10756615720E+03 -0.29670782800E+03  0.36267785183E+03  0.00000000000E+00 0.  1.
         22    1    1    2    0    0 -0.33906032737E+03  0.27610402436E+03  0.78552199481E+03  0.89902176959E+03  0.00000000000E+00 0. -1.
<mgrwt>
<rscale>  0 0.15559265E+04</rscale>
<asrwt>0</asrwt>
<pdfrwt beam="1">  1        2 0.14244498E+00 0.15559265E+04</pdfrwt>
<pdfrwt beam="2">  1       -2 0.10056441E+00 0.15559265E+04</pdfrwt>
<totfact> 0.22093661E+01</totfact>
</mgrwt>
</event>
<event>
 6    1  0.5026615E-004  0.1475236E+04  0.7818608E-02  0.8901090E-01
          2   -1    0    0  501    0  0.00000000000E+00  0.00000000000E+00  0.19579575705E+04  0.19579575705E+04  0.00000000000E+00 0.  1.
         -2   -1    0    0    0  501 -0.00000000000E+00 -0.00000000000E+00 -0.27788167692E+03  0.27788167692E+03  0.00000000000E+00 0. -1.
         23    2    1    2    0    0 -0.67898947866E+03 -0.19830636536E+03  0.11448934321E+04  0.13488373344E+04  0.90714149946E+02 0.  0.
         13    1    3    3    0    0 -0.53712168078E+03 -0.11807882911E+03  0.89703536539E+03  0.10521952084E+04  0.00000000000E+00 0.  1.
        -13    1    3    3    0    0 -0.14186779789E+03 -0.80227536249E+02  0.24785806674E+03  0.29664212597E+03  0.00000000000E+00 0. -1.
         22    1    1    2    0    0  0.67898947866E+03  0.19830636536E+03  0.53518246144E+03  0.88700191303E+03  0.00000000000E+00 0.  1.
<mgrwt>
<rscale>  0 0.14752363E+04</rscale>
<asrwt>0</asrwt>
<pdfrwt beam="1">  1        2 0.30122423E+00 0.14752363E+04</pdfrwt>
<pdfrwt beam="2">  1       -2 0.42751028E-01 0.14752363E+04</pdfrwt>
<totfact> 0.35413549E+01</totfact>
</mgrwt>
</event>
<event>
 6    1  0.5026615E-004  0.2045242E+04  0.7818608E-02  0.8585756E-01
          4   -1    0    0  501    0  0.00000000000E+00  0.00000000000E+00  0.12294898553E+04  0.12294898553E+04  0.00000000000E+00 0.  1.
         -4   -1    0    0    0  501 -0.00000000000E+00 -0.00000000000E+00 -0.85055930792E+03  0.85055930792E+03  0.00000000000E+00 0. -1.
         23    2    1    2    0    0 -0.87337235438E+02 -0.46075762749E+03 -0.73201791498E+03  0.87417526018E+03  0.91688459890E+02 0.  0.
         11    1    3    3    0    0 -0.27430974361E+02 -0.33190329620E+03 -0.46884158491E+03  0.57508667880E+03  0.00000000000E+00 0. -1.
        -11    1    3    3    0    0 -0.59906261077E+02 -0.12885433129E+03 -0.26317633007E+03  0.29908858139E+03  0.00000000000E+00 0.  1.
         22    1    1    2    0    0  0.87337235438E+02  0.46075762749E+03  0.11109484623E+04  0.12058739030E+04  0.00000000000E+00 0.  1.
<mgrwt>
<rscale>  0 0.20452423E+04</rscale>
<asrwt>0</asrwt>
<pdfrwt beam="1">  1        4 0.18915228E+00 0.20452423E+04</pdfrwt>
<pdfrwt beam="2">  1       -4 0.13085528E+00 0.20452423E+04</pdfrwt>
<totfact> 0.12249387E-01</totfact>
</mgrwt>
</event>
<event>
 6    1  0.5026615E-004  0.1568268E+04  0.7818608E-02  0.8840283E-01
          2   -1    0    0  501    0  0.00000000000E+00  0.00000000000E+00  0.13436842557E+04  0.13436842557E+04  0.00000000000E+00 0.  1.
         -2   -1    0    0    0  501 -0.00000000000E+00 -0.00000000000E+00 -0.45759700530E+03  0.45759700530E+03  0.00000000000E+00 0. -1.
         23    2    1    2    0    0 -0.17464529421E+03  0.34590027384E+03 -0.33462774375E+03  0.52054199199E+03  0.94022658469E+02 0.  0.
         13    1    3    3    0    0 -0.56398744694E+02  0.96836428589E+02 -0.15580359866E+03  0.19191892471E+03  0.00000000000E+00 0. -1.
        -13    1    3    3    0    0 -0.11824654952E+03  0.24906384525E+03 -0.17882414509E+03  0.32862306728E+03  0.00000000000E+00 0.  1.
         22    1    1    2    0    0  0.17464529421E+03 -0.34590027384E+03  0.12207149941E+04  0.12807392690E+04  0.00000000000E+00 0.  1.
<mgrwt>
<rscale>  0 0.15682677E+04</rscale>
<asrwt>0</asrwt>
<pdfrwt beam="1">  1        2 0.20672065E+00 0.15682677E+04</pdfrwt>
<pdfrwt beam="2">  1       -2 0.70399540E-01 0.15682677E+04</pdfrwt>
<totfact> 0.27517247E+01</totfact>
</mgrwt>
</event>
<event>
 6    1  0.5026615E-004  0.1138635E+04  0.7818608E-02  0.9168333E-01
          2   -1    0    0  501    0  0.00000000000E+00  0.00000000000E+00  0.63495099618E+03  0.63495099618E+03  0.00000000000E+00 0.  1.
         -2   -1    0    0    0  501 -0.00000000000E+00 -0.00000000000E+00 -0.51046847793E+03  0.51046847793E+03  0.00000000000E+00 0. -1.
         23    2    1    2    0    0  0.47577471045E+02 -0.71068687407E+02  0.62508703456E+03  0.63756195883E+03  0.91853560032E+02 0.  0.
         11    1    3    3    0    0  0.68387162858E+02 -0.77336838390E+02  0.53700439587E+03  0.54683773809E+03  0.00000000000E+00 0. -1.
        -11    1    3    3    0    0 -0.20809691813E+02  0.62681509836E+01  0.88082638685E+02  0.90724220735E+02  0.00000000000E+00 0.  1.
         22    1    1    2    0    0 -0.47577471045E+02  0.71068687407E+02 -0.50060451630E+03  0.50785751528E+03  0.00000000000E+00 0. -1.
<mgrwt>
<rscale>  0 0.11386351E+04</rscale>
<asrwt>0</asrwt>
<pdfrwt beam="1">  1        2 0.97684768E-01 0.11386351E+04</pdfrwt>
<pdfrwt beam="2">  1       -2 0.78533612E-01 0.11386351E+04</pdfrwt>
<totfact> 0.66100560E+01</totfact>
</mgrwt>
</event>
<event>
 6    1  0.5026615E-004  0.2769533E+04  0.7818608E-02  0.8312790E-01
         -2   -1    0    0    0  501 -0.00000000000E+00  0.00000000000E+00  0.80208512524E+03  0.80208512524E+03  0.00000000000E+00 0. -1.
          2   -1    0    0  501    0  0.00000000000E+00 -0.00000000000E+00 -0.23907423699E+04  0.23907423699E+04  0.00000000000E+00 0.  1.
         23    2    1    2    0    0  0.60726302820E+03 -0.96770940948E+03  0.10405070659E+03  0.11506497128E+04  0.89097280191E+02 0.  0.
         13    1    3    3    0    0  0.22333522321E+03 -0.34517723351E+03  0.80094511175E+02  0.41885686717E+03  0.00000000000E+00 0.  1.
        -13    1    3    3    0    0  0.38392780499E+03 -0.62253217597E+03  0.23956195420E+02  0.73179284559E+03  0.00000000000E+00 0. -1.
         22    1    1    2    0    0 -0.60726302820E+03  0.96770940948E+03 -0.16927079513E+04  0.20421777824E+04  0.00000000000E+00 0.  1.
<mgrwt>
<rscale>  0 0.27695335E+04</rscale>
<asrwt>0</asrwt>
<pdfrwt beam="1">  1        2 0.36780652E+00 0.27695335E+04</pdfrwt>
<pdfrwt beam="2">  1       -2 0.12339771E+00 0.27695335E+04</pdfrwt>
<totfact> 0.17383126E+00</totfact>
</mgrwt>
</event>
<event>
 6    1  0.5026615E-004  0.1432327E+04  0.7818608E-02  0.8930745E-01
         -2   -1    0    0    0  501 -0.00000000000E+00  0.00000000000E+00  0.42443912131E+03  0.42443912131E+03  0.00000000000E+00 0. -1.
          2   -1    0    0  501    0  0.00000000000E+00 -0.00000000000E+00 -0.12083952395E+04  0.12083952395E+04  0.00000000000E+00 0.  1.
         23    2    1    2    0    0 -0.61658649704E+03  0.35601052222E+03 -0.44156738452E+03  0.84280116834E+03  0.91704165695E+02 0.  0.
         11    1    3    3    0    0 -0.43045596059E+03  0.24714430027E+03 -0.35594134232E+03  0.61079200906E+03  0.00000000000E+00 0. -1.
        -11    1    3    3    0    0 -0.18613053646E+03  0.10886622195E+03 -0.85626042196E+02  0.23200915927E+03  0.00000000000E+00 0.  1.
         22    1    1    2    0    0  0.61658649704E+03 -0.35601052222E+03 -0.34238873369E+03  0.79003319249E+03  0.00000000000E+00 0. -1.
<mgrwt>
<rscale>  0 0.14323271E+04</rscale>
<asrwt>0</asrwt>
<pdfrwt beam="1">  1        2 0.18590696E+00 0.14323271E+04</pdfrwt>
<pdfrwt beam="2">  1       -2 0.65298326E-01 0.14323271E+04</pdfrwt>
<totfact> 0.39303728E+01</totfact>
</mgrwt>
</event>
<event>
 6    1  0.5026615E-004  0.3551662E+04  0.7818608E-02  0.8101655E-01
          2   -1    0    0  501    0  0.00000000000E+00  0.00000000000E+00  0.28047125578E+04  0.28047125578E+04  0.00000000000E+00 0.  1.
         -2   -1    0    0    0  501 -0.00000000000E+00 -0.00000000000E+00 -0.11243847443E+04  0.11243847443E+04  0.00000000000E+00 0. -1.
         23    2    1    2    0    0  0.89605189021E+03  0.21037377241E+03 -0.83789252036E+03  0.12479408793E+04  0.90146816380E+02 0.  0.
         13    1    3    3    0    0  0.15368413973E+03  0.24251520269E+02 -0.18687247626E+03  0.24316305933E+03  0.00000000000E+00 0. -1.
        -13    1    3    3    0    0  0.74236775048E+03  0.18612225214E+03 -0.65102004411E+03  0.10047778200E+04  0.00000000000E+00 0.  1.
         22    1    1    2    0    0 -0.89605189021E+03 -0.21037377241E+03  0.25182203338E+04  0.26811564228E+04  0.00000000000E+00 0.  1.
<mgrwt>
<rscale>  0 0.35516622E+04</rscale>
<asrwt>0</asrwt>
<pdfrwt beam="1">  1        2 0.43149424E+00 0.35516622E+04</pdfrwt>
<pdfrwt beam="2">  1       -2 0.17298227E+00 0.35516622E+04</pdfrwt>
<totfact> 0.38145683E-01</totfact>
</mgrwt>
</event>
<event>
 6    1  0.5026615E-004  0.2418551E+04  0.7818608E-02  0.8432591E-01
          2   -1    0    0  501    0  0.00000000000E+00  0.00000000000E+00  0.18679369774E+04  0.18679369774E+04  0.00000000000E+00 0.  1.
         -2   -1    0    0    0  501 -0.00000000000E+00 -0.00000000000E+00 -0.78286783664E+03  0.78286783664E+03  0.00000000000E+00 0. -1.
         23    2    1    2    0    0  0.10169892758E+04  0.64724514202E+03  0.62100571386E+03  0.13590818077E+04  0.90894457315E+02 0.  0.
         13    1    3    3    0    0  0.93712343410E+03  0.56549008611E+03  0.56718936762E+03  0.12327542930E+04  0.00000000000E+00 0. -1.
        -13    1    3    3    0    0  0.79865841699E+02  0.81755055917E+02  0.53816346247E+02  0.12632751467E+03  0.00000000000E+00 0.  1.
         22    1    1    2    0    0 -0.10169892758E+04 -0.64724514202E+03  0.46406342690E+03  0.12917230064E+04  0.00000000000E+00 0. -1.
<mgrwt>
<rscale>  0 0.24185515E+04</rscale>
<asrwt>0</asrwt>
<pdfrwt beam="1">  1        2 0.28737492E+00 0.24185515E+04</pdfrwt>
<pdfrwt beam="2">  1       -2 0.12044121E+00 0.24185515E+04</pdfrwt>
<totfact> 0.37376930E+00</totfact>
</mgrwt>
</event>
<event>
 6    1  0.5026615E-004  0.9493110E+03  0.7818608E-02  0.9365956E-01
          2   -1    0    0  501    0  0.00000000000E+00  0.00000000000E+00  0.17709315332E+04  0.17709315332E+04  0.00000000000E+00 0.  1.
         -2   -1    0    0    0  501 -0.00000000000E+00 -0.00000000000E+00 -0.12721995893E+03  0.12721995893E+03  0.00000000000E+00 0. -1.
         23    2    1    2    0    0 -0.21753281594E+03  0.27774465637E+03  0.20122342735E+03  0.41314823484E+03  0.75749429578E+02 0.  0.
         13    1    3    3    0    0 -0.19664728997E+03  0.23618151085E+03  0.19988368712E+03  0.36661335368E+03  0.00000000000E+00 0. -1.
        -13    1    3    3    0    0 -0.20885525974E+02  0.41563145522E+02  0.13397402336E+01  0.46534881162E+02  0.00000000000E+00 0.  1.
         22    1    1    2    0    0  0.21753281594E+03 -0.27774465637E+03  0.14424881470E+04  0.14850032573E+04  0.00000000000E+00 0.  1.
<mgrwt>
<rscale>  0 0.94931099E+03</rscale>
<asrwt>0</asrwt>
<pdfrwt beam="1">  1        2 0.27245099E+00 0.94931099E+03</pdfrwt>
<pdfrwt beam="2">  1       -2 0.19572303E-01 0.94931099E+03</pdfrwt>
<totfact> 0.19935415E+02</totfact>
</mgrwt>
</event>
<event>
 6    1  0.5026615E-004  0.8757654E+03  0.7818608E-02  0.9456393E-01
          2   -1    0    0  501    0  0.00000000000E+00  0.00000000000E+00  0.98533782620E+03  0.98533782620E+03  0.00000000000E+00 0.  1.
         -2   -1    0    0    0  501 -0.00000000000E+00 -0.00000000000E+00 -0.19459445725E+03  0.19459445725E+03  0.00000000000E+00 0. -1.
         23    2    1    2    0    0  0.33103967968E+03  0.17103512551E+03  0.10228771289E+03  0.39710952315E+03  0.91612845658E+02 0.  0.
         13    1    3    3    0    0  0.12609678751E+03  0.43453996071E+02 -0.37766373415E+01  0.13342755557E+03  0.00000000000E+00 0. -1.
        -13    1    3    3    0    0  0.20494289217E+03  0.12758112944E+03  0.10606435023E+03  0.26368196758E+03  0.00000000000E+00 0.  1.
         22    1    1    2    0    0 -0.33103967968E+03 -0.17103512551E+03  0.68845565606E+03  0.78282276030E+03  0.00000000000E+00 0.  1.
<mgrwt>
<rscale>  0 0.87576545E+03</rscale>
<asrwt>0</asrwt>
<pdfrwt beam="1">  1        2 0.15159043E+00 0.87576545E+03</pdfrwt>
<pdfrwt beam="2">  1       -2 0.29937609E-01 0.87576545E+03</pdfrwt>
<totfact> 0.26554165E+02</totfact>
</mgrwt>
</event>
<event>
 6    1  0.5026615E-004  0.3256194E+04  0.7818608E-02  0.8174132E-01
          2   -1    0    0  501    0  0.00000000000E+00  0.00000000000E+00  0.30025251181E+04  0.30025251181E+04  0.00000000000E+00 0.  1.
         -2   -1    0    0    0  501 -0.00000000000E+00 -0.00000000000E+00 -0.88282348779E+03  0.88282348779E+03  0.00000000000E+00 0. -1.
         23    2    1    2    0    0  0.13253808821E+04 -0.93392198735E+03  0.90077664062E+03  0.18568952809E+04  0.88412480351E+02 0.  0.
         13    1    3    3    0    0  0.11083764957E+04 -0.76826165276E+03  0.78426951075E+03  0.15600650912E+04  0.00000000000E+00 0.  1.
        -13    1    3    3    0    0  0.21700438643E+03 -0.16566033459E+03  0.11650712987E+03  0.29683018966E+03  0.00000000000E+00 0. -1.
         22    1    1    2    0    0 -0.13253808821E+04  0.93392198735E+03  0.12189249897E+04  0.20284533250E+04  0.00000000000E+00 0. -1.
<mgrwt>
<rscale>  0 0.32561939E+04</rscale>
<asrwt>0</asrwt>
<pdfrwt beam="1">  1        2 0.46192694E+00 0.32561939E+04</pdfrwt>
<pdfrwt beam="2">  1       -2 0.13581900E+00 0.32561939E+04</pdfrwt>
<totfact> 0.56443864E-01</totfact>
</mgrwt>
</event>
<event>
 6    1  0.5026615E-004  0.4157666E+04  0.7818608E-02  0.7973474E-01
          2   -1    0    0  501    0  0.00000000000E+00  0.00000000000E+00  0.24404121311E+04  0.24404121311E+04  0.00000000000E+00 0.  1.
         -2   -1    0    0    0  501 -0.00000000000E+00 -0.00000000000E+00 -0.17708263682E+04  0.17708263682E+04  0.00000000000E+00 0. -1.
         23    2    1    2    0    0 -0.51593181442E+03  0.57706705955E+03 -0.16181830357E+04  0.17960618796E+04  0.90166013415E+02 0.  0.
         13    1    3    3    0    0 -0.28572279417E+03  0.25308695103E+03 -0.81168647544E+03  0.89695342928E+03  0.00000000000E+00 0. -1.
        -13    1    3    3    0    0 -0.23020902025E+03  0.32398010852E+03 -0.80649656031E+03  0.89910845036E+03  0.00000000000E+00 0.  1.
         22    1    1    2    0    0  0.51593181442E+03 -0.57706705955E+03  0.22877687986E+04  0.24151766197E+04  0.00000000000E+00 0.  1.
<mgrwt>
<rscale>  0 0.41576658E+04</rscale>
<asrwt>0</asrwt>
<pdfrwt beam="1">  1        2 0.37544802E+00 0.41576658E+04</pdfrwt>
<pdfrwt beam="2">  1       -2 0.27243482E+00 0.41576658E+04</pdfrwt>
<totfact> 0.13748224E-01</totfact>
</mgrwt>
</event>
<event>
 6    1  0.5026615E-004  0.3424327E+04  0.7818608E-02  0.8131961E-01
         -2   -1    0    0    0  501 -0.00000000000E+00  0.00000000000E+00  0.67079176172E+03  0.67079176172E+03  0.00000000000E+00 0. -1.
          2   -1    0    0  501    0  0.00000000000E+00 -0.00000000000E+00 -0.43702132589E+04  0.43702132589E+04  0.00000000000E+00 0.  1.
         23    2    1    2    0    0 -0.57675480348E+02  0.16923968711E+04 -0.22054869018E+04  0.27828256200E+04  0.11141062234E+03 0.  0.
         13    1    3    3    0    0  0.31136719797E+02  0.49297671641E+03 -0.61563403993E+03  0.78930400314E+03  0.00000000000E+00 0. -1.
        -13    1    3    3    0    0 -0.88812200145E+02  0.11994201547E+04 -0.15898528619E+04  0.19935216169E+04  0.00000000000E+00 0.  1.
         22    1    1    2    0    0  0.57675480348E+02 -0.16923968711E+04 -0.14939345954E+04  0.22581794007E+04  0.00000000000E+00 0. -1.
<mgrwt>
<rscale>  0 0.34243265E+04</rscale>
<asrwt>0</asrwt>
<pdfrwt beam="1">  1        2 0.67234053E+00 0.34243265E+04</pdfrwt>
<pdfrwt beam="2">  1       -2 0.10319873E+00 0.34243265E+04</pdfrwt>
<totfact> 0.10326631E-01</totfact>
</mgrwt>
</event>
<event>
 6    1  0.5026615E-004  0.2221763E+04  0.7818608E-02  0.8509424E-01
         -2   -1    0    0    0  501 -0.00000000000E+00  0.00000000000E+00  0.45545793767E+03  0.45545793767E+03  0.00000000000E+00 0. -1.
          2   -1    0    0  501    0  0.00000000000E+00 -0.00000000000E+00 -0.27094870729E+04  0.27094870729E+04  0.00000000000E+00 0.  1.
         23    2    1    2    0    0 -0.93904949524E+03 -0.21565071714E+03 -0.19112096880E+04  0.21422796892E+04  0.91217370101E+02 0.  0.
         11    1    3    3    0    0 -0.62214064202E+03 -0.18161598933E+03 -0.12355909824E+04  0.13952520998E+04  0.00000000000E+00 0. -1.
        -11    1    3    3    0    0 -0.31690885323E+03 -0.34034727810E+02 -0.67561870560E+03  0.74702758938E+03  0.00000000000E+00 0.  1.
         22    1    1    2    0    0  0.93904949524E+03  0.21565071714E+03 -0.34281944723E+03  0.10226653215E+04  0.00000000000E+00 0. -1.
<mgrwt>
<rscale>  0 0.22217627E+04</rscale>
<asrwt>0</asrwt>
<pdfrwt beam="1">  1        2 0.41684416E+00 0.22217627E+04</pdfrwt>
<pdfrwt beam="2">  1       -2 0.70070453E-01 0.22217627E+04</pdfrwt>
<totfact> 0.44376034E+00</totfact>
</mgrwt>
</event>
<event>
 6    1  0.5026615E-004  0.3110317E+04  0.7818608E-02  0.8212912E-01
          2   -1    0    0  501    0  0.00000000000E+00  0.00000000000E+00  0.30624605558E+04  0.30624605558E+04  0.00000000000E+00 0.  1.
         -2   -1    0    0    0  501 -0.00000000000E+00 -0.00000000000E+00 -0.78973055023E+03  0.78973055023E+03  0.00000000000E+00 0. -1.
         23    2    1    2    0    0 -0.16117261937E+03  0.51676772061E+03  0.29411725534E+04  0.29920510418E+04  0.94063583415E+02 0.  0.
         13    1    3    3    0    0 -0.54997610551E+02  0.17033039176E+03  0.74582057654E+03  0.76699772615E+03  0.00000000000E+00 0.  1.
        -13    1    3    3    0    0 -0.10617500882E+03  0.34643732885E+03  0.21953519769E+04  0.22250533157E+04  0.00000000000E+00 0. -1.
         22    1    1    2    0    0  0.16117261937E+03 -0.51676772061E+03 -0.66844254783E+03  0.86014006421E+03  0.00000000000E+00 0. -1.
<mgrwt>
<rscale>  0 0.31103174E+04</rscale>
<asrwt>0</asrwt>
<pdfrwt beam="1">  1        2 0.47114777E+00 0.31103174E+04</pdfrwt>
<pdfrwt beam="2">  1       -2 0.12149701E+00 0.31103174E+04</pdfrwt>
<totfact> 0.69395304E-01</totfact>
</mgrwt>
</event>
<event>
 6    1  0.5026615E-004  0.1389121E+04  0.7818608E-02  0.8961731E-01
         -2   -1    0    0    0  501 -0.00000000000E+00  0.00000000000E+00  0.18377854958E+03  0.18377854958E+03  0.00000000000E+00 0. -1.
          2   -1    0    0  501    0  0.00000000000E+00 -0.00000000000E+00 -0.26249770164E+04  0.26249770164E+04  0.00000000000E+00 0.  1.
         23    2    1    2    0    0 -0.24225691116E+03  0.62426222624E+03 -0.15754236721E+04  0.17142430108E+04  0.90981402478E+02 0.  0.
         11    1    3    3    0    0 -0.82857678091E+02  0.17670638209E+03 -0.56350742914E+03  0.59634818939E+03  0.00000000000E+00 0. -1.
        -11    1    3    3    0    0 -0.15939923307E+03  0.44755584415E+03 -0.10119162429E+04  0.11178948214E+04  0.00000000000E+00 0.  1.
         22    1    1    2    0    0  0.24225691116E+03 -0.62426222624E+03 -0.86577479476E+03  0.10945125551E+04  0.00000000000E+00 0. -1.
<mgrwt>
<rscale>  0 0.13891213E+04</rscale>
<asrwt>0</asrwt>
<pdfrwt beam="1">  1        2 0.40384261E+00 0.13891213E+04</pdfrwt>
<pdfrwt beam="2">  1       -2 0.28273624E-01 0.13891213E+04</pdfrwt>
<totfact> 0.32972123E+01</totfact>
</mgrwt>
</event>
<event>
 6    1  0.5026615E-004  0.1125772E+04  0.7818608E-02  0.9180430E-01
          2   -1    0    0  501    0  0.00000000000E+00  0.00000000000E+00  0.30730308706E+04  0.30730308706E+04  0.00000000000E+00 0.  1.
         -2   -1    0    0    0  501 -0.00000000000E+00 -0.00000000000E+00 -0.10310370212E+03  0.10310370212E+03  0.00000000000E+00 0. -1.
         23    2    1    2    0    0  0.40573914011E+03 -0.21180464398E+03  0.58706246099E+03  0.74971134681E+03  0.89102824878E+02 0.  0.
         13    1    3    3    0    0  0.32824021901E+03 -0.15236716147E+03  0.40512182013E+03  0.54321366185E+03  0.00000000000E+00 0. -1.
        -13    1    3    3    0    0  0.77498921101E+02 -0.59437482507E+02  0.18194064085E+03  0.20649768496E+03  0.00000000000E+00 0.  1.
         22    1    1    2    0    0 -0.40573914011E+03  0.21180464398E+03  0.23828647075E+04  0.24264232259E+04  0.00000000000E+00 0.  1.
<mgrwt>
<rscale>  0 0.11257724E+04</rscale>
<asrwt>0</asrwt>
<pdfrwt beam="1">  1        2 0.47277391E+00 0.11257724E+04</pdfrwt>
<pdfrwt beam="2">  1       -2 0.15862110E-01 0.11257724E+04</pdfrwt>
<totfact> 0.50523736E+01</totfact>
</mgrwt>
</event>
<event>
 6    1  0.5026615E-004  0.1499613E+04  0.7818608E-02  0.8884711E-01
         -1   -1    0    0    0  501 -0.00000000000E+00  0.00000000000E+00  0.89427504942E+03  0.89427504942E+03  0.00000000000E+00 0. -1.
          1   -1    0    0  501    0  0.00000000000E+00 -0.00000000000E+00 -0.62867629409E+03  0.62867629409E+03  0.00000000000E+00 0.  1.
         23    2    1    2    0    0  0.70838871658E+03  0.22836872843E+03  0.67438110387E+02  0.75273417212E+03  0.89966578421E+02 0.  0.
         11    1    3    3    0    0  0.34119803532E+03  0.11415999098E+03  0.77578212237E+02  0.36805839463E+03  0.00000000000E+00 0. -1.
        -11    1    3    3    0    0  0.36719068126E+03  0.11420873745E+03 -0.10140101849E+02  0.38467577748E+03  0.00000000000E+00 0.  1.
         22    1    1    2    0    0 -0.70838871658E+03 -0.22836872843E+03  0.19816064494E+03  0.77021717139E+03  0.00000000000E+00 0. -1.
<mgrwt>
<rscale>  0 0.14996126E+04</rscale>
<asrwt>0</asrwt>
<pdfrwt beam="1">  1        1 0.96719430E-01 0.14996126E+04</pdfrwt>
<pdfrwt beam="2">  1       -1 0.13758078E+00 0.14996126E+04</pdfrwt>
<totfact> 0.13579403E+01</totfact>
</mgrwt>
</event>
<event>
 6    1  0.5026615E-004  0.1438583E+04  0.7818608E-02  0.8926354E-01
          1   -1    0    0  501    0  0.00000000000E+00  0.00000000000E+00  0.38303348804E+03  0.38303348804E+03  0.00000000000E+00 0.  1.
         -1   -1    0    0    0  501 -0.00000000000E+00 -0.00000000000E+00 -0.13507450763E+04  0.13507450763E+04  0.00000000000E+00 0. -1.
         23    2    1    2    0    0 -0.47909384051E+03 -0.19554124128E+03 -0.10836540930E+04  0.12034862398E+04  0.79408130132E+02 0.  0.
         13    1    3    3    0    0 -0.29983139629E+03 -0.87725622296E+02 -0.59763112675E+03  0.67435718626E+03  0.00000000000E+00 0. -1.
        -13    1    3    3    0    0 -0.17926244422E+03 -0.10781561898E+03 -0.48602296621E+03  0.52912905353E+03  0.00000000000E+00 0.  1.
         22    1    1    2    0    0  0.47909384051E+03  0.19554124128E+03  0.11594250472E+03  0.53029232453E+03  0.00000000000E+00 0.  1.
<mgrwt>
<rscale>  0 0.14385835E+04</rscale>
<asrwt>0</asrwt>
<pdfrwt beam="1">  1        1 0.58928230E-01 0.14385835E+04</pdfrwt>
<pdfrwt beam="2">  1       -1 0.20780693E+00 0.14385835E+04</pdfrwt>
<totfact> 0.82206313E+00</totfact>
</mgrwt>
</event>
<event>
 6    1  0.5026615E-004  0.6076201E+03  0.7818608E-02  0.9889722E-01
         -2   -1    0    0    0  501 -0.00000000000E+00  0.00000000000E+00  0.20994134763E+03  0.20994134763E+03  0.00000000000E+00 0. -1.
          2   -1    0    0  501    0  0.00000000000E+00 -0.00000000000E+00 -0.43964926670E+03  0.43964926670E+03  0.00000000000E+00 0.  1.
         23    2    1    2    0    0 -0.28585837794E+03  0.78720178136E+02 -0.10437925149E+03  0.32769132324E+03  0.92599657145E+02 0.  0.
         13    1    3    3    0    0 -0.17673492506E+03  0.13437594571E+01 -0.63734490048E+02  0.18788061275E+03  0.00000000000E+00 0.  1.
        -13    1    3    3    0    0 -0.10912345287E+03  0.77376418678E+02 -0.40644761444E+02  0.13981071049E+03  0.00000000000E+00 0. -1.
         22    1    1    2    0    0  0.28585837794E+03 -0.78720178136E+02 -0.12532866758E+03  0.32189929108E+03  0.00000000000E+00 0. -1.
<mgrwt>
<rscale>  0 0.60762014E+03</rscale>
<asrwt>0</asrwt>
<pdfrwt beam="1">  1        2 0.67638348E-01 0.60762014E+03</pdfrwt>
<pdfrwt beam="2">  1       -2 0.32298669E-01 0.60762014E+03</pdfrwt>
<totfact> 0.64140117E+02</totfact>
</mgrwt>
</event>
<event>
 6    1  0.5026615E-004  0.1756763E+04  0.7818608E-02  0.8729637E-01
          2   -1    0    0  501    0  0.00000000000E+00  0.00000000000E+00  0.35379424924E+04  0.35379424924E+04  0.00000000000E+00 0. -1.
         -2   -1    0    0    0  501 -0.00000000000E+00 -0.00000000000E+00 -0.21807978995E+03  0.21807978995E+03  0.00000000000E+00 0.  1.
         23    2    1    2    0    0  0.73773378572E+03 -0.37243516292E+03  0.10403638505E+04  0.13313420755E+04  0.84591320757E+02 0.  0.
         11    1    3    3    0    0  0.14656766178E+03 -0.11333655951E+03  0.23336274091E+03  0.29796883066E+03  0.00000000000E+00 0.  1.
        -11    1    3    3    0    0  0.59116612394E+03 -0.25909860341E+03  0.80700110957E+03  0.10333732449E+04  0.00000000000E+00 0. -1.
         22    1    1    2    0    0 -0.73773378572E+03  0.37243516292E+03  0.22794988519E+04  0.24246802068E+04  0.00000000000E+00 0.  1.
<mgrwt>
<rscale>  0 0.17567627E+04</rscale>
<asrwt>0</asrwt>
<pdfrwt beam="1">  1        2 0.54429880E+00 0.17567627E+04</pdfrwt>
<pdfrwt beam="2">  1       -2 0.33550739E-01 0.17567627E+04</pdfrwt>
<totfact> 0.60712187E+00</totfact>
</mgrwt>
</event>
<event>
 6    1  0.5026615E-004  0.2160512E+04  0.7818608E-02  0.8535046E-01
          2   -1    0    0  501    0  0.00000000000E+00  0.00000000000E+00  0.12990674433E+04  0.12990674433E+04  0.00000000000E+00 0. -1.
         -2   -1    0    0    0  501 -0.00000000000E+00 -0.00000000000E+00 -0.89830040752E+03  0.89830040752E+03  0.00000000000E+00 0.  1.
         23    2    1    2    0    0  0.50611995170E+03  0.35436919895E+03 -0.69821601222E+03  0.93661463370E+03  0.89478699412E+02 0.  0.
         11    1    3    3    0    0  0.60389195732E+02  0.75566148974E+02 -0.13583282992E+03  0.16675627579E+03  0.00000000000E+00 0. -1.
        -11    1    3    3    0    0  0.44573075597E+03  0.27880304998E+03 -0.56238318231E+03  0.76985835791E+03  0.00000000000E+00 0.  1.
         22    1    1    2    0    0 -0.50611995170E+03 -0.35436919895E+03  0.10989830480E+04  0.12607532171E+04  0.00000000000E+00 0. -1.
<mgrwt>
<rscale>  0 0.21605118E+04</rscale>
<asrwt>0</asrwt>
<pdfrwt beam="1">  1        2 0.19985653E+00 0.21605118E+04</pdfrwt>
<pdfrwt beam="2">  1       -2 0.13820006E+00 0.21605118E+04</pdfrwt>
<totfact> 0.56386292E+00</totfact>
</mgrwt>
</event>
<event>
 6    1  0.5026615E-004  0.1871103E+04  0.7818608E-02  0.8669376E-01
         -2   -1    0    0    0  501 -0.00000000000E+00  0.00000000000E+00  0.10349800135E+04  0.10349800135E+04  0.00000000000E+00 0. -1.
          2   -1    0    0  501    0  0.00000000000E+00 -0.00000000000E+00 -0.84567458903E+03  0.84567458903E+03  0.00000000000E+00 0.  1.
         23    2    1    2    0    0 -0.73290783650E+03 -0.65488656164E+02 -0.48279180361E+03  0.88408180293E+03  0.84083575975E+02 0.  0.
         13    1    3    3    0    0 -0.35961186189E+03  0.77098253438E+01 -0.21814248828E+03  0.42067360009E+03  0.00000000000E+00 0. -1.
        -13    1    3    3    0    0 -0.37329597461E+03 -0.73198481508E+02 -0.26464931534E+03  0.46340820284E+03  0.00000000000E+00 0.  1.
         22    1    1    2    0    0  0.73290783650E+03  0.65488656164E+02  0.67209722803E+03  0.99657279956E+03  0.00000000000E+00 0. -1.
<mgrwt>
<rscale>  0 0.18711027E+04</rscale>
<asrwt>0</asrwt>
<pdfrwt beam="1">  1        2 0.13010378E+00 0.18711027E+04</pdfrwt>
<pdfrwt beam="2">  1       -2 0.15922769E+00 0.18711027E+04</pdfrwt>
<totfact> 0.76547762E+00</totfact>
</mgrwt>
</event>
<event>
 6    1  0.5026615E-004  0.6707019E+04  0.7818608E-02  0.7608429E-01
         -2   -1    0    0    0  501 -0.00000000000E+00  0.00000000000E+00  0.35878042952E+04  0.35878042952E+04  0.00000000000E+00 0. -1.
          2   -1    0    0  501    0  0.00000000000E+00 -0.00000000000E+00 -0.31345147145E+04  0.31345147145E+04  0.00000000000E+00 0.  1.
         23    2    1    2    0    0  0.22511651087E+04  0.15609208005E+04  0.21643883682E+04  0.34924463880E+04  0.91578776994E+02 0.  0.
         11    1    3    3    0    0  0.60599296300E+03  0.37752304049E+03  0.53896317854E+03  0.89455711116E+03  0.00000000000E+00 0. -1.
        -11    1    3    3    0    0  0.16451721457E+04  0.11833977600E+04  0.16254251897E+04  0.25978892768E+04  0.00000000000E+00 0.  1.
         22    1    1    2    0    0 -0.22511651087E+04 -0.15609208005E+04 -0.17110987876E+04  0.32298726218E+04  0.00000000000E+00 0.  1.
<mgrwt>
<rscale>  0 0.67070188E+04</rscale>
<asrwt>0</asrwt>
<pdfrwt beam="1">  1        2 0.48223303E+00 0.67070188E+04</pdfrwt>
<pdfrwt beam="2">  1       -2 0.55196989E+00 0.67070188E+04</pdfrwt>
<totfact> 0.77753744E-04</totfact>
</mgrwt>
</event>
<event>
 6    1  0.5026615E-004  0.4548664E+04  0.7818608E-02  0.7902172E-01
          2   -1    0    0  501    0  0.00000000000E+00  0.00000000000E+00  0.30179580894E+04  0.30179580894E+04  0.00000000000E+00 0.  1.
         -2   -1    0    0    0  501 -0.00000000000E+00 -0.00000000000E+00 -0.17139357482E+04  0.17139357482E+04  0.00000000000E+00 0. -1.
         23    2    1    2    0    0  0.14414089241E+04 -0.61786594506E+03 -0.10599221910E+04  0.18950554982E+04  0.91554780078E+02 0.  0.
         13    1    3    3    0    0  0.11430937518E+04 -0.48817525897E+03 -0.79424755110E+03  0.14750618907E+04  0.00000000000E+00 0. -1.
        -13    1    3    3    0    0  0.29831517230E+03 -0.12969068610E+03 -0.26567463991E+03  0.41999360754E+03  0.00000000000E+00 0.  1.
         22    1    1    2    0    0 -0.14414089241E+04  0.61786594506E+03  0.23639445322E+04  0.28368383394E+04  0.00000000000E+00 0.  1.
<mgrwt>
<rscale>  0 0.45486641E+04</rscale>
<asrwt>0</asrwt>
<pdfrwt beam="1">  1        2 0.46430124E+00 0.45486641E+04</pdfrwt>
<pdfrwt beam="2">  1       -2 0.26368242E+00 0.45486641E+04</pdfrwt>
<totfact> 0.67788957E-02</totfact>
</mgrwt>
</event>
<event>
 6    1  0.5026615E-004  0.3050988E+04  0.7818608E-02  0.8229319E-01
          2   -1    0    0  501    0  0.00000000000E+00  0.00000000000E+00  0.97396387199E+03  0.97396387199E+03  0.00000000000E+00 0.  1.
         -2   -1    0    0    0  501 -0.00000000000E+00 -0.00000000000E+00 -0.23893415182E+04  0.23893415182E+04  0.00000000000E+00 0. -1.
         23    2    1    2    0    0 -0.27051138662E+03  0.13691060203E+04 -0.32895943397E+02  0.13989013167E+04  0.90636888969E+02 0.  0.
         11    1    3    3    0    0 -0.18024285834E+03  0.10898806682E+04 -0.12770560350E+02  0.11047580940E+04  0.00000000000E+00 0. -1.
        -11    1    3    3    0    0 -0.90268528276E+02  0.27922535209E+03 -0.20125383048E+02  0.29414322275E+03  0.00000000000E+00 0.  1.
         22    1    1    2    0    0  0.27051138662E+03 -0.13691060203E+04 -0.13824817028E+04  0.19644040735E+04  0.00000000000E+00 0.  1.
<mgrwt>
<rscale>  0 0.30509882E+04</rscale>
<asrwt>0</asrwt>
<pdfrwt beam="1">  1        2 0.14984060E+00 0.30509882E+04</pdfrwt>
<pdfrwt beam="2">  1       -2 0.36759100E+00 0.30509882E+04</pdfrwt>
<totfact> 0.26839970E-01</totfact>
</mgrwt>
</event>
<event>
 6    1  0.5026615E-004  0.1713185E+04  0.7818608E-02  0.8753880E-01
          2   -1    0    0  501    0  0.00000000000E+00  0.00000000000E+00  0.27964849272E+03  0.27964849272E+03  0.00000000000E+00 0.  1.
         -2   -1    0    0    0  501 -0.00000000000E+00 -0.00000000000E+00 -0.26238336852E+04  0.26238336852E+04  0.00000000000E+00 0. -1.
         23    2    1    2    0    0 -0.57096726577E+03  0.61895887909E+03 -0.93220770293E+03  0.12594644944E+04  0.90143767200E+02 0.  0.
         11    1    3    3    0    0 -0.35968116629E+03  0.42900911924E+03 -0.66692634102E+03  0.87075261132E+03  0.00000000000E+00 0. -1.
        -11    1    3    3    0    0 -0.21128609948E+03  0.18994975985E+03 -0.26528136191E+03  0.38871188312E+03  0.00000000000E+00 0.  1.
         22    1    1    2    0    0  0.57096726577E+03 -0.61895887909E+03 -0.14119774895E+04  0.16440176834E+04  0.00000000000E+00 0.  1.
<mgrwt>
<rscale>  0 0.17131855E+04</rscale>
<asrwt>0</asrwt>
<pdfrwt beam="1">  1        2 0.43022843E-01 0.17131855E+04</pdfrwt>
<pdfrwt beam="2">  1       -2 0.40366674E+00 0.17131855E+04</pdfrwt>
<totfact> 0.79741363E-01</totfact>
</mgrwt>
</event>
<event>
 6    1  0.5026615E-004  0.3978578E+04  0.7818608E-02  0.8008882E-01
         -2   -1    0    0    0  501 -0.00000000000E+00  0.00000000000E+00  0.25616055804E+04  0.25616055804E+04  0.00000000000E+00 0. -1.
          2   -1    0    0  501    0  0.00000000000E+00 -0.00000000000E+00 -0.15448403368E+04  0.15448403368E+04  0.00000000000E+00 0.  1.
         23    2    1    2    0    0  0.18432915736E+04 -0.32349306616E+03 -0.18384812638E+03  0.18829702475E+04  0.96980566896E+02 0.  0.
         13    1    3    3    0    0  0.53386831765E+03 -0.65588074774E+02 -0.18658596510E+02  0.53820564784E+03  0.00000000000E+00 0. -1.
        -13    1    3    3    0    0  0.13094232560E+04 -0.25790499138E+03 -0.16518952987E+03  0.13447645997E+04  0.00000000000E+00 0.  1.
         22    1    1    2    0    0 -0.18432915736E+04  0.32349306616E+03  0.12006133700E+04  0.22234756696E+04  0.00000000000E+00 0. -1.
<mgrwt>
<rscale>  0 0.39785785E+04</rscale>
<asrwt>0</asrwt>
<pdfrwt beam="1">  1        2 0.23766774E+00 0.39785785E+04</pdfrwt>
<pdfrwt beam="2">  1       -2 0.39409317E+00 0.39785785E+04</pdfrwt>
<totfact> 0.76732005E-02</totfact>
</mgrwt>
</event>
<event>
 6    1  0.5026615E-004  0.2221991E+04  0.7818608E-02  0.8509331E-01
         -2   -1    0    0    0  501 -0.00000000000E+00  0.00000000000E+00  0.10311706860E+04  0.10311706860E+04  0.00000000000E+00 0. -1.
          2   -1    0    0  501    0  0.00000000000E+00 -0.00000000000E+00 -0.11969992307E+04  0.11969992307E+04  0.00000000000E+00 0.  1.
         23    2    1    2    0    0 -0.10020214294E+04 -0.46227437538E+03 -0.19383812428E+03  0.11242998702E+04  0.93447507193E+02 0.  0.
         11    1    3    3    0    0 -0.71764426266E+03 -0.28507514612E+03 -0.12523570060E+03  0.78228198712E+03  0.00000000000E+00 0. -1.
        -11    1    3    3    0    0 -0.28437716671E+03 -0.17719922926E+03 -0.68602423673E+02  0.34201788306E+03  0.00000000000E+00 0.  1.
         22    1    1    2    0    0  0.10020214294E+04  0.46227437538E+03  0.28009579525E+02  0.11038700465E+04  0.00000000000E+00 0. -1.
<mgrwt>
<rscale>  0 0.22219906E+04</rscale>
<asrwt>0</asrwt>
<pdfrwt beam="1">  1        2 0.18415373E+00 0.22219906E+04</pdfrwt>
<pdfrwt beam="2">  1       -2 0.15864164E+00 0.22219906E+04</pdfrwt>
<totfact> 0.44739797E+00</totfact>
</mgrwt>
</event>
<event>
 6    1  0.5026615E-004  0.2581935E+04  0.7818608E-02  0.8374364E-01
         -2   -1    0    0    0  501 -0.00000000000E+00  0.00000000000E+00  0.95716605300E+03  0.95716605300E+03  0.00000000000E+00 0. -1.
          2   -1    0    0  501    0  0.00000000000E+00 -0.00000000000E+00 -0.17411784236E+04  0.17411784236E+04  0.00000000000E+00 0.  1.
         23    2    1    2    0    0 -0.27792516634E+03  0.10480423517E+04 -0.11219869177E+04  0.15626235762E+04  0.85455418262E+02 0.  0.
         11    1    3    3    0    0 -0.10316675516E+03  0.53584523076E+03 -0.53423544361E+03  0.76366288368E+03  0.00000000000E+00 0.  1.
        -11    1    3    3    0    0 -0.17475841118E+03  0.51219712097E+03 -0.58775147405E+03  0.79896069256E+03  0.00000000000E+00 0. -1.
         22    1    1    2    0    0  0.27792516634E+03 -0.10480423517E+04  0.33797454704E+03  0.11357209004E+04  0.00000000000E+00 0. -1.
<mgrwt>
<rscale>  0 0.25819348E+04</rscale>
<asrwt>0</asrwt>
<pdfrwt beam="1">  1        2 0.26787360E+00 0.25819348E+04</pdfrwt>
<pdfrwt beam="2">  1       -2 0.14725632E+00 0.25819348E+04</pdfrwt>
<totfact> 0.25932943E+00</totfact>
</mgrwt>
</event>
<event>
 6    1  0.5026615E-004  0.3264411E+04  0.7818608E-02  0.8172010E-01
         -2   -1    0    0    0  501 -0.00000000000E+00  0.00000000000E+00  0.13783916653E+04  0.13783916653E+04  0.00000000000E+00 0. -1.
          2   -1    0    0  501    0  0.00000000000E+00 -0.00000000000E+00 -0.19327563275E+04  0.19327563275E+04  0.00000000000E+00 0.  1.
         23    2    1    2    0    0 -0.14340293643E+04  0.72195384394E+03 -0.56879106616E+03  0.17055746710E+04  0.88340878870E+02 0.  0.
         13    1    3    3    0    0 -0.10236243320E+04  0.49656763696E+03 -0.36395433904E+03  0.11945078284E+04  0.00000000000E+00 0.  1.
        -13    1    3    3    0    0 -0.41040503234E+03  0.22538620698E+03 -0.20483672712E+03  0.51106684264E+03  0.00000000000E+00 0. -1.
         22    1    1    2    0    0  0.14340293643E+04 -0.72195384394E+03  0.14426403901E+02  0.16055733218E+04  0.00000000000E+00 0. -1.
<mgrwt>
<rscale>  0 0.32644113E+04</rscale>
<asrwt>0</asrwt>
<pdfrwt beam="1">  1        2 0.29734712E+00 0.32644113E+04</pdfrwt>
<pdfrwt beam="2">  1       -2 0.21206026E+00 0.32644113E+04</pdfrwt>
<totfact> 0.67751010E-01</totfact>
</mgrwt>
</event>
<event>
 6    1  0.5026615E-004  0.2289018E+04  0.7818608E-02  0.8482264E-01
         -1   -1    0    0    0  501 -0.00000000000E+00  0.00000000000E+00  0.70720227875E+03  0.70720227875E+03  0.00000000000E+00 0. -1.
          1   -1    0    0  501    0  0.00000000000E+00 -0.00000000000E+00 -0.18522286451E+04  0.18522286451E+04  0.00000000000E+00 0.  1.
         23    2    1    2    0    0  0.26129287174E+03 -0.95792501744E+03 -0.12061798009E+04  0.15646274023E+04  0.85410139517E+02 0.  0.
         13    1    3    3    0    0  0.24755310208E+03 -0.84870322353E+03 -0.10358889019E+04  0.13618537062E+04  0.00000000000E+00 0. -1.
        -13    1    3    3    0    0  0.13739769654E+02 -0.10922179391E+03 -0.17029089898E+03  0.20277369605E+03  0.00000000000E+00 0.  1.
         22    1    1    2    0    0 -0.26129287174E+03  0.95792501744E+03  0.61153434625E+02  0.99480352152E+03  0.00000000000E+00 0. -1.
<mgrwt>
<rscale>  0 0.22890175E+04</rscale>
<asrwt>0</asrwt>
<pdfrwt beam="1">  1        1 0.28495825E+00 0.22890175E+04</pdfrwt>
<pdfrwt beam="2">  1       -1 0.10880035E+00 0.22890175E+04</pdfrwt>
<totfact> 0.26599545E+00</totfact>
</mgrwt>
</event>
<event>
 6    1  0.5026615E-004  0.4187103E+04  0.7818608E-02  0.7967830E-01
         -2   -1    0    0    0  501 -0.00000000000E+00  0.00000000000E+00  0.18371353484E+04  0.18371353484E+04  0.00000000000E+00 0. -1.
          2   -1    0    0  501    0  0.00000000000E+00 -0.00000000000E+00 -0.23857566051E+04  0.23857566051E+04  0.00000000000E+00 0.  1.
         23    2    1    2    0    0  0.70739474410E+03 -0.14466895059E+04  0.10733938993E+04  0.19372299014E+04  0.85833428557E+02 0.  0.
         11    1    3    3    0    0  0.28227693060E+03 -0.65828561916E+03  0.50524405691E+03  0.87652254904E+03  0.00000000000E+00 0.  1.
        -11    1    3    3    0    0  0.42511781350E+03 -0.78840388674E+03  0.56814984235E+03  0.10607073524E+04  0.00000000000E+00 0. -1.
         22    1    1    2    0    0 -0.70739474410E+03  0.14466895059E+04 -0.16220151559E+04  0.22856620521E+04  0.00000000000E+00 0.  1.
<mgrwt>
<rscale>  0 0.41871030E+04</rscale>
<asrwt>0</asrwt>
<pdfrwt beam="1">  1        2 0.36703948E+00 0.41871030E+04</pdfrwt>
<pdfrwt beam="2">  1       -2 0.28263621E+00 0.41871030E+04</pdfrwt>
<totfact> 0.12775105E-01</totfact>
</mgrwt>
</event>
<event>
 6    1  0.5026615E-004  0.2118866E+04  0.7818608E-02  0.8552978E-01
          2   -1    0    0  501    0  0.00000000000E+00  0.00000000000E+00  0.22100879331E+04  0.22100879331E+04  0.00000000000E+00 0.  1.
         -2   -1    0    0    0  501 -0.00000000000E+00 -0.00000000000E+00 -0.50785214302E+03  0.50785214302E+03  0.00000000000E+00 0. -1.
         23    2    1    2    0    0 -0.68326240878E+03  0.75197825654E+03  0.12291340491E+04  0.15971617417E+04  0.88522883982E+02 0.  0.
         13    1    3    3    0    0 -0.43351616744E+03  0.53793063114E+03  0.82301567666E+03  0.10745512716E+04  0.00000000000E+00 0. -1.
        -13    1    3    3    0    0 -0.24974624134E+03  0.21404762539E+03  0.40611837246E+03  0.52261047009E+03  0.00000000000E+00 0.  1.
         22    1    1    2    0    0  0.68326240878E+03 -0.75197825654E+03  0.47310174097E+03  0.11207783344E+04  0.00000000000E+00 0.  1.
<mgrwt>
<rscale>  0 0.21188656E+04</rscale>
<asrwt>0</asrwt>
<pdfrwt beam="1">  1        2 0.34001352E+00 0.21188656E+04</pdfrwt>
<pdfrwt beam="2">  1       -2 0.78131100E-01 0.21188656E+04</pdfrwt>
<totfact> 0.68353899E+00</totfact>
</mgrwt>
</event>
<event>
 6    1  0.5026615E-004  0.1367690E+04  0.7818608E-02  0.8977544E-01
          2   -1    0    0  501    0  0.00000000000E+00  0.00000000000E+00  0.89591980026E+03  0.89591980026E+03  0.00000000000E+00 0.  1.
         -2   -1    0    0    0  501 -0.00000000000E+00 -0.00000000000E+00 -0.52197109391E+03  0.52197109391E+03  0.00000000000E+00 0. -1.
         23    2    1    2    0    0 -0.32332459494E+03  0.56841801241E+03  0.38424573661E+03  0.76386959531E+03  0.90631903888E+02 0.  0.
         13    1    3    3    0    0 -0.26546882874E+03  0.51410305920E+03  0.31636140930E+03  0.65943930411E+03  0.00000000000E+00 0.  1.
        -13    1    3    3    0    0 -0.57855766201E+02  0.54314953214E+02  0.67884327309E+02  0.10443029120E+03  0.00000000000E+00 0. -1.
         22    1    1    2    0    0  0.32332459494E+03 -0.56841801241E+03 -0.10297030256E+02  0.65402129886E+03  0.00000000000E+00 0. -1.
<mgrwt>
<rscale>  0 0.13676904E+04</rscale>
<asrwt>0</asrwt>
<pdfrwt beam="1">  1        2 0.13783382E+00 0.13676904E+04</pdfrwt>
<pdfrwt beam="2">  1       -2 0.80303245E-01 0.13676904E+04</pdfrwt>
<totfact> 0.39468888E+01</totfact>
</mgrwt>
</event>
<event>
 6    1  0.5026615E-004  0.2489128E+04  0.7818608E-02  0.8406869E-01
         -2   -1    0    0    0  501 -0.00000000000E+00  0.00000000000E+00  0.44839057684E+03  0.44839057684E+03  0.00000000000E+00 0. -1.
          2   -1    0    0  501    0  0.00000000000E+00 -0.00000000000E+00 -0.34544432988E+04  0.34544432988E+04  0.00000000000E+00 0.  1.
         23    2    1    2    0    0  0.35329245076E+03  0.11619520062E+04 -0.10913214913E+04  0.16354248464E+04  0.93186962868E+02 0.  0.
         11    1    3    3    0    0  0.26076524814E+03  0.91588333543E+03 -0.90003774156E+03  0.13103086411E+04  0.00000000000E+00 0.  1.
        -11    1    3    3    0    0  0.92527202618E+02  0.24606867081E+03 -0.19128374979E+03  0.32511620524E+03  0.00000000000E+00 0. -1.
         22    1    1    2    0    0 -0.35329245076E+03 -0.11619520062E+04 -0.19147312306E+04  0.22674090293E+04  0.00000000000E+00 0. -1.
<mgrwt>
<rscale>  0 0.24891282E+04</rscale>
<asrwt>0</asrwt>
<pdfrwt beam="1">  1        2 0.53145282E+00 0.24891282E+04</pdfrwt>
<pdfrwt beam="2">  1       -2 0.68983165E-01 0.24891282E+04</pdfrwt>
<totfact> 0.15002946E+00</totfact>
</mgrwt>
</event>
<event>
 6    1  0.5026615E-004  0.1410760E+04  0.7818608E-02  0.8946066E-01
         -2   -1    0    0    0  501 -0.00000000000E+00  0.00000000000E+00  0.33738744930E+03  0.33738744930E+03  0.00000000000E+00 0. -1.
          2   -1    0    0  501    0  0.00000000000E+00 -0.00000000000E+00 -0.14747470967E+04  0.14747470967E+04  0.00000000000E+00 0.  1.
         23    2    1    2    0    0 -0.65216504478E+03 -0.63993642136E+02 -0.24642451837E+03  0.70615993688E+03  0.92316744652E+02 0.  0.
         11    1    3    3    0    0 -0.38145455888E+03 -0.61639948729E+02 -0.10348430692E+03  0.40002008143E+03  0.00000000000E+00 0.  1.
        -11    1    3    3    0    0 -0.27071048590E+03 -0.23536934070E+01 -0.14294021145E+03  0.30613985546E+03  0.00000000000E+00 0. -1.
         22    1    1    2    0    0  0.65216504478E+03  0.63993642136E+02 -0.89093512903E+03  0.11059746091E+04  0.00000000000E+00 0.  1.
<mgrwt>
<rscale>  0 0.14107603E+04</rscale>
<asrwt>0</asrwt>
<pdfrwt beam="1">  1        2 0.22688417E+00 0.14107603E+04</pdfrwt>
<pdfrwt beam="2">  1       -2 0.51905760E-01 0.14107603E+04</pdfrwt>
<totfact> 0.44707217E+01</totfact>
</mgrwt>
</event>
<event>
 6    1  0.5026615E-004  0.2436032E+04  0.7818608E-02  0.8426136E-01
         -2   -1    0    0    0  501 -0.00000000000E+00  0.00000000000E+00  0.95822714465E+03  0.95822714465E+03  0.00000000000E+00 0. -1.
          2   -1    0    0  501    0  0.00000000000E+00 -0.00000000000E+00 -0.15482367302E+04  0.15482367302E+04  0.00000000000E+00 0.  1.
         23    2    1    2    0    0  0.17501872266E+03  0.11108932734E+04 -0.77189487875E+03  0.13672546412E+04  0.94064508695E+02 0.  0.
         13    1    3    3    0    0  0.51809096436E+02  0.28496874664E+03 -0.15085488809E+03  0.32657092077E+03  0.00000000000E+00 0.  1.
        -13    1    3    3    0    0  0.12320962623E+03  0.82592452677E+03 -0.62103999067E+03  0.10406837204E+04  0.00000000000E+00 0. -1.
         22    1    1    2    0    0 -0.17501872266E+03 -0.11108932734E+04  0.18188529321E+03  0.11392092337E+04  0.00000000000E+00 0. -1.
<mgrwt>
<rscale>  0 0.24360316E+04</rscale>
<asrwt>0</asrwt>
<pdfrwt beam="1">  1        2 0.23819026E+00 0.24360316E+04</pdfrwt>
<pdfrwt beam="2">  1       -2 0.14741956E+00 0.24360316E+04</pdfrwt>
<totfact> 0.33540932E+00</totfact>
</mgrwt>
</event>
<event>
 6    1  0.5026615E-004  0.2662416E+04  0.7818608E-02  0.8347304E-01
         -2   -1    0    0    0  501 -0.00000000000E+00  0.00000000000E+00  0.61179925973E+03  0.61179925973E+03  0.00000000000E+00 0. -1.
          2   -1    0    0  501    0  0.00000000000E+00 -0.00000000000E+00 -0.28965629895E+04  0.28965629895E+04  0.00000000000E+00 0.  1.
         23    2    1    2    0    0 -0.21315263169E+03  0.25872099004E+03 -0.28392622851E+04  0.28604122180E+04  0.90427530611E+02 0.  0.
         13    1    3    3    0    0 -0.85813781548E+02  0.53753566944E+02 -0.10678710397E+04  0.10726611807E+04  0.00000000000E+00 0.  1.
        -13    1    3    3    0    0 -0.12733885015E+03  0.20496742310E+03 -0.17713912454E+04  0.17877510374E+04  0.00000000000E+00 0. -1.
         22    1    1    2    0    0  0.21315263169E+03 -0.25872099004E+03  0.55449855533E+03  0.64795003122E+03  0.00000000000E+00 0. -1.
<mgrwt>
<rscale>  0 0.26624163E+04</rscale>
<asrwt>0</asrwt>
<pdfrwt beam="1">  1        2 0.44562508E+00 0.26624163E+04</pdfrwt>
<pdfrwt beam="2">  1       -2 0.94122963E-01 0.26624163E+04</pdfrwt>
<totfact> 0.16916758E+00</totfact>
</mgrwt>
</event>
<event>
 6    1  0.5026615E-004  0.8317709E+03  0.7818608E-02  0.9515135E-01
         -2   -1    0    0    0  501 -0.00000000000E+00  0.00000000000E+00  0.43978660760E+03  0.43978660760E+03  0.00000000000E+00 0. -1.
          2   -1    0    0  501    0  0.00000000000E+00 -0.00000000000E+00 -0.39328321459E+03  0.39328321459E+03  0.00000000000E+00 0.  1.
         23    2    1    2    0    0 -0.45966076890E+02 -0.22610205855E+03 -0.31689216535E+03  0.40261500117E+03  0.91886743336E+02 0.  0.
         11    1    3    3    0    0 -0.22624211946E+02 -0.22366520306E+03 -0.28976861533E+03  0.36674763592E+03  0.00000000000E+00 0. -1.
        -11    1    3    3    0    0 -0.23341864944E+02 -0.24368554861E+01 -0.27123550019E+02  0.35867365241E+02  0.00000000000E+00 0.  1.
         22    1    1    2    0    0  0.45966076890E+02  0.22610205855E+03  0.36339555837E+03  0.43045482103E+03  0.00000000000E+00 0. -1.
<mgrwt>
<rscale>  0 0.83177086E+03</rscale>
<asrwt>0</asrwt>
<pdfrwt beam="1">  1        2 0.60505110E-01 0.83177086E+03</pdfrwt>
<pdfrwt beam="2">  1       -2 0.67659478E-01 0.83177086E+03</pdfrwt>
<totfact> 0.16335224E+02</totfact>
</mgrwt>
</event>
<event>
 6    1  0.5026615E-004  0.2118000E+04  0.7818608E-02  0.8553356E-01
         -2   -1    0    0    0  501 -0.00000000000E+00  0.00000000000E+00  0.12292738462E+04  0.12292738462E+04  0.00000000000E+00 0. -1.
          2   -1    0    0  501    0  0.00000000000E+00 -0.00000000000E+00 -0.91231146257E+03  0.91231146257E+03  0.00000000000E+00 0.  1.
         23    2    1    2    0    0 -0.99168939483E+03  0.34914405655E+03  0.26986781087E+03  0.10891750623E+04  0.90134637957E+02 0.  0.
         13    1    3    3    0    0 -0.57139048560E+03  0.15545301483E+03  0.13922477309E+03  0.60830606136E+03  0.00000000000E+00 0. -1.
        -13    1    3    3    0    0 -0.42029890923E+03  0.19369104172E+03  0.13064303778E+03  0.48086900094E+03  0.00000000000E+00 0.  1.
         22    1    1    2    0    0  0.99168939483E+03 -0.34914405655E+03  0.47094572735E+02  0.10524102464E+04  0.00000000000E+00 0.  1.
<mgrwt>
<rscale>  0 0.21179996E+04</rscale>
<asrwt>0</asrwt>
<pdfrwt beam="1">  1        2 0.14035561E+00 0.21179996E+04</pdfrwt>
<pdfrwt beam="2">  1       -2 0.18911905E+00 0.21179996E+04</pdfrwt>
<totfact> 0.41577818E+00</totfact>
</mgrwt>
</event>
<event>
 6    1  0.5026615E-004  0.1507270E+04  0.7818608E-02  0.8879633E-01
          2   -1    0    0  501    0  0.00000000000E+00  0.00000000000E+00  0.38693145367E+04  0.38693145367E+04  0.00000000000E+00 0.  1.
         -2   -1    0    0    0  501 -0.00000000000E+00 -0.00000000000E+00 -0.14678711688E+03  0.14678711688E+03  0.00000000000E+00 0. -1.
         23    2    1    2    0    0 -0.79488796675E+02  0.65959974369E+03  0.93653985410E+03  0.11519932396E+04  0.92688915676E+02 0.  0.
         13    1    3    3    0    0 -0.23310501213E+02  0.11934466456E+03  0.11665263335E+03  0.16850627672E+03  0.00000000000E+00 0. -1.
        -13    1    3    3    0    0 -0.56178295462E+02  0.54025507913E+03  0.81988722075E+03  0.98348696288E+03  0.00000000000E+00 0.  1.
         22    1    1    2    0    0  0.79488796675E+02 -0.65959974369E+03  0.27859875657E+04  0.28641084140E+04  0.00000000000E+00 0.  1.
<mgrwt>
<rscale>  0 0.15072698E+04</rscale>
<asrwt>0</asrwt>
<pdfrwt beam="1">  1        2 0.59527908E+00 0.15072698E+04</pdfrwt>
<pdfrwt beam="2">  1       -2 0.22582636E-01 0.15072698E+04</pdfrwt>
<totfact> 0.73798524E+00</totfact>
</mgrwt>
</event>
<event>
 6    1  0.5026615E-004  0.1785222E+04  0.7818608E-02  0.8714198E-01
          2   -1    0    0  501    0  0.00000000000E+00  0.00000000000E+00  0.26181578004E+04  0.26181578004E+04  0.00000000000E+00 0.  1.
         -2   -1    0    0    0  501 -0.00000000000E+00 -0.00000000000E+00 -0.30431866511E+03  0.30431866511E+03  0.00000000000E+00 0. -1.
         23    2    1    2    0    0 -0.67490951133E+02  0.76056618257E+03  0.19093156051E+04  0.20583843217E+04  0.91891182178E+02 0.  0.
         11    1    3    3    0    0  0.13471890753E+02  0.32171329188E+03  0.84718276718E+03  0.90631097037E+03  0.00000000000E+00 0. -1.
        -11    1    3    3    0    0 -0.80962841886E+02  0.43885289070E+03  0.10621328379E+04  0.11520733513E+04  0.00000000000E+00 0.  1.
         22    1    1    2    0    0  0.67490951133E+02 -0.76056618257E+03  0.40452353025E+03  0.86409214386E+03  0.00000000000E+00 0. -1.
<mgrwt>
<rscale>  0 0.17852219E+04</rscale>
<asrwt>0</asrwt>
<pdfrwt beam="1">  1        2 0.40279349E+00 0.17852219E+04</pdfrwt>
<pdfrwt beam="2">  1       -2 0.46818258E-01 0.17852219E+04</pdfrwt>
<totfact> 0.12158623E+01</totfact>
</mgrwt>
</event>
<event>
 6    1  0.5026615E-004  0.4962876E+03  0.7818608E-02  0.1014752E+00
          2   -1    0    0  501    0  0.00000000000E+00  0.00000000000E+00  0.74534477097E+03  0.74534477097E+03  0.00000000000E+00 0.  1.
         -2   -1    0    0    0  501 -0.00000000000E+00 -0.00000000000E+00 -0.82613252384E+02  0.82613252384E+02  0.00000000000E+00 0. -1.
         23    2    1    2    0    0  0.10693749706E+03  0.12431484330E+03  0.50799821952E+02  0.19443595595E+03  0.91295731082E+02 0.  0.
         13    1    3    3    0    0  0.86386201195E+02  0.13162107240E+03  0.62847521021E+02  0.16951841598E+03  0.00000000000E+00 0.  1.
        -13    1    3    3    0    0  0.20551295862E+02 -0.73062291023E+01 -0.12047699069E+02  0.24917539970E+02  0.00000000000E+00 0. -1.
         22    1    1    2    0    0 -0.10693749706E+03 -0.12431484330E+03  0.61193169664E+03  0.63352206741E+03  0.00000000000E+00 0.  1.
<mgrwt>
<rscale>  0 0.49628764E+03</rscale>
<asrwt>0</asrwt>
<pdfrwt beam="1">  1        2 0.11466842E+00 0.49628764E+03</pdfrwt>
<pdfrwt beam="2">  1       -2 0.12709732E-01 0.49628764E+03</pdfrwt>
<totfact> 0.17514298E+03</totfact>
</mgrwt>
</event>
<event>
 6    1  0.5026615E-004  0.2882961E+04  0.7818608E-02  0.8277965E-01
          2   -1    0    0  501    0  0.00000000000E+00  0.00000000000E+00  0.22015017336E+04  0.22015017336E+04  0.00000000000E+00 0.  1.
         -2   -1    0    0    0  501 -0.00000000000E+00 -0.00000000000E+00 -0.94384035730E+03  0.94384035730E+03  0.00000000000E+00 0. -1.
         23    2    1    2    0    0 -0.10719743678E+04 -0.84483629135E+03  0.11306898369E+04  0.17745761823E+04  0.88225364989E+02 0.  0.
         13    1    3    3    0    0 -0.23029452525E+03 -0.16353710202E+03  0.19243794510E+03  0.34177816608E+03  0.00000000000E+00 0. -1.
        -13    1    3    3    0    0 -0.84167984254E+03 -0.68129918933E+03  0.93825189178E+03  0.14327980162E+04  0.00000000000E+00 0.  1.
         22    1    1    2    0    0  0.10719743678E+04  0.84483629135E+03  0.12697153937E+03  0.13707659086E+04  0.00000000000E+00 0. -1.
<mgrwt>
<rscale>  0 0.28829611E+04</rscale>
<asrwt>0</asrwt>
<pdfrwt beam="1">  1        2 0.33869257E+00 0.28829611E+04</pdfrwt>
<pdfrwt beam="2">  1       -2 0.14520621E+00 0.28829611E+04</pdfrwt>
<totfact> 0.14540603E+00</totfact>
</mgrwt>
</event>
<event>
 6    1  0.5026615E-004  0.2977786E+04  0.7818608E-02  0.8250103E-01
         -2   -1    0    0    0  501 -0.00000000000E+00  0.00000000000E+00  0.12308142973E+04  0.12308142973E+04  0.00000000000E+00 0. -1.
          2   -1    0    0  501    0  0.00000000000E+00 -0.00000000000E+00 -0.18010855087E+04  0.18010855087E+04  0.00000000000E+00 0.  1.
         23    2    1    2    0    0  0.59824626171E+03  0.13294031927E+04  0.15750212790E+02  0.14607115462E+04  0.90657121646E+02 0.  0.
         11    1    3    3    0    0  0.41714104281E+03  0.10098848224E+04  0.31491644108E+02  0.10930991390E+04  0.00000000000E+00 0.  1.
        -11    1    3    3    0    0  0.18110521890E+03  0.31951837030E+03 -0.15741431318E+02  0.36761240721E+03  0.00000000000E+00 0. -1.
         22    1    1    2    0    0 -0.59824626171E+03 -0.13294031927E+04 -0.58602142416E+03  0.15711882598E+04  0.00000000000E+00 0.  1.
<mgrwt>
<rscale>  0 0.29777856E+04</rscale>
<asrwt>0</asrwt>
<pdfrwt beam="1">  1        2 0.27709008E+00 0.29777856E+04</pdfrwt>
<pdfrwt beam="2">  1       -2 0.18935604E+00 0.29777856E+04</pdfrwt>
<totfact> 0.11570103E+00</totfact>
</mgrwt>
</event>
<event>
 6    1  0.5026615E-004  0.3058501E+04  0.7818608E-02  0.8227220E-01
          2   -1    0    0  501    0  0.00000000000E+00  0.00000000000E+00  0.20658235512E+04  0.20658235512E+04  0.00000000000E+00 0.  1.
         -2   -1    0    0    0  501 -0.00000000000E+00 -0.00000000000E+00 -0.11320458757E+04  0.11320458757E+04  0.00000000000E+00 0. -1.
         23    2    1    2    0    0  0.13626079858E+04  0.11535645164E+03  0.11797229673E+04  0.18084462658E+04  0.93402262832E+02 0.  0.
         11    1    3    3    0    0  0.75970720445E+03  0.30821520436E+02  0.61244310504E+03  0.97631529719E+03  0.00000000000E+00 0.  1.
        -11    1    3    3    0    0  0.60290078137E+03  0.84534931201E+02  0.56727986227E+03  0.83213096860E+03  0.00000000000E+00 0. -1.
         22    1    1    2    0    0 -0.13626079858E+04 -0.11535645164E+03 -0.24594529176E+03  0.13894231611E+04  0.00000000000E+00 0.  1.
<mgrwt>
<rscale>  0 0.30585010E+04</rscale>
<asrwt>0</asrwt>
<pdfrwt beam="1">  1        2 0.31781901E+00 0.30585010E+04</pdfrwt>
<pdfrwt beam="2">  1       -2 0.17416090E+00 0.30585010E+04</pdfrwt>
<totfact> 0.10418577E+00</totfact>
</mgrwt>
</event>
<event>
 6    1  0.5026615E-004  0.2942724E+04  0.7818608E-02  0.8260278E-01
          2   -1    0    0  501    0  0.00000000000E+00  0.00000000000E+00  0.22283863984E+04  0.22283863984E+04  0.00000000000E+00 0.  1.
         -2   -1    0    0    0  501 -0.00000000000E+00 -0.00000000000E+00 -0.97151315547E+03  0.97151315547E+03  0.00000000000E+00 0. -1.
         23    2    1    2    0    0  0.12321616812E+04  0.43795475874E+03 -0.10097956670E+03  0.13147494187E+04  0.91336639748E+02 0.  0.
         11    1    3    3    0    0  0.36175753176E+03  0.11915628332E+03  0.11169482353E+02  0.38104000967E+03  0.00000000000E+00 0.  1.
        -11    1    3    3    0    0  0.87040414948E+03  0.31879847542E+03 -0.11214904905E+03  0.93370940906E+03  0.00000000000E+00 0. -1.
         22    1    1    2    0    0 -0.12321616812E+04 -0.43795475874E+03  0.13578528096E+04  0.18851501351E+04  0.00000000000E+00 0.  1.
<mgrwt>
<rscale>  0 0.29427244E+04</rscale>
<asrwt>0</asrwt>
<pdfrwt beam="1">  1        2 0.34282868E+00 0.29427244E+04</pdfrwt>
<pdfrwt beam="2">  1       -2 0.14946356E+00 0.29427244E+04</pdfrwt>
<totfact> 0.12947063E+00</totfact>
</mgrwt>
</event>
<event>
 6    1  0.5026615E-004  0.3434647E+04  0.7818608E-02  0.8129455E-01
         -2   -1    0    0    0  501 -0.00000000000E+00  0.00000000000E+00  0.19291281710E+04  0.19291281710E+04  0.00000000000E+00 0.  1.
          2   -1    0    0  501    0  0.00000000000E+00 -0.00000000000E+00 -0.15287737231E+04  0.15287737231E+04  0.00000000000E+00 0. -1.
         23    2    1    2    0    0  0.38916755035E+03  0.38411715435E+03 -0.14373946532E+04  0.15405289180E+04  0.90158680492E+02 0.  0.
         13    1    3    3    0    0  0.19910826453E+03  0.25180038088E+03 -0.77666559935E+03  0.84039097212E+03  0.00000000000E+00 0.  1.
        -13    1    3    3    0    0  0.19005928582E+03  0.13231677347E+03 -0.66072905387E+03  0.70013794591E+03  0.00000000000E+00 0. -1.
         22    1    1    2    0    0 -0.38916755035E+03 -0.38411715435E+03  0.18377491012E+04  0.19173729761E+04  0.00000000000E+00 0.  1.
<mgrwt>
<rscale>  0 0.34346473E+04</rscale>
<asrwt>0</asrwt>
<pdfrwt beam="1">  1        2 0.23519596E+00 0.34346473E+04</pdfrwt>
<pdfrwt beam="2">  1       -2 0.29678895E+00 0.34346473E+04</pdfrwt>
<totfact> 0.33589462E-01</totfact>
</mgrwt>
</event>
<event>
 6    1  0.5026615E-004  0.1704217E+04  0.7818608E-02  0.8758963E-01
          2   -1    0    0  501    0  0.00000000000E+00  0.00000000000E+00  0.15152664973E+04  0.15152664973E+04  0.00000000000E+00 0.  1.
         -2   -1    0    0    0  501 -0.00000000000E+00 -0.00000000000E+00 -0.47918215828E+03  0.47918215828E+03  0.00000000000E+00 0. -1.
         23    2    1    2    0    0  0.29889888629E+03 -0.41752427511E+03  0.13117360637E+04  0.14116528613E+04  0.91897961699E+02 0.  0.
         13    1    3    3    0    0  0.20558649195E+03 -0.27787587370E+03  0.99184108190E+03  0.10503473419E+04  0.00000000000E+00 0. -1.
        -13    1    3    3    0    0  0.93312394338E+02 -0.13964840140E+03  0.31989498184E+03  0.36130551941E+03  0.00000000000E+00 0.  1.
         22    1    1    2    0    0 -0.29889888629E+03  0.41752427511E+03 -0.27565172470E+03  0.58279579431E+03  0.00000000000E+00 0. -1.
<mgrwt>
<rscale>  0 0.17042167E+04</rscale>
<asrwt>0</asrwt>
<pdfrwt beam="1">  1        2 0.23311792E+00 0.17042167E+04</pdfrwt>
<pdfrwt beam="2">  1       -2 0.73720333E-01 0.17042167E+04</pdfrwt>
<totfact> 0.19635714E+01</totfact>
</mgrwt>
</event>
<event>
 6    1  0.5026615E-004  0.1936335E+04  0.7818608E-02  0.8636979E-01
          2   -1    0    0  501    0  0.00000000000E+00  0.00000000000E+00  0.16061316303E+04  0.16061316303E+04  0.00000000000E+00 0.  1.
         -2   -1    0    0    0  501 -0.00000000000E+00 -0.00000000000E+00 -0.58360615964E+03  0.58360615964E+03  0.00000000000E+00 0. -1.
         23    2    1    2    0    0  0.62982863487E+03  0.65928475120E+03  0.87338262807E+03  0.12658416486E+04  0.90649720541E+02 0.  0.
         11    1    3    3    0    0  0.45309039924E+03  0.41678992223E+03  0.56597670509E+03  0.83626214781E+03  0.00000000000E+00 0. -1.
        -11    1    3    3    0    0  0.17673823563E+03  0.24249482897E+03  0.30740592298E+03  0.42957950078E+03  0.00000000000E+00 0.  1.
         22    1    1    2    0    0 -0.62982863487E+03 -0.65928475120E+03  0.14914284257E+03  0.92389614133E+03  0.00000000000E+00 0. -1.
<mgrwt>
<rscale>  0 0.19363350E+04</rscale>
<asrwt>0</asrwt>
<pdfrwt beam="1">  1        2 0.24709717E+00 0.19363350E+04</pdfrwt>
<pdfrwt beam="2">  1       -2 0.89785564E-01 0.19363350E+04</pdfrwt>
<totfact> 0.10979568E+01</totfact>
</mgrwt>
</event>
<event>
 6    1  0.5026615E-004  0.2158114E+04  0.7818608E-02  0.8536067E-01
         -2   -1    0    0    0  501 -0.00000000000E+00  0.00000000000E+00  0.77372315237E+03  0.77372315237E+03  0.00000000000E+00 0. -1.
          2   -1    0    0  501    0  0.00000000000E+00 -0.00000000000E+00 -0.15048850524E+04  0.15048850524E+04  0.00000000000E+00 0.  1.
         23    2    1    2    0    0  0.37381706673E+03  0.36423406781E+03  0.62828116070E+03  0.82241759538E+03  0.96061588420E+02 0.  0.
         13    1    3    3    0    0  0.33561006873E+03  0.28510301077E+03  0.55138259685E+03  0.70564907220E+03  0.00000000000E+00 0. -1.
        -13    1    3    3    0    0  0.38206997993E+02  0.79131057033E+02  0.76898563842E+02  0.11676852317E+03  0.00000000000E+00 0.  1.
         22    1    1    2    0    0 -0.37381706673E+03 -0.36423406781E+03 -0.13594430607E+04  0.14561906094E+04  0.00000000000E+00 0.  1.
<mgrwt>
<rscale>  0 0.21581144E+04</rscale>
<asrwt>0</asrwt>
<pdfrwt beam="1">  1        2 0.23152078E+00 0.21581144E+04</pdfrwt>
<pdfrwt beam="2">  1       -2 0.11903433E+00 0.21581144E+04</pdfrwt>
<totfact> 0.62687004E+00</totfact>
</mgrwt>
</event>
<event>
 6    1  0.5026615E-004  0.3072714E+04  0.7818608E-02  0.8223266E-01
         -2   -1    0    0    0  501 -0.00000000000E+00  0.00000000000E+00  0.13544271418E+04  0.13544271418E+04  0.00000000000E+00 0. -1.
          2   -1    0    0  501    0  0.00000000000E+00 -0.00000000000E+00 -0.17427243736E+04  0.17427243736E+04  0.00000000000E+00 0.  1.
         23    2    1    2    0    0 -0.14858044154E+04  0.38512138388E+03 -0.16778917726E+03  0.15464880951E+04  0.86827295145E+02 0.  0.
         11    1    3    3    0    0 -0.24103857421E+03  0.91906129439E+02 -0.12618823191E+02  0.25827420619E+03  0.00000000000E+00 0. -1.
        -11    1    3    3    0    0 -0.12447658412E+04  0.29321525444E+03 -0.15517035407E+03  0.12882138889E+04  0.00000000000E+00 0.  1.
         22    1    1    2    0    0  0.14858044154E+04 -0.38512138388E+03 -0.22050805459E+03  0.15506634203E+04  0.00000000000E+00 0.  1.
<mgrwt>
<rscale>  0 0.30727142E+04</rscale>
<asrwt>0</asrwt>
<pdfrwt beam="1">  1        2 0.26811144E+00 0.30727142E+04</pdfrwt>
<pdfrwt beam="2">  1       -2 0.20837341E+00 0.30727142E+04</pdfrwt>
<totfact> 0.92688310E-01</totfact>
</mgrwt>
</event>
<event>
 6    1  0.5026615E-004  0.8665358E+03  0.7818608E-02  0.9468408E-01
         -4   -1    0    0    0  501 -0.00000000000E+00  0.00000000000E+00  0.11708492928E+04  0.11708492928E+04  0.00000000000E+00 0. -1.
          4   -1    0    0  501    0  0.00000000000E+00 -0.00000000000E+00 -0.16032896183E+03  0.16032896183E+03  0.00000000000E+00 0.  1.
         23    2    1    2    0    0  0.15504036027E+02  0.39401192459E+02  0.11658855418E+04  0.11701466496E+04  0.90339669380E+02 0.  0.
         11    1    3    3    0    0  0.16348563584E+02  0.31319497125E+02  0.14546881575E+03  0.14969757108E+03  0.00000000000E+00 0. -1.
        -11    1    3    3    0    0 -0.84452755712E+00  0.80816953336E+01  0.10204167261E+04  0.10204490785E+04  0.00000000000E+00 0.  1.
         22    1    1    2    0    0 -0.15504036027E+02 -0.39401192459E+02 -0.15536521080E+03  0.16103160506E+03  0.00000000000E+00 0.  1.
<mgrwt>
<rscale>  0 0.86653575E+03</rscale>
<asrwt>0</asrwt>
<pdfrwt beam="1">  1        4 0.24665995E-01 0.86653575E+03</pdfrwt>
<pdfrwt beam="2">  1       -4 0.18013065E+00 0.86653575E+03</pdfrwt>
<totfact> 0.56072465E+00</totfact>
</mgrwt>
</event>
<event>
 6    1  0.5026615E-004  0.3950545E+04  0.7818608E-02  0.8014598E-01
          2   -1    0    0  501    0  0.00000000000E+00  0.00000000000E+00  0.18666096973E+04  0.18666096973E+04  0.00000000000E+00 0.  1.
         -2   -1    0    0    0  501 -0.00000000000E+00 -0.00000000000E+00 -0.20902607609E+04  0.20902607609E+04  0.00000000000E+00 0. -1.
         23    2    1    2    0    0  0.12454484556E+04  0.13174260932E+04  0.67085498707E+03  0.19352635624E+04  0.91898179465E+02 0.  0.
         11    1    3    3    0    0  0.60535569626E+03  0.67258416739E+03  0.37766261848E+03  0.98053762529E+03  0.00000000000E+00 0.  1.
        -11    1    3    3    0    0  0.64009275937E+03  0.64484192584E+03  0.29319236859E+03  0.95472593707E+03  0.00000000000E+00 0. -1.
         22    1    1    2    0    0 -0.12454484556E+04 -0.13174260932E+04 -0.89450605068E+03  0.20216068959E+04  0.00000000000E+00 0. -1.
<mgrwt>
<rscale>  0 0.39505448E+04</rscale>
<asrwt>0</asrwt>
<pdfrwt beam="1">  1        2 0.28717072E+00 0.39505448E+04</pdfrwt>
<pdfrwt beam="2">  1       -2 0.32157858E+00 0.39505448E+04</pdfrwt>
<totfact> 0.14693286E-01</totfact>
</mgrwt>
</event>
<event>
 6    1  0.5026615E-004  0.7448930E+03  0.7818608E-02  0.9643397E-01
         -2   -1    0    0    0  501 -0.00000000000E+00  0.00000000000E+00  0.18381081280E+03  0.18381081280E+03  0.00000000000E+00 0. -1.
          2   -1    0    0  501    0  0.00000000000E+00 -0.00000000000E+00 -0.75466938830E+03  0.75466938830E+03  0.00000000000E+00 0.  1.
         23    2    1    2    0    0  0.22610149548E+03  0.20511133132E+03 -0.54773698098E+03  0.63233129512E+03  0.81452574912E+02 0.  0.
         11    1    3    3    0    0  0.16233945166E+03  0.93813987823E+02 -0.33591909792E+03  0.38470352510E+03  0.00000000000E+00 0. -1.
        -11    1    3    3    0    0  0.63762043826E+02  0.11129734349E+03 -0.21181788307E+03  0.24762777003E+03  0.00000000000E+00 0.  1.
         22    1    1    2    0    0 -0.22610149548E+03 -0.20511133132E+03 -0.23121594515E+02  0.30614890597E+03  0.00000000000E+00 0. -1.
<mgrwt>
<rscale>  0 0.74489300E+03</rscale>
<asrwt>0</asrwt>
<pdfrwt beam="1">  1        2 0.11610298E+00 0.74489300E+03</pdfrwt>
<pdfrwt beam="2">  1       -2 0.28278586E-01 0.74489300E+03</pdfrwt>
<totfact> 0.42794291E+02</totfact>
</mgrwt>
</event>
<event>
 6    1  0.5026615E-004  0.8833802E+03  0.7818608E-02  0.9446599E-01
          2   -1    0    0  501    0  0.00000000000E+00  0.00000000000E+00  0.16308147498E+04  0.16308147498E+04  0.00000000000E+00 0.  1.
         -2   -1    0    0    0  501 -0.00000000000E+00 -0.00000000000E+00 -0.11962741581E+03  0.11962741581E+03  0.00000000000E+00 0. -1.
         23    2    1    2    0    0 -0.37547016125E+03  0.10201855792E+03  0.11548650719E+04  0.12228521898E+04  0.10133368407E+03 0.  0.
         13    1    3    3    0    0 -0.25356840807E+03  0.27948923643E+02  0.82301334257E+03  0.86164322196E+03  0.00000000000E+00 0. -1.
        -13    1    3    3    0    0 -0.12190175317E+03  0.74069634280E+02  0.33185172935E+03  0.36120896780E+03  0.00000000000E+00 0.  1.
         22    1    1    2    0    0  0.37547016125E+03 -0.10201855792E+03  0.35632226203E+03  0.52758997580E+03  0.00000000000E+00 0. -1.
<mgrwt>
<rscale>  0 0.88338022E+03</rscale>
<asrwt>0</asrwt>
<pdfrwt beam="1">  1        2 0.25089456E+00 0.88338022E+03</pdfrwt>
<pdfrwt beam="2">  1       -2 0.18404219E-01 0.88338022E+03</pdfrwt>
<totfact> 0.26624817E+02</totfact>
</mgrwt>
</event>
<event>
 6    1  0.5026615E-004  0.1152493E+04  0.7818608E-02  0.9155487E-01
          1   -1    0    0  501    0  0.00000000000E+00  0.00000000000E+00  0.13970063181E+04  0.13970063181E+04  0.00000000000E+00 0.  1.
         -1   -1    0    0    0  501 -0.00000000000E+00 -0.00000000000E+00 -0.23769408668E+03  0.23769408668E+03  0.00000000000E+00 0. -1.
         23    2    1    2    0    0 -0.38082416064E+03  0.41735217437E+03  0.45174042341E+03  0.72923492103E+03  0.92218659293E+02 0.  0.
         13    1    3    3    0    0 -0.12648608041E+03  0.12109628837E+03  0.19421915100E+03  0.26150357208E+03  0.00000000000E+00 0. -1.
        -13    1    3    3    0    0 -0.25433808024E+03  0.29625588600E+03  0.25752127242E+03  0.46773134896E+03  0.00000000000E+00 0.  1.
         22    1    1    2    0    0  0.38082416064E+03 -0.41735217437E+03  0.70757180803E+03  0.90546548377E+03  0.00000000000E+00 0.  1.
<mgrwt>
<rscale>  0 0.11524932E+04</rscale>
<asrwt>0</asrwt>
<pdfrwt beam="1">  1        1 0.21492404E+00 0.11524932E+04</pdfrwt>
<pdfrwt beam="2">  1       -1 0.36568322E-01 0.11524932E+04</pdfrwt>
<totfact> 0.54947375E+01</totfact>
</mgrwt>
</event>
<event>
 6    1  0.5026615E-004  0.3725708E+04  0.7818608E-02  0.8062288E-01
         -2   -1    0    0    0  501 -0.00000000000E+00  0.00000000000E+00  0.13585860894E+04  0.13585860894E+04  0.00000000000E+00 0. -1.
          2   -1    0    0  501    0  0.00000000000E+00 -0.00000000000E+00 -0.25542917981E+04  0.25542917981E+04  0.00000000000E+00 0.  1.
         23    2    1    2    0    0 -0.16499237510E+04 -0.73804230458E+03 -0.10669740185E+04  0.21008274811E+04  0.89931761473E+02 0.  0.
         13    1    3    3    0    0 -0.10763495743E+04 -0.46261553324E+03 -0.64543516582E+03  0.13375829286E+04  0.00000000000E+00 0.  1.
        -13    1    3    3    0    0 -0.57357417670E+03 -0.27542677134E+03 -0.42153885273E+03  0.76324455249E+03  0.00000000000E+00 0. -1.
         22    1    1    2    0    0  0.16499237510E+04  0.73804230458E+03 -0.12873169015E+03  0.18120504064E+04  0.00000000000E+00 0. -1.
<mgrwt>
<rscale>  0 0.37257082E+04</rscale>
<asrwt>0</asrwt>
<pdfrwt beam="1">  1        2 0.39296797E+00 0.37257082E+04</pdfrwt>
<pdfrwt beam="2">  1       -2 0.20901325E+00 0.37257082E+04</pdfrwt>
<totfact> 0.30337805E-01</totfact>
</mgrwt>
</event>
<event>
 6    1  0.5026615E-004  0.3184344E+04  0.7818608E-02  0.8192964E-01
          2   -1    0    0  501    0  0.00000000000E+00  0.00000000000E+00  0.17663473428E+04  0.17663473428E+04  0.00000000000E+00 0.  1.
         -2   -1    0    0    0  501 -0.00000000000E+00 -0.00000000000E+00 -0.14351717537E+04  0.14351717537E+04  0.00000000000E+00 0. -1.
         23    2    1    2    0    0 -0.83589728290E+03 -0.17015173737E+03  0.15158312022E+04  0.17416955445E+04  0.89906924097E+02 0.  0.
         13    1    3    3    0    0 -0.59009257830E+03 -0.81408753511E+02  0.10195847862E+04  0.11808428229E+04  0.00000000000E+00 0.  1.
        -13    1    3    3    0    0 -0.24580470460E+03 -0.88742983861E+02  0.49624641597E+03  0.56085272162E+03  0.00000000000E+00 0. -1.
         22    1    1    2    0    0  0.83589728290E+03  0.17015173737E+03 -0.11846556130E+04  0.14598235519E+04  0.00000000000E+00 0. -1.
<mgrwt>
<rscale>  0 0.31843441E+04</rscale>
<asrwt>0</asrwt>
<pdfrwt beam="1">  1        2 0.27174575E+00 0.31843441E+04</pdfrwt>
<pdfrwt beam="2">  1       -2 0.22079565E+00 0.31843441E+04</pdfrwt>
<totfact> 0.74207918E-01</totfact>
</mgrwt>
</event>
<event>
 6    1  0.5026615E-004  0.1244273E+04  0.7818608E-02  0.9074963E-01
          2   -1    0    0  501    0  0.00000000000E+00  0.00000000000E+00  0.59148051243E+03  0.59148051243E+03  0.00000000000E+00 0.  1.
         -2   -1    0    0    0  501 -0.00000000000E+00 -0.00000000000E+00 -0.65438150012E+03  0.65438150012E+03  0.00000000000E+00 0. -1.
         23    2    1    2    0    0 -0.98310334628E+01  0.26553672104E+03 -0.59120642343E+03  0.65449661547E+03  0.90743512820E+02 0.  0.
         13    1    3    3    0    0  0.17025448981E+02  0.20738095215E+02 -0.11835862389E+03  0.12136184885E+03  0.00000000000E+00 0.  1.
        -13    1    3    3    0    0 -0.26856482443E+02  0.24479862582E+03 -0.47284779953E+03  0.53313476662E+03  0.00000000000E+00 0. -1.
         22    1    1    2    0    0  0.98310334628E+01 -0.26553672104E+03  0.52830543573E+03  0.59136539708E+03  0.00000000000E+00 0.  1.
<mgrwt>
<rscale>  0 0.12442731E+04</rscale>
<asrwt>0</asrwt>
<pdfrwt beam="1">  1        2 0.90997001E-01 0.12442731E+04</pdfrwt>
<pdfrwt beam="2">  1       -2 0.10067408E+00 0.12442731E+04</pdfrwt>
<totfact> 0.40369304E+01</totfact>
</mgrwt>
</event>
<event>
 6    1  0.5026615E-004  0.3865318E+04  0.7818608E-02  0.8032281E-01
          2   -1    0    0  501    0  0.00000000000E+00  0.00000000000E+00  0.36413009684E+04  0.36413009684E+04  0.00000000000E+00 0.  1.
         -2   -1    0    0    0  501 -0.00000000000E+00 -0.00000000000E+00 -0.10257794280E+04  0.10257794280E+04  0.00000000000E+00 0. -1.
         23    2    1    2    0    0 -0.17749063215E+03 -0.26567329458E+02  0.36306605320E+04  0.36361992589E+04  0.89668300924E+02 0.  0.
         11    1    3    3    0    0 -0.57842447629E+02  0.32997267192E+02  0.11050032822E+04  0.11070080497E+04  0.00000000000E+00 0.  1.
        -11    1    3    3    0    0 -0.11964818453E+03 -0.59564596650E+02  0.25256572498E+04  0.25291912092E+04  0.00000000000E+00 0. -1.
         22    1    1    2    0    0  0.17749063215E+03  0.26567329458E+02 -0.10151389916E+04  0.10308811376E+04  0.00000000000E+00 0. -1.
<mgrwt>
<rscale>  0 0.38653184E+04</rscale>
<asrwt>0</asrwt>
<pdfrwt beam="1">  1        2 0.56020014E+00 0.38653184E+04</pdfrwt>
<pdfrwt beam="2">  1       -2 0.15781222E+00 0.38653184E+04</pdfrwt>
<totfact> 0.13411844E-01</totfact>
</mgrwt>
</event>
<event>
 6    1  0.5026615E-004  0.5537520E+03  0.7818608E-02  0.1000629E+00
         -2   -1    0    0    0  501 -0.00000000000E+00  0.00000000000E+00  0.24831374621E+03  0.24831374621E+03  0.00000000000E+00 0. -1.
          2   -1    0    0  501    0  0.00000000000E+00 -0.00000000000E+00 -0.30872360281E+03  0.30872360281E+03  0.00000000000E+00 0.  1.
         23    2    1    2    0    0 -0.61361587897E+01  0.26181452661E+03 -0.95984792426E+02  0.29274570168E+03  0.88895819294E+02 0.  0.
         13    1    3    3    0    0  0.39729756597E+02  0.16055794288E+03 -0.56834724036E+02  0.17489280271E+03  0.00000000000E+00 0. -1.
        -13    1    3    3    0    0 -0.45865915387E+02  0.10125658373E+03 -0.39150068391E+02  0.11785289898E+03  0.00000000000E+00 0.  1.
         22    1    1    2    0    0  0.61361587897E+01 -0.26181452661E+03  0.35574935828E+02  0.26429164733E+03  0.00000000000E+00 0.  1.
<mgrwt>
<rscale>  0 0.55375198E+03</rscale>
<asrwt>0</asrwt>
<pdfrwt beam="1">  1        2 0.47495939E-01 0.55375198E+03</pdfrwt>
<pdfrwt beam="2">  1       -2 0.38202115E-01 0.55375198E+03</pdfrwt>
<totfact> 0.69195149E+02</totfact>
</mgrwt>
</event>
<event>
 6    1  0.5026615E-004  0.2917900E+04  0.7818608E-02  0.8267571E-01
         -1   -1    0    0    0  501 -0.00000000000E+00  0.00000000000E+00  0.12223668085E+04  0.12223668085E+04  0.00000000000E+00 0.  1.
          1   -1    0    0  501    0  0.00000000000E+00 -0.00000000000E+00 -0.17413231919E+04  0.17413231919E+04  0.00000000000E+00 0. -1.
         23    2    1    2    0    0 -0.86758070377E+03  0.76255594285E+03 -0.11627129143E+04  0.16413397009E+04  0.88920464929E+02 0.  0.
         13    1    3    3    0    0 -0.52926760057E+03  0.42363473126E+03 -0.63757980350E+03  0.93064417710E+03  0.00000000000E+00 0. -1.
        -13    1    3    3    0    0 -0.33831310321E+03  0.33892121159E+03 -0.52513311083E+03  0.71069552381E+03  0.00000000000E+00 0.  1.
         22    1    1    2    0    0  0.86758070377E+03 -0.76255594285E+03  0.64375653093E+03  0.13223502995E+04  0.00000000000E+00 0.  1.
<mgrwt>
<rscale>  0 0.29179004E+04</rscale>
<asrwt>0</asrwt>
<pdfrwt beam="1">  1        1 0.26789587E+00 0.29179004E+04</pdfrwt>
<pdfrwt beam="2">  1       -1 0.18805643E+00 0.29179004E+04</pdfrwt>
<totfact> 0.69808789E-01</totfact>
</mgrwt>
</event>
<event>
 6    1  0.5026615E-004  0.3307388E+04  0.7818608E-02  0.8161018E-01
         -2   -1    0    0    0  501 -0.00000000000E+00  0.00000000000E+00  0.10052143100E+04  0.10052143100E+04  0.00000000000E+00 0.  1.
          2   -1    0    0  501    0  0.00000000000E+00 -0.00000000000E+00 -0.27205177758E+04  0.27205177758E+04  0.00000000000E+00 0. -1.
         23    2    1    2    0    0  0.13193554691E+04 -0.51389541530E+03 -0.18178237147E+04  0.23061202539E+04  0.94446893951E+02 0.  0.
         13    1    3    3    0    0  0.39739269516E+03 -0.19728227888E+03 -0.59918441126E+03  0.74556234509E+03  0.00000000000E+00 0. -1.
        -13    1    3    3    0    0  0.92196277398E+03 -0.31661313642E+03 -0.12186393034E+04  0.15605579088E+04  0.00000000000E+00 0.  1.
         22    1    1    2    0    0 -0.13193554691E+04  0.51389541530E+03  0.10252024893E+03  0.14196118319E+04  0.00000000000E+00 0.  1.
<mgrwt>
<rscale>  0 0.33073877E+04</rscale>
<asrwt>0</asrwt>
<pdfrwt beam="1">  1        2 0.41854120E+00 0.33073877E+04</pdfrwt>
<pdfrwt beam="2">  1       -2 0.15464835E+00 0.33073877E+04</pdfrwt>
<totfact> 0.59496357E-01</totfact>
</mgrwt>
</event>
<event>
 6    1  0.5026615E-004  0.4061457E+04  0.7818608E-02  0.7992262E-01
         -2   -1    0    0    0  501 -0.00000000000E+00  0.00000000000E+00  0.17693150984E+04  0.17693150984E+04  0.00000000000E+00 0. -1.
          2   -1    0    0  501    0  0.00000000000E+00 -0.00000000000E+00 -0.23307649032E+04  0.23307649032E+04  0.00000000000E+00 0.  1.
         23    2    1    2    0    0  0.19114753010E+04 -0.59753132995E+03  0.52185952126E+02  0.20054844896E+04  0.91995368745E+02 0.  0.
         13    1    3    3    0    0  0.13596506941E+04 -0.39650196099E+03  0.50480916905E+01  0.14162942132E+04  0.00000000000E+00 0.  1.
        -13    1    3    3    0    0  0.55182460691E+03 -0.20102936897E+03  0.47137860436E+02  0.58919027646E+03  0.00000000000E+00 0. -1.
         22    1    1    2    0    0 -0.19114753010E+04  0.59753132995E+03 -0.61363575696E+03  0.20945955120E+04  0.00000000000E+00 0. -1.
<mgrwt>
<rscale>  0 0.40614567E+04</rscale>
<asrwt>0</asrwt>
<pdfrwt beam="1">  1        2 0.35857922E+00 0.40614567E+04</pdfrwt>
<pdfrwt beam="2">  1       -2 0.27220232E+00 0.40614567E+04</pdfrwt>
<totfact> 0.16063242E-01</totfact>
</mgrwt>
</event>
<event>
 6    1  0.5026615E-004  0.3222680E+04  0.7818608E-02  0.8182853E-01
          2   -1    0    0  501    0  0.00000000000E+00  0.00000000000E+00  0.25784368987E+04  0.25784368987E+04  0.00000000000E+00 0.  1.
         -2   -1    0    0    0  501 -0.00000000000E+00 -0.00000000000E+00 -0.10069731027E+04  0.10069731027E+04  0.00000000000E+00 0. -1.
         23    2    1    2    0    0 -0.43324237404E+03 -0.10848121071E+04 -0.44632977408E+03  0.12538853600E+04  0.92206107620E+02 0.  0.
         13    1    3    3    0    0 -0.31849239509E+03 -0.69542985737E+03 -0.31522002047E+03  0.82729907141E+03  0.00000000000E+00 0. -1.
        -13    1    3    3    0    0 -0.11474997896E+03 -0.38938224977E+03 -0.13110975361E+03  0.42658628857E+03  0.00000000000E+00 0.  1.
         22    1    1    2    0    0  0.43324237404E+03  0.10848121071E+04  0.20177935701E+04  0.23315246415E+04  0.00000000000E+00 0.  1.
<mgrwt>
<rscale>  0 0.32226800E+04</rscale>
<asrwt>0</asrwt>
<pdfrwt beam="1">  1        2 0.39668260E+00 0.32226800E+04</pdfrwt>
<pdfrwt beam="2">  1       -2 0.15491894E+00 0.32226800E+04</pdfrwt>
<totfact> 0.72376994E-01</totfact>
</mgrwt>
</event>
<event>
 6    1  0.5026615E-004  0.1515278E+04  0.7818608E-02  0.8874356E-01
         -2   -1    0    0    0  501 -0.00000000000E+00  0.00000000000E+00  0.75069334419E+03  0.75069334419E+03  0.00000000000E+00 0. -1.
          2   -1    0    0  501    0  0.00000000000E+00 -0.00000000000E+00 -0.76464914631E+03  0.76464914631E+03  0.00000000000E+00 0.  1.
         23    2    1    2    0    0 -0.75693296218E+01  0.22308365829E+03 -0.72821760316E+03  0.76701533359E+03  0.90487739804E+02 0.  0.
         11    1    3    3    0    0 -0.35130403521E+02  0.81705234951E+02 -0.18882693184E+03  0.20872350337E+03  0.00000000000E+00 0. -1.
        -11    1    3    3    0    0  0.27561073899E+02  0.14137842334E+03 -0.53939067132E+03  0.55829183022E+03  0.00000000000E+00 0.  1.
         22    1    1    2    0    0  0.75693296218E+01 -0.22308365829E+03  0.71426180104E+03  0.74832715691E+03  0.00000000000E+00 0. -1.
<mgrwt>
<rscale>  0 0.15152782E+04</rscale>
<asrwt>0</asrwt>
<pdfrwt beam="1">  1        2 0.11763833E+00 0.15152782E+04</pdfrwt>
<pdfrwt beam="2">  1       -2 0.11549128E+00 0.15152782E+04</pdfrwt>
<totfact> 0.20592228E+01</totfact>
</mgrwt>
</event>
<event>
 6    1  0.5026615E-004  0.3424145E+04  0.7818608E-02  0.8132006E-01
         -2   -1    0    0    0  501 -0.00000000000E+00  0.00000000000E+00  0.17542406564E+04  0.17542406564E+04  0.00000000000E+00 0. -1.
          2   -1    0    0  501    0  0.00000000000E+00 -0.00000000000E+00 -0.16709175569E+04  0.16709175569E+04  0.00000000000E+00 0.  1.
         23    2    1    2    0    0  0.83582522071E+03  0.14807099282E+04 -0.14789133339E+03  0.17091844941E+04  0.91291276425E+02 0.  0.
         13    1    3    3    0    0  0.77982393404E+02  0.14624472423E+03  0.12370649667E+02  0.16619809270E+03  0.00000000000E+00 0.  1.
        -13    1    3    3    0    0  0.75784282731E+03  0.13344652040E+04 -0.16026198306E+03  0.15429864014E+04  0.00000000000E+00 0. -1.
         22    1    1    2    0    0 -0.83582522071E+03 -0.14807099282E+04  0.23121443287E+03  0.17159737192E+04  0.00000000000E+00 0.  1.
<mgrwt>
<rscale>  0 0.34241446E+04</rscale>
<asrwt>0</asrwt>
<pdfrwt beam="1">  1        2 0.25706424E+00 0.34241446E+04</pdfrwt>
<pdfrwt beam="2">  1       -2 0.26988318E+00 0.34241446E+04</pdfrwt>
<totfact> 0.40860150E-01</totfact>
</mgrwt>
</event>
<event>
 6    1  0.5026615E-004  0.4687788E+04  0.7818608E-02  0.7878561E-01
         -2   -1    0    0    0  501 -0.00000000000E+00  0.00000000000E+00  0.22407794432E+04  0.22407794432E+04  0.00000000000E+00 0. -1.
          2   -1    0    0  501    0  0.00000000000E+00 -0.00000000000E+00 -0.24517537733E+04  0.24517537733E+04  0.00000000000E+00 0.  1.
         23    2    1    2    0    0  0.16614961952E+04  0.97298174974E+03  0.12308569353E+04  0.22870934459E+04  0.92328452684E+02 0.  0.
         13    1    3    3    0    0  0.11579083642E+04  0.66330964519E+03  0.90069853117E+03  0.16099656237E+04  0.00000000000E+00 0. -1.
        -13    1    3    3    0    0  0.50358783096E+03  0.30967210455E+03  0.33015840416E+03  0.67712782225E+03  0.00000000000E+00 0.  1.
         22    1    1    2    0    0 -0.16614961952E+04 -0.97298174974E+03 -0.14418312655E+04  0.24054397706E+04  0.00000000000E+00 0.  1.
<mgrwt>
<rscale>  0 0.46877882E+04</rscale>
<asrwt>0</asrwt>
<pdfrwt beam="1">  1        2 0.37719289E+00 0.46877882E+04</pdfrwt>
<pdfrwt beam="2">  1       -2 0.34473530E+00 0.46877882E+04</pdfrwt>
<totfact> 0.46522553E-02</totfact>
</mgrwt>
</event>
<event>
 6    1  0.5026615E-004  0.9281547E+03  0.7818608E-02  0.9391055E-01
         -2   -1    0    0    0  501 -0.00000000000E+00  0.00000000000E+00  0.70129336721E+02  0.70129336721E+02  0.00000000000E+00 0. -1.
          2   -1    0    0  501    0  0.00000000000E+00 -0.00000000000E+00 -0.30710087469E+04  0.30710087469E+04  0.00000000000E+00 0.  1.
         23    2    1    2    0    0  0.44142965871E+03 -0.12308805729E+03 -0.16252151922E+04  0.16911508927E+04  0.93038203000E+02 0.  0.
         13    1    3    3    0    0  0.88403878714E+02 -0.38313490747E+02 -0.48681607034E+03  0.49625906106E+03  0.00000000000E+00 0. -1.
        -13    1    3    3    0    0  0.35302578000E+03 -0.84774566545E+02 -0.11383991219E+04  0.11948918316E+04  0.00000000000E+00 0.  1.
         22    1    1    2    0    0 -0.44142965871E+03  0.12308805729E+03 -0.13756642180E+04  0.14499871910E+04  0.00000000000E+00 0.  1.
<mgrwt>
<rscale>  0 0.92815474E+03</rscale>
<asrwt>0</asrwt>
<pdfrwt beam="1">  1        2 0.47246291E+00 0.92815474E+03</pdfrwt>
<pdfrwt beam="2">  1       -2 0.10789128E-01 0.92815474E+03</pdfrwt>
<totfact> 0.98653324E+01</totfact>
</mgrwt>
</event>
<event>
 6    1  0.5026615E-004  0.3281828E+04  0.7818608E-02  0.8167535E-01
         -2   -1    0    0    0  501 -0.00000000000E+00  0.00000000000E+00  0.86747516637E+03  0.86747516637E+03  0.00000000000E+00 0. -1.
          2   -1    0    0  501    0  0.00000000000E+00 -0.00000000000E+00 -0.31039490821E+04  0.31039490821E+04  0.00000000000E+00 0.  1.
         23    2    1    2    0    0 -0.18108040885E+03  0.12940113189E+04  0.80117023572E+02  0.13117534064E+04  0.83802469923E+02 0.  0.
         13    1    3    3    0    0 -0.17300962639E+03  0.97767668135E+03  0.61163975491E+02  0.99474874012E+03  0.00000000000E+00 0. -1.
        -13    1    3    3    0    0 -0.80707824598E+01  0.31633463754E+03  0.18953048081E+02  0.31700466632E+03  0.00000000000E+00 0.  1.
         22    1    1    2    0    0  0.18108040885E+03 -0.12940113189E+04 -0.23165909393E+04  0.26596708420E+04  0.00000000000E+00 0.  1.
<mgrwt>
<rscale>  0 0.32818280E+04</rscale>
<asrwt>0</asrwt>
<pdfrwt beam="1">  1        2 0.47753063E+00 0.32818280E+04</pdfrwt>
<pdfrwt beam="2">  1       -2 0.13345772E+00 0.32818280E+04</pdfrwt>
<totfact> 0.50796620E-01</totfact>
</mgrwt>
</event>
<event>
 6    1  0.5026615E-004  0.8201670E+03  0.7818608E-02  0.9531276E-01
         -2   -1    0    0    0  501 -0.00000000000E+00  0.00000000000E+00  0.34401531256E+03  0.34401531256E+03  0.00000000000E+00 0. -1.
          2   -1    0    0  501    0  0.00000000000E+00 -0.00000000000E+00 -0.48884010302E+03  0.48884010302E+03  0.00000000000E+00 0.  1.
         23    2    1    2    0    0 -0.72745214551E+02 -0.23896305423E+03 -0.39735195242E+03  0.47765804079E+03  0.88732306994E+02 0.  0.
         11    1    3    3    0    0 -0.21822085806E+02 -0.13097064825E+01 -0.28251935710E+02  0.35722410772E+02  0.00000000000E+00 0.  1.
        -11    1    3    3    0    0 -0.50923128745E+02 -0.23765334775E+03 -0.36910001671E+03  0.44193563001E+03  0.00000000000E+00 0. -1.
         22    1    1    2    0    0  0.72745214551E+02  0.23896305423E+03  0.25252716196E+03  0.35519737479E+03  0.00000000000E+00 0. -1.
<mgrwt>
<rscale>  0 0.82016701E+03</rscale>
<asrwt>0</asrwt>
<pdfrwt beam="1">  1        2 0.75206169E-01 0.82016701E+03</pdfrwt>
<pdfrwt beam="2">  1       -2 0.52925433E-01 0.82016701E+03</pdfrwt>
<totfact> 0.21427014E+02</totfact>
</mgrwt>
</event>
<event>
 6    1  0.5026615E-004  0.2607887E+04  0.7818608E-02  0.8365527E-01
         -2   -1    0    0    0  501 -0.00000000000E+00  0.00000000000E+00  0.16865737404E+04  0.16865737404E+04  0.00000000000E+00 0. -1.
          2   -1    0    0  501    0  0.00000000000E+00 -0.00000000000E+00 -0.10081197840E+04  0.10081197840E+04  0.00000000000E+00 0.  1.
         23    2    1    2    0    0 -0.11567500019E+04 -0.81379328923E+02 -0.27283290892E+03  0.11948135751E+04  0.91915836792E+02 0.  0.
         11    1    3    3    0    0 -0.84497653599E+03 -0.40314069401E+02 -0.16146572667E+03  0.86120947014E+03  0.00000000000E+00 0.  1.
        -11    1    3    3    0    0 -0.31177346592E+03 -0.41065259522E+02 -0.11136718226E+03  0.33360410500E+03  0.00000000000E+00 0. -1.
         22    1    1    2    0    0  0.11567500019E+04  0.81379328923E+02  0.95128686537E+03  0.14998799493E+04  0.00000000000E+00 0.  1.
<mgrwt>
<rscale>  0 0.26078868E+04</rscale>
<asrwt>0</asrwt>
<pdfrwt beam="1">  1        2 0.15509535E+00 0.26078868E+04</pdfrwt>
<pdfrwt beam="2">  1       -2 0.25947288E+00 0.26078868E+04</pdfrwt>
<totfact> 0.12365307E+00</totfact>
</mgrwt>
</event>
<event>
 6    1  0.5636928E-004  0.1632340E+04  0.7818608E-02  0.8800923E-01
         -2   -1    0    0    0  501 -0.00000000000E+00  0.00000000000E+00  0.31242459596E+03  0.31242459596E+03  0.00000000000E+00 0. -1.
          2   -1    0    0  501    0  0.00000000000E+00 -0.00000000000E+00 -0.21321419683E+04  0.21321419683E+04  0.00000000000E+00 0.  1.
         23    2    1    2    0    0 -0.28246581785E+03 -0.47436940152E+03 -0.18076771076E+04  0.18923363267E+04  0.91798588305E+02 0.  0.
         11    1    3    3    0    0 -0.11137442726E+03 -0.20854772215E+03 -0.62773898221E+03  0.67078509617E+03  0.00000000000E+00 0.  1.
        -11    1    3    3    0    0 -0.17109139059E+03 -0.26582167937E+03 -0.11799381253E+04  0.12215512305E+04  0.00000000000E+00 0. -1.
         22    1    1    2    0    0  0.28246581785E+03  0.47436940152E+03 -0.12040264831E+02  0.55223023761E+03  0.00000000000E+00 0. -1.
<mgrwt>
<rscale>  0 0.16323402E+04</rscale>
<asrwt>0</asrwt>
<pdfrwt beam="1">  1        2 0.32802184E+00 0.16323402E+04</pdfrwt>
<pdfrwt beam="2">  1       -2 0.48065322E-01 0.16323402E+04</pdfrwt>
<totfact> 0.22124142E+01</totfact>
</mgrwt>
</event>
<event>
 6    1  0.5026615E-004  0.2098673E+04  0.7818608E-02  0.8561828E-01
         -2   -1    0    0    0  501 -0.00000000000E+00  0.00000000000E+00  0.11080277905E+04  0.11080277905E+04  0.00000000000E+00 0.  1.
          2   -1    0    0  501    0  0.00000000000E+00 -0.00000000000E+00 -0.99375379085E+03  0.99375379085E+03  0.00000000000E+00 0. -1.
         23    2    1    2    0    0  0.54486650121E+03 -0.89222465906E+03 -0.46715535499E+01  0.10495970011E+04  0.93207804564E+02 0.  0.
         13    1    3    3    0    0  0.12590981278E+03 -0.19012802307E+03 -0.38664428836E+02  0.23129393456E+03  0.00000000000E+00 0.  1.
        -13    1    3    3    0    0  0.41895668843E+03 -0.70209663600E+03  0.33992875286E+02  0.81830306649E+03  0.00000000000E+00 0. -1.
         22    1    1    2    0    0 -0.54486650121E+03  0.89222465906E+03  0.11894555319E+03  0.10521845803E+04  0.00000000000E+00 0.  1.
<mgrwt>
<rscale>  0 0.20986727E+04</rscale>
<asrwt>0</asrwt>
<pdfrwt beam="1">  1        2 0.15288520E+00 0.20986727E+04</pdfrwt>
<pdfrwt beam="2">  1       -2 0.17046581E+00 0.20986727E+04</pdfrwt>
<totfact> 0.49550197E+00</totfact>
</mgrwt>
</event>
<event>
 6    1  0.5026615E-004  0.2409866E+04  0.7818608E-02  0.8435819E-01
          2   -1    0    0  501    0  0.00000000000E+00  0.00000000000E+00  0.20116240585E+04  0.20116240585E+04  0.00000000000E+00 0.  1.
         -2   -1    0    0    0  501 -0.00000000000E+00 -0.00000000000E+00 -0.72173702518E+03  0.72173702518E+03  0.00000000000E+00 0. -1.
         23    2    1    2    0    0 -0.86133822849E+03 -0.47506641371E+03 -0.14003362036E+03  0.99777336849E+03  0.91381829303E+02 0.  0.
         11    1    3    3    0    0 -0.32925546975E+03 -0.16015821287E+03 -0.11822085366E+02  0.36633260736E+03  0.00000000000E+00 0.  1.
        -11    1    3    3    0    0 -0.53208275874E+03 -0.31490820084E+03 -0.12821153500E+03  0.63144076113E+03  0.00000000000E+00 0. -1.
         22    1    1    2    0    0  0.86133822849E+03  0.47506641371E+03  0.14299206537E+04  0.17355877152E+04  0.00000000000E+00 0.  1.
<mgrwt>
<rscale>  0 0.24098660E+04</rscale>
<asrwt>0</asrwt>
<pdfrwt beam="1">  1        2 0.30948062E+00 0.24098660E+04</pdfrwt>
<pdfrwt beam="2">  1       -2 0.11103647E+00 0.24098660E+04</pdfrwt>
<totfact> 0.37982659E+00</totfact>
</mgrwt>
</event>
<event>
 6    1  0.5026615E-004  0.2561499E+04  0.7818608E-02  0.8381398E-01
          2   -1    0    0  501    0  0.00000000000E+00  0.00000000000E+00  0.10175120169E+04  0.10175120169E+04  0.00000000000E+00 0.  1.
         -2   -1    0    0    0  501 -0.00000000000E+00 -0.00000000000E+00 -0.16120889180E+04  0.16120889180E+04  0.00000000000E+00 0. -1.
         23    2    1    2    0    0  0.68515733790E+03  0.45197584665E+03  0.70955519045E+03  0.10886650972E+04  0.89444854429E+02 0.  0.
         13    1    3    3    0    0  0.30570236515E+03  0.25486007818E+03  0.34872763708E+03  0.52916779982E+03  0.00000000000E+00 0. -1.
        -13    1    3    3    0    0  0.37945497276E+03  0.19711576847E+03  0.36082755336E+03  0.55949729740E+03  0.00000000000E+00 0.  1.
         22    1    1    2    0    0 -0.68515733790E+03 -0.45197584665E+03 -0.13041320915E+04  0.15409358376E+04  0.00000000000E+00 0. -1.
<mgrwt>
<rscale>  0 0.25614994E+04</rscale>
<asrwt>0</asrwt>
<pdfrwt beam="1">  1        2 0.15654031E+00 0.25614994E+04</pdfrwt>
<pdfrwt beam="2">  1       -2 0.24801368E+00 0.25614994E+04</pdfrwt>
<totfact> 0.14395428E+00</totfact>
</mgrwt>
</event>
<event>
 6    1  0.5026615E-004  0.3616610E+04  0.7818608E-02  0.8086698E-01
         -2   -1    0    0    0  501 -0.00000000000E+00  0.00000000000E+00  0.93847386522E+03  0.93847386522E+03  0.00000000000E+00 0. -1.
          2   -1    0    0  501    0  0.00000000000E+00 -0.00000000000E+00 -0.34843447958E+04  0.34843447958E+04  0.00000000000E+00 0.  1.
         23    2    1    2    0    0 -0.17534796838E+04  0.26307083319E+03 -0.84680073753E+03  0.19670628129E+04  0.91473252291E+02 0.  0.
         11    1    3    3    0    0 -0.10728810531E+04  0.18465557216E+03 -0.56150950054E+03  0.12249344283E+04  0.00000000000E+00 0. -1.
        -11    1    3    3    0    0 -0.68059863069E+03  0.78415261028E+02 -0.28529123699E+03  0.74212838456E+03  0.00000000000E+00 0.  1.
         22    1    1    2    0    0  0.17534796838E+04 -0.26307083319E+03 -0.16990701930E+04  0.24557558481E+04  0.00000000000E+00 0.  1.
<mgrwt>
<rscale>  0 0.36166098E+04</rscale>
<asrwt>0</asrwt>
<pdfrwt beam="1">  1        2 0.53605305E+00 0.36166098E+04</pdfrwt>
<pdfrwt beam="2">  1       -2 0.14438059E+00 0.36166098E+04</pdfrwt>
<totfact> 0.22450302E-01</totfact>
</mgrwt>
</event>
<event>
 6    1  0.5026615E-004  0.1513734E+04  0.7818608E-02  0.8875371E-01
          2   -1    0    0  501    0  0.00000000000E+00  0.00000000000E+00  0.11014775423E+04  0.11014775423E+04  0.00000000000E+00 0.  1.
         -2   -1    0    0    0  501 -0.00000000000E+00 -0.00000000000E+00 -0.52007217052E+03  0.52007217052E+03  0.00000000000E+00 0. -1.
         23    2    1    2    0    0  0.34840049198E+03  0.62043937509E+03  0.24522209214E+02  0.71797526776E+03  0.92516081779E+02 0.  0.
         13    1    3    3    0    0  0.84318707488E+01 -0.93657732772E+00 -0.33681845447E+01  0.91278852174E+01  0.00000000000E+00 0. -1.
        -13    1    3    3    0    0  0.33996862123E+03  0.62137595242E+03  0.27890393758E+02  0.70884738254E+03  0.00000000000E+00 0.  1.
         22    1    1    2    0    0 -0.34840049198E+03 -0.62043937509E+03  0.55688316252E+03  0.90357444501E+03  0.00000000000E+00 0.  1.
<mgrwt>
<rscale>  0 0.15137342E+04</rscale>
<asrwt>0</asrwt>
<pdfrwt beam="1">  1        2 0.16945808E+00 0.15137342E+04</pdfrwt>
<pdfrwt beam="2">  1       -2 0.80011103E-01 0.15137342E+04</pdfrwt>
<totfact> 0.29002369E+01</totfact>
</mgrwt>
</event>
<event>
 6    1  0.5026615E-004  0.1851058E+04  0.7818608E-02  0.8679609E-01
          2   -1    0    0  501    0  0.00000000000E+00  0.00000000000E+00  0.31257892326E+04  0.31257892326E+04  0.00000000000E+00 0.  1.
         -2   -1    0    0    0  501 -0.00000000000E+00 -0.00000000000E+00 -0.27404399345E+03  0.27404399345E+03  0.00000000000E+00 0. -1.
         23    2    1    2    0    0  0.75792921571E+03 -0.27551271603E+03  0.60297820325E+03  0.10108340351E+04  0.88536885689E+02 0.  0.
         13    1    3    3    0    0  0.46101113668E+03 -0.18039720466E+03  0.31762891869E+03  0.58818581212E+03  0.00000000000E+00 0. -1.
        -13    1    3    3    0    0  0.29691807903E+03 -0.95115511376E+02  0.28534928456E+03  0.42264822295E+03  0.00000000000E+00 0.  1.
         22    1    1    2    0    0 -0.75792921571E+03  0.27551271603E+03  0.22487670359E+04  0.23889991909E+04  0.00000000000E+00 0.  1.
<mgrwt>
<rscale>  0 0.18510578E+04</rscale>
<asrwt>0</asrwt>
<pdfrwt beam="1">  1        2 0.48089063E+00 0.18510578E+04</pdfrwt>
<pdfrwt beam="2">  1       -2 0.42160617E-01 0.18510578E+04</pdfrwt>
<totfact> 0.72935359E+00</totfact>
</mgrwt>
</event>
<event>
 6    1  0.5026615E-004  0.2363841E+04  0.7818608E-02  0.8453166E-01
         -2   -1    0    0    0  501 -0.00000000000E+00  0.00000000000E+00  0.90066945484E+03  0.90066945484E+03  0.00000000000E+00 0. -1.
          2   -1    0    0  501    0  0.00000000000E+00 -0.00000000000E+00 -0.15509969523E+04  0.15509969523E+04  0.00000000000E+00 0.  1.
         23    2    1    2    0    0 -0.56934072158E+03  0.43425825373E+03 -0.12984743753E+04  0.14858385429E+04  0.94611753776E+02 0.  0.
         11    1    3    3    0    0 -0.10707472731E+03  0.38728765688E+02 -0.20023035134E+03  0.23034128618E+03  0.00000000000E+00 0. -1.
        -11    1    3    3    0    0 -0.46226599426E+03  0.39552948804E+03 -0.10982440240E+04  0.12554972567E+04  0.00000000000E+00 0.  1.
         22    1    1    2    0    0  0.56934072158E+03 -0.43425825373E+03  0.64814687784E+03  0.96582786429E+03  0.00000000000E+00 0. -1.
<mgrwt>
<rscale>  0 0.23638406E+04</rscale>
<asrwt>0</asrwt>
<pdfrwt beam="1">  1        2 0.23861491E+00 0.23638406E+04</pdfrwt>
<pdfrwt beam="2">  1       -2 0.13856453E+00 0.23638406E+04</pdfrwt>
<totfact> 0.39535755E+00</totfact>
</mgrwt>
</event>
<event>
 6    1  0.5026615E-004  0.8174192E+03  0.7818608E-02  0.9535140E-01
          2   -1    0    0  501    0  0.00000000000E+00  0.00000000000E+00  0.95734601883E+03  0.95734601883E+03  0.00000000000E+00 0.  1.
         -2   -1    0    0    0  501 -0.00000000000E+00 -0.00000000000E+00 -0.17448604123E+03  0.17448604123E+03  0.00000000000E+00 0. -1.
         23    2    1    2    0    0 -0.33470407951E+03 -0.14437713319E+03  0.15606745432E+03  0.40675244742E+03  0.90658291152E+02 0.  0.
         13    1    3    3    0    0 -0.19095007014E+03 -0.12537307511E+03  0.73905438238E+02  0.24008821514E+03  0.00000000000E+00 0.  1.
        -13    1    3    3    0    0 -0.14375400937E+03 -0.19004058077E+02  0.82162016081E+02  0.16666423227E+03  0.00000000000E+00 0. -1.
         22    1    1    2    0    0  0.33470407951E+03  0.14437713319E+03  0.62679252328E+03  0.72507961264E+03  0.00000000000E+00 0.  1.
<mgrwt>
<rscale>  0 0.81741915E+03</rscale>
<asrwt>0</asrwt>
<pdfrwt beam="1">  1        2 0.14728400E+00 0.81741915E+03</pdfrwt>
<pdfrwt beam="2">  1       -2 0.26844007E-01 0.81741915E+03</pdfrwt>
<totfact> 0.33943198E+02</totfact>
</mgrwt>
</event>
<event>
 6    1  0.5026615E-004  0.2914069E+04  0.7818608E-02  0.8268704E-01
         -2   -1    0    0    0  501 -0.00000000000E+00  0.00000000000E+00  0.11905396369E+04  0.11905396369E+04  0.00000000000E+00 0. -1.
          2   -1    0    0  501    0  0.00000000000E+00 -0.00000000000E+00 -0.17831825513E+04  0.17831825513E+04  0.00000000000E+00 0.  1.
         23    2    1    2    0    0  0.29534231017E+03 -0.14245642891E+04 -0.34392532231E+03  0.14977577799E+04  0.91560067931E+02 0.  0.
         13    1    3    3    0    0  0.15623182679E+03 -0.64409870629E+03 -0.19755934027E+03  0.69159324757E+03  0.00000000000E+00 0.  1.
        -13    1    3    3    0    0  0.13911048337E+03 -0.78046558280E+03 -0.14636598204E+03  0.80616453235E+03  0.00000000000E+00 0. -1.
         22    1    1    2    0    0 -0.29534231017E+03  0.14245642891E+04 -0.24871759209E+03  0.14759644083E+04  0.00000000000E+00 0.  1.
<mgrwt>
<rscale>  0 0.29140690E+04</rscale>
<asrwt>0</asrwt>
<pdfrwt beam="1">  1        2 0.27433578E+00 0.29140690E+04</pdfrwt>
<pdfrwt beam="2">  1       -2 0.18315994E+00 0.29140690E+04</pdfrwt>
<totfact> 0.13110092E+00</totfact>
</mgrwt>
</event>
<event>
 6    1  0.5026615E-004  0.2448108E+04  0.7818608E-02  0.8421709E-01
          2   -1    0    0  501    0  0.00000000000E+00  0.00000000000E+00  0.12587518654E+04  0.12587518654E+04  0.00000000000E+00 0.  1.
         -2   -1    0    0    0  501 -0.00000000000E+00 -0.00000000000E+00 -0.11903125908E+04  0.11903125908E+04  0.00000000000E+00 0. -1.
         23    2    1    2    0    0 -0.95179357425E+02 -0.10060436315E+04 -0.65375129515E+03  0.12069927523E+04  0.90872710749E+02 0.  0.
         13    1    3    3    0    0 -0.14587704447E+02 -0.60506201503E+03 -0.40617938276E+03  0.72889953638E+03  0.00000000000E+00 0.  1.
        -13    1    3    3    0    0 -0.80591652979E+02 -0.40098161648E+03 -0.24757191239E+03  0.47809321590E+03  0.00000000000E+00 0. -1.
         22    1    1    2    0    0  0.95179357425E+02  0.10060436315E+04  0.72219056980E+03  0.12420717039E+04  0.00000000000E+00 0.  1.
<mgrwt>
<rscale>  0 0.24481080E+04</rscale>
<asrwt>0</asrwt>
<pdfrwt beam="1">  1        2 0.19365413E+00 0.24481080E+04</pdfrwt>
<pdfrwt beam="2">  1       -2 0.18312501E+00 0.24481080E+04</pdfrwt>
<totfact> 0.27017015E+00</totfact>
</mgrwt>
</event>
<event>
 6    1  0.5026615E-004  0.3077748E+04  0.7818608E-02  0.8221871E-01
          2   -1    0    0  501    0  0.00000000000E+00  0.00000000000E+00  0.10463046953E+04  0.10463046953E+04  0.00000000000E+00 0.  1.
         -2   -1    0    0    0  501 -0.00000000000E+00 -0.00000000000E+00 -0.22633303644E+04  0.22633303644E+04  0.00000000000E+00 0. -1.
         23    2    1    2    0    0 -0.13045562129E+04 -0.23433468896E+03 -0.14470367630E+04  0.19643898172E+04  0.90179273677E+02 0.  0.
         13    1    3    3    0    0 -0.80612517398E+03 -0.17101670704E+03 -0.95065527142E+03  0.12581057012E+04  0.00000000000E+00 0.  1.
        -13    1    3    3    0    0 -0.49843103896E+03 -0.63317981919E+02 -0.49638149158E+03  0.70628411608E+03  0.00000000000E+00 0. -1.
         22    1    1    2    0    0  0.13045562129E+04  0.23433468896E+03  0.23001109386E+03  0.13452452425E+04  0.00000000000E+00 0.  1.
<mgrwt>
<rscale>  0 0.30777480E+04</rscale>
<asrwt>0</asrwt>
<pdfrwt beam="1">  1        2 0.16096996E+00 0.30777480E+04</pdfrwt>
<pdfrwt beam="2">  1       -2 0.34820466E+00 0.30777480E+04</pdfrwt>
<totfact> 0.31955936E-01</totfact>
</mgrwt>
</event>
<event>
 6    1  0.5026615E-004  0.3567301E+04  0.7818608E-02  0.8098023E-01
          2   -1    0    0  501    0  0.00000000000E+00  0.00000000000E+00  0.15033848387E+04  0.15033848387E+04  0.00000000000E+00 0.  1.
         -2   -1    0    0    0  501 -0.00000000000E+00 -0.00000000000E+00 -0.21161642114E+04  0.21161642114E+04  0.00000000000E+00 0. -1.
         23    2    1    2    0    0 -0.15407406342E+04 -0.21912177224E+03 -0.11884386904E+04  0.19602480818E+04  0.91049263878E+02 0.  0.
         11    1    3    3    0    0 -0.99702072419E+03 -0.16202494188E+03 -0.81912299449E+03  0.13004864038E+04  0.00000000000E+00 0. -1.
        -11    1    3    3    0    0 -0.54371991005E+03 -0.57096830355E+02 -0.36931569591E+03  0.65976167808E+03  0.00000000000E+00 0.  1.
         22    1    1    2    0    0  0.15407406342E+04  0.21912177224E+03  0.57565931777E+03  0.16593009682E+04  0.00000000000E+00 0.  1.
<mgrwt>
<rscale>  0 0.35673010E+04</rscale>
<asrwt>0</asrwt>
<pdfrwt beam="1">  1        2 0.23128998E+00 0.35673010E+04</pdfrwt>
<pdfrwt beam="2">  1       -2 0.32556372E+00 0.35673010E+04</pdfrwt>
<totfact> 0.22838170E-01</totfact>
</mgrwt>
</event>
<event>
 6    1  0.5026615E-004  0.2501555E+04  0.7818608E-02  0.8402432E-01
         -2   -1    0    0    0  501 -0.00000000000E+00  0.00000000000E+00  0.42080309527E+03  0.42080309527E+03  0.00000000000E+00 0.  1.
          2   -1    0    0  501    0  0.00000000000E+00 -0.00000000000E+00 -0.37177589852E+04  0.37177589852E+04  0.00000000000E+00 0. -1.
         23    2    1    2    0    0  0.36905209302E+03 -0.52297101787E+03 -0.34252845522E+04  0.34857478814E+04  0.90365348658E+02 0.  0.
         13    1    3    3    0    0  0.24393083542E+03 -0.26873602300E+03 -0.19585824474E+04  0.19919253264E+04  0.00000000000E+00 0.  1.
        -13    1    3    3    0    0  0.12512125761E+03 -0.25423499487E+03 -0.14667021048E+04  0.14938225550E+04  0.00000000000E+00 0. -1.
         22    1    1    2    0    0 -0.36905209302E+03  0.52297101787E+03  0.12832866231E+03  0.65281419904E+03  0.00000000000E+00 0.  1.
<mgrwt>
<rscale>  0 0.25015551E+04</rscale>
<asrwt>0</asrwt>
<pdfrwt beam="1">  1        2 0.57196289E+00 0.25015551E+04</pdfrwt>
<pdfrwt beam="2">  1       -2 0.64738941E-01 0.25015551E+04</pdfrwt>
<totfact> 0.11143846E+00</totfact>
</mgrwt>
</event>
<event>
 6    1  0.5026615E-004  0.3264042E+04  0.7818608E-02  0.8172106E-01
         -2   -1    0    0    0  501 -0.00000000000E+00  0.00000000000E+00  0.22055441998E+04  0.22055441998E+04  0.00000000000E+00 0. -1.
          2   -1    0    0  501    0  0.00000000000E+00 -0.00000000000E+00 -0.12076348703E+04  0.12076348703E+04  0.00000000000E+00 0.  1.
         23    2    1    2    0    0 -0.42210141634E+02  0.14243164059E+04  0.13286338507E+04  0.19503606846E+04  0.90443191565E+02 0.  0.
         11    1    3    3    0    0  0.81445734182E+01  0.25122845697E+03  0.27768879623E+03  0.37455725760E+03  0.00000000000E+00 0. -1.
        -11    1    3    3    0    0 -0.50354715052E+02  0.11730879489E+04  0.10509450545E+04  0.15758034270E+04  0.00000000000E+00 0.  1.
         22    1    1    2    0    0  0.42210141634E+02 -0.14243164059E+04 -0.33072452114E+03  0.14628183855E+04  0.00000000000E+00 0.  1.
<mgrwt>
<rscale>  0 0.32640417E+04</rscale>
<asrwt>0</asrwt>
<pdfrwt beam="1">  1        2 0.18578998E+00 0.32640417E+04</pdfrwt>
<pdfrwt beam="2">  1       -2 0.33931449E+00 0.32640417E+04</pdfrwt>
<totfact> 0.28500694E-01</totfact>
</mgrwt>
</event>
<event>
 6    1  0.5026615E-004  0.3061441E+04  0.7818608E-02  0.8226400E-01
          2   -1    0    0  501    0  0.00000000000E+00  0.00000000000E+00  0.21990694682E+04  0.21990694682E+04  0.00000000000E+00 0. -1.
         -2   -1    0    0    0  501 -0.00000000000E+00 -0.00000000000E+00 -0.10654984121E+04  0.10654984121E+04  0.00000000000E+00 0.  1.
         23    2    1    2    0    0 -0.89474745497E+03 -0.43631737019E+02  0.18890746338E+04  0.20927050928E+04  0.91295656506E+02 0.  0.
         11    1    3    3    0    0 -0.18083203592E+03 -0.39480029825E+02  0.34295336883E+03  0.38971260072E+03  0.00000000000E+00 0.  1.
        -11    1    3    3    0    0 -0.71391541906E+03 -0.41517071939E+01  0.15461212650E+04  0.17029924921E+04  0.00000000000E+00 0. -1.
         22    1    1    2    0    0  0.89474745497E+03  0.43631737019E+02 -0.75550357768E+03  0.11718627874E+04  0.00000000000E+00 0. -1.
<mgrwt>
<rscale>  0 0.30614409E+04</rscale>
<asrwt>0</asrwt>
<pdfrwt beam="1">  1        2 0.33831838E+00 0.30614409E+04</pdfrwt>
<pdfrwt beam="2">  1       -2 0.16392283E+00 0.30614409E+04</pdfrwt>
<totfact> 0.10379995E+00</totfact>
</mgrwt>
</event>
<event>
 6    1  0.5026615E-004  0.1640697E+04  0.7818608E-02  0.8795929E-01
          2   -1    0    0  501    0  0.00000000000E+00  0.00000000000E+00  0.16537681695E+04  0.16537681695E+04  0.00000000000E+00 0.  1.
         -2   -1    0    0    0  501 -0.00000000000E+00 -0.00000000000E+00 -0.40693217954E+03  0.40693217954E+03  0.00000000000E+00 0. -1.
         23    2    1    2    0    0 -0.60437532751E+03  0.31340977985E+03  0.11945467467E+04  0.13778904256E+04  0.90248924715E+02 0.  0.
         11    1    3    3    0    0 -0.39106493475E+03  0.21930439924E+03  0.70223170395E+03  0.83315998989E+03  0.00000000000E+00 0.  1.
        -11    1    3    3    0    0 -0.21331039276E+03  0.94105380610E+02  0.49231504272E+03  0.54473043572E+03  0.00000000000E+00 0. -1.
         22    1    1    2    0    0  0.60437532751E+03 -0.31340977985E+03  0.52289243316E+02  0.68280992346E+03  0.00000000000E+00 0. -1.
<mgrwt>
<rscale>  0 0.16406968E+04</rscale>
<asrwt>0</asrwt>
<pdfrwt beam="1">  1        2 0.25442587E+00 0.16406968E+04</pdfrwt>
<pdfrwt beam="2">  1       -2 0.62604952E-01 0.16406968E+04</pdfrwt>
<totfact> 0.23535315E+01</totfact>
</mgrwt>
</event>
<event>
 6    1  0.5026615E-004  0.2913716E+04  0.7818608E-02  0.8268808E-01
         -2   -1    0    0    0  501 -0.00000000000E+00  0.00000000000E+00  0.12007360271E+04  0.12007360271E+04  0.00000000000E+00 0. -1.
          2   -1    0    0  501    0  0.00000000000E+00 -0.00000000000E+00 -0.17676118174E+04  0.17676118174E+04  0.00000000000E+00 0.  1.
         23    2    1    2    0    0 -0.80883851699E+03  0.10056961435E+04 -0.96909006905E+03  0.16165265525E+04  0.91531707168E+02 0.  0.
         11    1    3    3    0    0 -0.39670523509E+03  0.56492888329E+03 -0.50682026911E+03  0.85637986426E+03  0.00000000000E+00 0. -1.
        -11    1    3    3    0    0 -0.41213328190E+03  0.44076726018E+03 -0.46226979994E+03  0.76014668824E+03  0.00000000000E+00 0.  1.
         22    1    1    2    0    0  0.80883851699E+03 -0.10056961435E+04  0.40221427870E+03  0.13518212920E+04  0.00000000000E+00 0. -1.
<mgrwt>
<rscale>  0 0.29137160E+04</rscale>
<asrwt>0</asrwt>
<pdfrwt beam="1">  1        2 0.27194028E+00 0.29137160E+04</pdfrwt>
<pdfrwt beam="2">  1       -2 0.18472862E+00 0.29137160E+04</pdfrwt>
<totfact> 0.13048129E+00</totfact>
</mgrwt>
</event>
<event>
 6    1  0.5026615E-004  0.4143222E+04  0.7818608E-02  0.7976261E-01
          1   -1    0    0  501    0  0.00000000000E+00  0.00000000000E+00  0.17962807733E+04  0.17962807733E+04  0.00000000000E+00 0. -1.
         -1   -1    0    0    0  501 -0.00000000000E+00 -0.00000000000E+00 -0.23891434839E+04  0.23891434839E+04  0.00000000000E+00 0.  1.
         23    2    1    2    0    0  0.41303788290E+03  0.12772190293E+04  0.12960224547E+04  0.18681465636E+04  0.91698629319E+02 0.  0.
         11    1    3    3    0    0  0.26155335749E+03  0.72869793351E+03  0.79945628863E+03  0.11128976568E+04  0.00000000000E+00 0.  1.
        -11    1    3    3    0    0  0.15148452541E+03  0.54852109581E+03  0.49656616607E+03  0.75524890683E+03  0.00000000000E+00 0. -1.
         22    1    1    2    0    0 -0.41303788290E+03 -0.12772190293E+04 -0.18888851653E+04  0.23172776936E+04  0.00000000000E+00 0.  1.
<mgrwt>
<rscale>  0 0.41432222E+04</rscale>
<asrwt>0</asrwt>
<pdfrwt beam="1">  1        1 0.27635089E+00 0.41432222E+04</pdfrwt>
<pdfrwt beam="2">  1       -1 0.36756054E+00 0.41432222E+04</pdfrwt>
<totfact> 0.37595158E-02</totfact>
</mgrwt>
</event>
<event>
 6    1  0.5026615E-004  0.9771295E+03  0.7818608E-02  0.9333991E-01
          2   -1    0    0  501    0  0.00000000000E+00  0.00000000000E+00  0.21217769431E+04  0.21217769431E+04  0.00000000000E+00 0.  1.
         -2   -1    0    0    0  501 -0.00000000000E+00 -0.00000000000E+00 -0.11249793256E+03  0.11249793256E+03  0.00000000000E+00 0. -1.
         23    2    1    2    0    0  0.19455282213E+03  0.44310187058E+03  0.10316965967E+04  0.11434690066E+04  0.94516839229E+02 0.  0.
         11    1    3    3    0    0  0.69331207659E+02  0.95398495689E+02  0.18181168549E+03  0.21670989437E+03  0.00000000000E+00 0.  1.
        -11    1    3    3    0    0  0.12522161447E+03  0.34770337489E+03  0.84988491126E+03  0.92675911219E+03  0.00000000000E+00 0. -1.
         22    1    1    2    0    0 -0.19455282213E+03 -0.44310187058E+03  0.97758241376E+03  0.10908058691E+04  0.00000000000E+00 0.  1.
<mgrwt>
<rscale>  0 0.97712951E+03</rscale>
<asrwt>0</asrwt>
<pdfrwt beam="1">  1        2 0.32642719E+00 0.97712951E+03</pdfrwt>
<pdfrwt beam="2">  1       -2 0.17307376E-01 0.97712951E+03</pdfrwt>
<totfact> 0.15797975E+02</totfact>
</mgrwt>
</event>
<event>
 6    1  0.5026615E-004  0.2210718E+04  0.7818608E-02  0.8513980E-01
         -2   -1    0    0    0  501 -0.00000000000E+00  0.00000000000E+00  0.34230342025E+03  0.34230342025E+03  0.00000000000E+00 0.  1.
          2   -1    0    0  501    0  0.00000000000E+00 -0.00000000000E+00 -0.35694005926E+04  0.35694005926E+04  0.00000000000E+00 0. -1.
         23    2    1    2    0    0  0.88537624769E+03 -0.28079589440E+02 -0.45177409094E+03  0.99844162001E+03  0.90034859946E+02 0.  0.
         11    1    3    3    0    0  0.33770293238E+03 -0.60830682424E+01 -0.22156735170E+03  0.40394599342E+03  0.00000000000E+00 0. -1.
        -11    1    3    3    0    0  0.54767331531E+03 -0.21996521198E+02 -0.23020673924E+03  0.59449562659E+03  0.00000000000E+00 0.  1.
         22    1    1    2    0    0 -0.88537624769E+03  0.28079589440E+02 -0.27753230814E+04  0.29132623928E+04  0.00000000000E+00 0. -1.
<mgrwt>
<rscale>  0 0.22107176E+04</rscale>
<asrwt>0</asrwt>
<pdfrwt beam="1">  1        2 0.54913856E+00 0.22107176E+04</pdfrwt>
<pdfrwt beam="2">  1       -2 0.52662064E-01 0.22107176E+04</pdfrwt>
<totfact> 0.22645455E+00</totfact>
</mgrwt>
</event>
<event>
 6    1  0.5026615E-004  0.2277034E+04  0.7818608E-02  0.8487032E-01
          2   -1    0    0  501    0  0.00000000000E+00  0.00000000000E+00  0.12585556649E+04  0.12585556649E+04  0.00000000000E+00 0.  1.
         -2   -1    0    0    0  501 -0.00000000000E+00 -0.00000000000E+00 -0.10299278030E+04  0.10299278030E+04  0.00000000000E+00 0. -1.
         23    2    1    2    0    0 -0.58294313581E+03 -0.72733055096E+03  0.76849018143E+03  0.12113187850E+04  0.88789695037E+02 0.  0.
         13    1    3    3    0    0 -0.32754785049E+03 -0.47307467386E+03  0.49264636147E+03  0.75748774173E+03  0.00000000000E+00 0.  1.
        -13    1    3    3    0    0 -0.25539528532E+03 -0.25425587710E+03  0.27584381996E+03  0.45383104325E+03  0.00000000000E+00 0. -1.
         22    1    1    2    0    0  0.58294313581E+03  0.72733055096E+03 -0.53986231953E+03  0.10771646829E+04  0.00000000000E+00 0. -1.
<mgrwt>
<rscale>  0 0.22770344E+04</rscale>
<asrwt>0</asrwt>
<pdfrwt beam="1">  1        2 0.19362395E+00 0.22770344E+04</pdfrwt>
<pdfrwt beam="2">  1       -2 0.15845043E+00 0.22770344E+04</pdfrwt>
<totfact> 0.41078411E+00</totfact>
</mgrwt>
</event>
<event>
 6    1  0.5702527E-004  0.3276162E+04  0.7818608E-02  0.8168988E-01
         -2   -1    0    0    0  501 -0.00000000000E+00  0.00000000000E+00  0.15582134569E+04  0.15582134569E+04  0.00000000000E+00 0. -1.
          2   -1    0    0  501    0  0.00000000000E+00 -0.00000000000E+00 -0.17220424830E+04  0.17220424830E+04  0.00000000000E+00 0.  1.
         23    2    1    2    0    0  0.88055743082E+03 -0.11607523125E+04  0.66554236590E+03  0.16037762276E+04  0.80151277555E+02 0.  0.
         11    1    3    3    0    0  0.40794679131E+03 -0.59632822676E+03  0.35030338414E+03  0.80295728373E+03  0.00000000000E+00 0. -1.
        -11    1    3    3    0    0  0.47261063951E+03 -0.56442408575E+03  0.31523898176E+03  0.80081894382E+03  0.00000000000E+00 0.  1.
         22    1    1    2    0    0 -0.88055743082E+03  0.11607523125E+04 -0.82937139200E+03  0.16764797123E+04  0.00000000000E+00 0.  1.
<mgrwt>
<rscale>  0 0.32761622E+04</rscale>
<asrwt>0</asrwt>
<pdfrwt beam="1">  1        2 0.26492961E+00 0.32761622E+04</pdfrwt>
<pdfrwt beam="2">  1       -2 0.23972515E+00 0.32761622E+04</pdfrwt>
<totfact> 0.59334293E-01</totfact>
</mgrwt>
</event>
<event>
 6    1  0.5026615E-004  0.3168303E+04  0.7818608E-02  0.8197239E-01
         -2   -1    0    0    0  501 -0.00000000000E+00  0.00000000000E+00  0.22135887666E+04  0.22135887666E+04  0.00000000000E+00 0. -1.
          2   -1    0    0  501    0  0.00000000000E+00 -0.00000000000E+00 -0.11336958645E+04  0.11336958645E+04  0.00000000000E+00 0.  1.
         23    2    1    2    0    0 -0.12713099473E+04 -0.21173239466E+03  0.15112682979E+04  0.19881877540E+04  0.88876812327E+02 0.  0.
         13    1    3    3    0    0 -0.18653661922E+03 -0.25528354423E+02  0.17553020707E+03  0.25740718868E+03  0.00000000000E+00 0. -1.
        -13    1    3    3    0    0 -0.10847733281E+04 -0.18620404024E+03  0.13357380909E+04  0.17307805653E+04  0.00000000000E+00 0.  1.
         22    1    1    2    0    0  0.12713099473E+04  0.21173239466E+03 -0.43137539584E+03  0.13590968770E+04  0.00000000000E+00 0.  1.
<mgrwt>
<rscale>  0 0.31683033E+04</rscale>
<asrwt>0</asrwt>
<pdfrwt beam="1">  1        2 0.17441475E+00 0.31683033E+04</pdfrwt>
<pdfrwt beam="2">  1       -2 0.34055212E+00 0.31683033E+04</pdfrwt>
<totfact> 0.31273225E-01</totfact>
</mgrwt>
</event>
<event>
 6    1  0.5026615E-004  0.8975912E+03  0.7818608E-02  0.9428598E-01
          2   -1    0    0  501    0  0.00000000000E+00  0.00000000000E+00  0.38154839165E+03  0.38154839165E+03  0.00000000000E+00 0.  1.
         -2   -1    0    0    0  501 -0.00000000000E+00 -0.00000000000E+00 -0.52789496289E+03  0.52789496289E+03  0.00000000000E+00 0. -1.
         23    2    1    2    0    0 -0.37584901631E+02  0.27171555116E+03  0.27993208396E+03  0.40253561398E+03  0.91820386163E+02 0.  0.
         11    1    3    3    0    0  0.17787141301E+02  0.18469949140E+03  0.16767283288E+03  0.25008891100E+03  0.00000000000E+00 0.  1.
        -11    1    3    3    0    0 -0.55372042932E+02  0.87016059757E+02  0.11225925109E+03  0.15244670298E+03  0.00000000000E+00 0. -1.
         22    1    1    2    0    0  0.37584901631E+02 -0.27171555116E+03 -0.42627865520E+03  0.50690774057E+03  0.00000000000E+00 0. -1.
<mgrwt>
<rscale>  0 0.89759116E+03</rscale>
<asrwt>0</asrwt>
<pdfrwt beam="1">  1        2 0.58699752E-01 0.89759116E+03</pdfrwt>
<pdfrwt beam="2">  1       -2 0.81214610E-01 0.89759116E+03</pdfrwt>
<totfact> 0.11251012E+02</totfact>
</mgrwt>
</event>
<event>
 6    1  0.5026615E-004  0.1483928E+04  0.7818608E-02  0.8895211E-01
         -2   -1    0    0    0  501 -0.00000000000E+00  0.00000000000E+00  0.23363395866E+03  0.23363395866E+03  0.00000000000E+00 0. -1.
          2   -1    0    0  501    0  0.00000000000E+00 -0.00000000000E+00 -0.23562952713E+04  0.23562952713E+04  0.00000000000E+00 0.  1.
         23    2    1    2    0    0 -0.29118834236E+03  0.63726177054E+03 -0.65443715440E+03  0.96309936985E+03  0.91537927843E+02 0.  0.
         13    1    3    3    0    0 -0.23025952390E+03  0.44258244519E+03 -0.50781787258E+03  0.71188317922E+03  0.00000000000E+00 0. -1.
        -13    1    3    3    0    0 -0.60928818467E+02  0.19467932534E+03 -0.14661928181E+03  0.25121619063E+03  0.00000000000E+00 0.  1.
         22    1    1    2    0    0  0.29118834236E+03 -0.63726177054E+03 -0.14682241583E+04  0.16268298602E+04  0.00000000000E+00 0.  1.
<mgrwt>
<rscale>  0 0.14839280E+04</rscale>
<asrwt>0</asrwt>
<pdfrwt beam="1">  1        2 0.36250697E+00 0.14839280E+04</pdfrwt>
<pdfrwt beam="2">  1       -2 0.35943686E-01 0.14839280E+04</pdfrwt>
<totfact> 0.29711880E+01</totfact>
</mgrwt>
</event>
<event>
 6    1  0.5026615E-004  0.4425011E+04  0.7818608E-02  0.7923898E-01
          2   -1    0    0  501    0  0.00000000000E+00  0.00000000000E+00  0.39366864837E+04  0.39366864837E+04  0.00000000000E+00 0.  1.
         -2   -1    0    0    0  501 -0.00000000000E+00 -0.00000000000E+00 -0.12434774232E+04  0.12434774232E+04  0.00000000000E+00 0. -1.
         23    2    1    2    0    0 -0.13263643464E+04 -0.13214431729E+02  0.34189495810E+04  0.36681730658E+04  0.82827549214E+02 0.  0.
         11    1    3    3    0    0 -0.96663832330E+03 -0.11161619240E+02  0.25902898457E+04  0.27647993986E+04  0.00000000000E+00 0. -1.
        -11    1    3    3    0    0 -0.35972602309E+03 -0.20528124885E+01  0.82865973531E+03  0.90337366724E+03  0.00000000000E+00 0.  1.
         22    1    1    2    0    0  0.13263643464E+04  0.13214431729E+02 -0.72574052046E+03  0.15119908411E+04  0.00000000000E+00 0. -1.
<mgrwt>
<rscale>  0 0.44250111E+04</rscale>
<asrwt>0</asrwt>
<pdfrwt beam="1">  1        2 0.60564407E+00 0.44250111E+04</pdfrwt>
<pdfrwt beam="2">  1       -2 0.19130422E+00 0.44250111E+04</pdfrwt>
<totfact> 0.44364302E-02</totfact>
</mgrwt>
</event>
<event>
 6    1  0.5026615E-004  0.5030922E+03  0.7818608E-02  0.1012975E+00
         -2   -1    0    0    0  501 -0.00000000000E+00  0.00000000000E+00  0.10334776521E+03  0.10334776521E+03  0.00000000000E+00 0. -1.
          2   -1    0    0  501    0  0.00000000000E+00 -0.00000000000E+00 -0.61225752075E+03  0.61225752075E+03  0.00000000000E+00 0.  1.
         23    2    1    2    0    0 -0.14436283763E+03  0.19244931982E+03 -0.32751666323E+03  0.41430672386E+03  0.80656848173E+02 0.  0.
         13    1    3    3    0    0 -0.10919025568E+03  0.79060840985E+02 -0.16569008241E+03  0.21360321141E+03  0.00000000000E+00 0. -1.
        -13    1    3    3    0    0 -0.35172581946E+02  0.11338847883E+03 -0.16182658082E+03  0.20070351246E+03  0.00000000000E+00 0.  1.
         22    1    1    2    0    0  0.14436283763E+03 -0.19244931982E+03 -0.18139309231E+03  0.30129856210E+03  0.00000000000E+00 0. -1.
<mgrwt>
<rscale>  0 0.50309222E+03</rscale>
<asrwt>0</asrwt>
<pdfrwt beam="1">  1        2 0.94193464E-01 0.50309222E+03</pdfrwt>
<pdfrwt beam="2">  1       -2 0.15899656E-01 0.50309222E+03</pdfrwt>
<totfact> 0.15358641E+03</totfact>
</mgrwt>
</event>
<event>
 6    1  0.5026615E-004  0.4786116E+04  0.7818608E-02  0.7862375E-01
          1   -1    0    0  501    0  0.00000000000E+00  0.00000000000E+00  0.31236797567E+04  0.31236797567E+04  0.00000000000E+00 0.  1.
         -1   -1    0    0    0  501 -0.00000000000E+00 -0.00000000000E+00 -0.18333271378E+04  0.18333271378E+04  0.00000000000E+00 0. -1.
         23    2    1    2    0    0 -0.22349904769E+04  0.83488474572E+03  0.82837142227E+03  0.25268543074E+04  0.81107998638E+02 0.  0.
         13    1    3    3    0    0 -0.21779545603E+04  0.82347837256E+03  0.79910834902E+03  0.24617426450E+04  0.00000000000E+00 0. -1.
        -13    1    3    3    0    0 -0.57035916555E+02  0.11406373167E+02  0.29263073247E+02  0.65111662411E+02  0.00000000000E+00 0.  1.
         22    1    1    2    0    0  0.22349904769E+04 -0.83488474572E+03  0.46198119662E+03  0.24301525871E+04  0.00000000000E+00 0. -1.
<mgrwt>
<rscale>  0 0.47861161E+04</rscale>
<asrwt>0</asrwt>
<pdfrwt beam="1">  1        1 0.48056612E+00 0.47861161E+04</pdfrwt>
<pdfrwt beam="2">  1       -1 0.28205033E+00 0.47861161E+04</pdfrwt>
<totfact> 0.15357677E-02</totfact>
</mgrwt>
</event>
<event>
 6    1  0.5026615E-004  0.1742262E+04  0.7818608E-02  0.8737621E-01
         -1   -1    0    0    0  501 -0.00000000000E+00  0.00000000000E+00  0.53122660280E+03  0.53122660280E+03  0.00000000000E+00 0. -1.
          1   -1    0    0  501    0  0.00000000000E+00 -0.00000000000E+00 -0.14285221439E+04  0.14285221439E+04  0.00000000000E+00 0.  1.
         23    2    1    2    0    0  0.29502148030E+02  0.77806095096E+03 -0.16345213983E+02  0.78402654354E+03  0.90450178613E+02 0.  0.
         11    1    3    3    0    0  0.25035235663E+02  0.22376731264E+03  0.32802798750E+02  0.22754031915E+03  0.00000000000E+00 0.  1.
        -11    1    3    3    0    0  0.44669123673E+01  0.55429363831E+03 -0.49148012732E+02  0.55648622439E+03  0.00000000000E+00 0. -1.
         22    1    1    2    0    0 -0.29502148030E+02 -0.77806095096E+03 -0.88095032714E+03  0.11757222032E+04  0.00000000000E+00 0.  1.
<mgrwt>
<rscale>  0 0.17422617E+04</rscale>
<asrwt>0</asrwt>
<pdfrwt beam="1">  1        1 0.21977264E+00 0.17422617E+04</pdfrwt>
<pdfrwt beam="2">  1       -1 0.81727170E-01 0.17422617E+04</pdfrwt>
<totfact> 0.10367325E+01</totfact>
</mgrwt>
</event>
<event>
 6    1  0.5026615E-004  0.1593480E+04  0.7818608E-02  0.8824563E-01
         -2   -1    0    0    0  501 -0.00000000000E+00  0.00000000000E+00  0.10589662319E+04  0.10589662319E+04  0.00000000000E+00 0. -1.
          2   -1    0    0  501    0  0.00000000000E+00 -0.00000000000E+00 -0.59944777538E+03  0.59944777538E+03  0.00000000000E+00 0.  1.
         23    2    1    2    0    0 -0.20757259608E+03  0.55030428629E+03  0.78593834570E+03  0.98575426107E+03  0.89951041228E+02 0.  0.
         11    1    3    3    0    0 -0.48847565827E+02  0.23233681761E+03  0.35675701547E+03  0.42853477057E+03  0.00000000000E+00 0. -1.
        -11    1    3    3    0    0 -0.15872503025E+03  0.31796746869E+03  0.42918133024E+03  0.55721949050E+03  0.00000000000E+00 0.  1.
         22    1    1    2    0    0  0.20757259608E+03 -0.55030428629E+03 -0.32641988916E+03  0.67265974623E+03  0.00000000000E+00 0.  1.
<mgrwt>
<rscale>  0 0.15934804E+04</rscale>
<asrwt>0</asrwt>
<pdfrwt beam="1">  1        2 0.92222735E-01 0.15934804E+04</pdfrwt>
<pdfrwt beam="2">  1       -2 0.16291788E+00 0.15934804E+04</pdfrwt>
<totfact> 0.11410849E+01</totfact>
</mgrwt>
</event>
<event>
 6    1  0.5026615E-004  0.4184725E+04  0.7818608E-02  0.7968284E-01
          2   -1    0    0  501    0  0.00000000000E+00  0.00000000000E+00  0.16747209784E+04  0.16747209784E+04  0.00000000000E+00 0.  1.
         -2   -1    0    0    0  501 -0.00000000000E+00 -0.00000000000E+00 -0.26141555238E+04  0.26141555238E+04  0.00000000000E+00 0. -1.
         23    2    1    2    0    0 -0.11078389491E+04  0.10345598180E+04 -0.19466930511E+04  0.24689339616E+04  0.91651061923E+02 0.  0.
         13    1    3    3    0    0 -0.75707419897E+03  0.76144986416E+03 -0.13563857006E+04  0.17299564755E+04  0.00000000000E+00 0.  1.
        -13    1    3    3    0    0 -0.35076475016E+03  0.27310995381E+03 -0.59030735046E+03  0.73897748601E+03  0.00000000000E+00 0. -1.
         22    1    1    2    0    0  0.11078389491E+04 -0.10345598180E+04  0.10072585057E+04  0.18199425407E+04  0.00000000000E+00 0.  1.
<mgrwt>
<rscale>  0 0.41847251E+04</rscale>
<asrwt>0</asrwt>
<pdfrwt beam="1">  1        2 0.25764938E+00 0.41847251E+04</pdfrwt>
<pdfrwt beam="2">  1       -2 0.40217777E+00 0.41847251E+04</pdfrwt>
<totfact> 0.56536854E-02</totfact>
</mgrwt>
</event>
<event>
 6    1  0.5026615E-004  0.2747093E+04  0.7818608E-02  0.8319885E-01
          2   -1    0    0  501    0  0.00000000000E+00  0.00000000000E+00  0.16459524642E+04  0.16459524642E+04  0.00000000000E+00 0.  1.
         -2   -1    0    0    0  501 -0.00000000000E+00 -0.00000000000E+00 -0.11462236457E+04  0.11462236457E+04  0.00000000000E+00 0. -1.
         23    2    1    2    0    0 -0.75891650827E+03  0.26306636903E+03 -0.88048813319E+03  0.11952550051E+04  0.90647633439E+02 0.  0.
         11    1    3    3    0    0 -0.34778924297E+03  0.10083366829E+03 -0.45770562199E+03  0.58362592693E+03  0.00000000000E+00 0. -1.
        -11    1    3    3    0    0 -0.41112726530E+03  0.16223270074E+03 -0.42278251120E+03  0.61162907815E+03  0.00000000000E+00 0.  1.
         22    1    1    2    0    0  0.75891650827E+03 -0.26306636903E+03  0.13802169518E+04  0.15969211048E+04  0.00000000000E+00 0.  1.
<mgrwt>
<rscale>  0 0.27470927E+04</rscale>
<asrwt>0</asrwt>
<pdfrwt beam="1">  1        2 0.25322346E+00 0.27470927E+04</pdfrwt>
<pdfrwt beam="2">  1       -2 0.17634210E+00 0.27470927E+04</pdfrwt>
<totfact> 0.17664845E+00</totfact>
</mgrwt>
</event>
<event>
 6    1  0.5026615E-004  0.2284221E+04  0.7818608E-02  0.8484169E-01
          2   -1    0    0  501    0  0.00000000000E+00  0.00000000000E+00  0.29749678313E+04  0.29749678313E+04  0.00000000000E+00 0.  1.
         -2   -1    0    0    0  501 -0.00000000000E+00 -0.00000000000E+00 -0.43846415548E+03  0.43846415548E+03  0.00000000000E+00 0. -1.
         23    2    1    2    0    0 -0.50296016346E+03  0.43661700177E+02 -0.25751325425E+03  0.57417048499E+03  0.92105372394E+02 0.  0.
         11    1    3    3    0    0 -0.18941540571E+03  0.32055200564E+02 -0.51741712851E+02  0.19895460953E+03  0.00000000000E+00 0.  1.
        -11    1    3    3    0    0 -0.31354475775E+03  0.11606499613E+02 -0.20577154140E+03  0.37521587546E+03  0.00000000000E+00 0. -1.
         22    1    1    2    0    0  0.50296016346E+03 -0.43661700177E+02  0.27940169301E+04  0.28392615018E+04  0.00000000000E+00 0.  1.
<mgrwt>
<rscale>  0 0.22842213E+04</rscale>
<asrwt>0</asrwt>
<pdfrwt beam="1">  1        2 0.45768735E+00 0.22842213E+04</pdfrwt>
<pdfrwt beam="2">  1       -2 0.67456026E-01 0.22842213E+04</pdfrwt>
<totfact> 0.33045315E+00</totfact>
</mgrwt>
</event>
<event>
 6    1  0.5026615E-004  0.2135882E+04  0.7818608E-02  0.8545600E-01
          2   -1    0    0  501    0  0.00000000000E+00  0.00000000000E+00  0.13250210816E+04  0.13250210816E+04  0.00000000000E+00 0.  1.
         -2   -1    0    0    0  501 -0.00000000000E+00 -0.00000000000E+00 -0.86073941248E+03  0.86073941248E+03  0.00000000000E+00 0. -1.
         23    2    1    2    0    0 -0.64566001323E+03 -0.70615441509E+03  0.71348612753E+03  0.11970068480E+04  0.90730531772E+02 0.  0.
         13    1    3    3    0    0 -0.11321272831E+02 -0.18630836607E+02  0.35642580442E+02  0.41781249763E+02  0.00000000000E+00 0.  1.
        -13    1    3    3    0    0 -0.63433874040E+03 -0.68752357848E+03  0.67784354708E+03  0.11552255983E+04  0.00000000000E+00 0. -1.
         22    1    1    2    0    0  0.64566001323E+03  0.70615441509E+03 -0.24920445836E+03  0.98875364611E+03  0.00000000000E+00 0. -1.
<mgrwt>
<rscale>  0 0.21358819E+04</rscale>
<asrwt>0</asrwt>
<pdfrwt beam="1">  1        2 0.20384940E+00 0.21358819E+04</pdfrwt>
<pdfrwt beam="2">  1       -2 0.13242145E+00 0.21358819E+04</pdfrwt>
<totfact> 0.60882482E+00</totfact>
</mgrwt>
</event>
<event>
 6    1  0.5026615E-004  0.1610270E+04  0.7818608E-02  0.8814263E-01
          2   -1    0    0  501    0  0.00000000000E+00  0.00000000000E+00  0.45569104923E+03  0.45569104923E+03  0.00000000000E+00 0.  1.
         -2   -1    0    0    0  501 -0.00000000000E+00 -0.00000000000E+00 -0.14225479964E+04  0.14225479964E+04  0.00000000000E+00 0. -1.
         23    2    1    2    0    0 -0.23849965628E+03 -0.69776552888E+03 -0.11610708088E+03  0.75239085234E+03  0.94086774437E+02 0.  0.
         11    1    3    3    0    0 -0.18079883049E+03 -0.45815698298E+03 -0.11563459708E+03  0.50593220712E+03  0.00000000000E+00 0. -1.
        -11    1    3    3    0    0 -0.57700825792E+02 -0.23960854589E+03 -0.47248379706E+00  0.24645864522E+03  0.00000000000E+00 0.  1.
         22    1    1    2    0    0  0.23849965628E+03  0.69776552888E+03 -0.85074986628E+03  0.11258481933E+04  0.00000000000E+00 0. -1.
<mgrwt>
<rscale>  0 0.16102700E+04</rscale>
<asrwt>0</asrwt>
<pdfrwt beam="1">  1        2 0.70106317E-01 0.16102700E+04</pdfrwt>
<pdfrwt beam="2">  1       -2 0.21885353E+00 0.16102700E+04</pdfrwt>
<totfact> 0.65970841E+00</totfact>
</mgrwt>
</event>
<event>
 6    1  0.5026615E-004  0.2212085E+04  0.7818608E-02  0.8513415E-01
         -2   -1    0    0    0  501 -0.00000000000E+00  0.00000000000E+00  0.59183969712E+03  0.59183969712E+03  0.00000000000E+00 0. -1.
          2   -1    0    0  501    0  0.00000000000E+00 -0.00000000000E+00 -0.20669958001E+04  0.20669958001E+04  0.00000000000E+00 0.  1.
         23    2    1    2    0    0  0.18491121952E+03 -0.45980053683E+03 -0.19242445573E+04  0.19900387175E+04  0.10921670295E+03 0.  0.
         11    1    3    3    0    0  0.84494225092E+02 -0.13636261039E+03 -0.46101899176E+03  0.48813168956E+03  0.00000000000E+00 0. -1.
        -11    1    3    3    0    0  0.10041699443E+03 -0.32343792644E+03 -0.14632255655E+04  0.15019070279E+04  0.00000000000E+00 0.  1.
         22    1    1    2    0    0 -0.18491121952E+03  0.45980053683E+03  0.44908845430E+03  0.66879677971E+03  0.00000000000E+00 0. -1.
<mgrwt>
<rscale>  0 0.22120851E+04</rscale>
<asrwt>0</asrwt>
<pdfrwt beam="1">  1        2 0.31799935E+00 0.22120851E+04</pdfrwt>
<pdfrwt beam="2">  1       -2 0.91052262E-01 0.22120851E+04</pdfrwt>
<totfact> 0.57586582E+00</totfact>
</mgrwt>
</event>
<event>
 6    1  0.5026615E-004  0.2022392E+04  0.7818608E-02  0.8596222E-01
          2   -1    0    0  501    0  0.00000000000E+00  0.00000000000E+00  0.18000296072E+04  0.18000296072E+04  0.00000000000E+00 0.  1.
         -2   -1    0    0    0  501 -0.00000000000E+00 -0.00000000000E+00 -0.56805610233E+03  0.56805610233E+03  0.00000000000E+00 0. -1.
         23    2    1    2    0    0  0.47052399588E+03  0.25544846123E+03  0.16187905573E+04  0.17075751653E+04  0.93184385261E+02 0.  0.
         13    1    3    3    0    0  0.20785330408E+02  0.12299909182E+02  0.15946784527E+03  0.16128642659E+03  0.00000000000E+00 0. -1.
        -13    1    3    3    0    0  0.44973866547E+03  0.24314855205E+03  0.14593227120E+04  0.15462887387E+04  0.00000000000E+00 0.  1.
         22    1    1    2    0    0 -0.47052399588E+03 -0.25544846123E+03 -0.38681705242E+03  0.66051054427E+03  0.00000000000E+00 0. -1.
<mgrwt>
<rscale>  0 0.20223924E+04</rscale>
<asrwt>0</asrwt>
<pdfrwt beam="1">  1        2 0.27692763E+00 0.20223924E+04</pdfrwt>
<pdfrwt beam="2">  1       -2 0.87393247E-01 0.20223924E+04</pdfrwt>
<totfact> 0.90479307E+00</totfact>
</mgrwt>
</event>
<event>
 6    1  0.5026615E-004  0.4003775E+04  0.7818608E-02  0.8003785E-01
          2   -1    0    0  501    0  0.00000000000E+00  0.00000000000E+00  0.28254096092E+04  0.28254096092E+04  0.00000000000E+00 0.  1.
         -2   -1    0    0    0  501 -0.00000000000E+00 -0.00000000000E+00 -0.14183973403E+04  0.14183973403E+04  0.00000000000E+00 0. -1.
         23    2    1    2    0    0 -0.11855620151E+04  0.47206853742E+03  0.23373738011E+04  0.26645734088E+04  0.90714766637E+02 0.  0.
         11    1    3    3    0    0 -0.57185629962E+03  0.22443512446E+03  0.12196320843E+04  0.13656109158E+04  0.00000000000E+00 0. -1.
        -11    1    3    3    0    0 -0.61370571546E+03  0.24763341296E+03  0.11177417169E+04  0.12989624929E+04  0.00000000000E+00 0.  1.
         22    1    1    2    0    0  0.11855620151E+04 -0.47206853742E+03 -0.93036153225E+03  0.15792335408E+04  0.00000000000E+00 0.  1.
<mgrwt>
<rscale>  0 0.40037750E+04</rscale>
<asrwt>0</asrwt>
<pdfrwt beam="1">  1        2 0.43467840E+00 0.40037750E+04</pdfrwt>
<pdfrwt beam="2">  1       -2 0.21821498E+00 0.40037750E+04</pdfrwt>
<totfact> 0.17849752E-01</totfact>
</mgrwt>
</event>
<event>
 6    1  0.5026615E-004  0.3879239E+04  0.7818608E-02  0.8029361E-01
         -2   -1    0    0    0  501 -0.00000000000E+00  0.00000000000E+00  0.12720951741E+04  0.12720951741E+04  0.00000000000E+00 0.  1.
          2   -1    0    0  501    0  0.00000000000E+00 -0.00000000000E+00 -0.29574226801E+04  0.29574226801E+04  0.00000000000E+00 0. -1.
         23    2    1    2    0    0 -0.77442813247E+02  0.11259824552E+04 -0.25615738748E+04  0.28006576170E+04  0.90490289332E+02 0.  0.
         11    1    3    3    0    0 -0.72672283258E+02  0.69313423403E+03 -0.16684806991E+04  0.18081880905E+04  0.00000000000E+00 0. -1.
        -11    1    3    3    0    0 -0.47705299891E+01  0.43284822119E+03 -0.89309317570E+03  0.99246952650E+03  0.00000000000E+00 0.  1.
         22    1    1    2    0    0  0.77442813247E+02 -0.11259824552E+04  0.87624636879E+03  0.14288602373E+04  0.00000000000E+00 0.  1.
<mgrwt>
<rscale>  0 0.38792386E+04</rscale>
<asrwt>0</asrwt>
<pdfrwt beam="1">  1        2 0.45498811E+00 0.38792386E+04</pdfrwt>
<pdfrwt beam="2">  1       -2 0.19570695E+00 0.38792386E+04</pdfrwt>
<totfact> 0.20925018E-01</totfact>
</mgrwt>
</event>
<event>
 6    1  0.5026615E-004  0.2988971E+04  0.7818608E-02  0.8246887E-01
          2   -1    0    0  501    0  0.00000000000E+00  0.00000000000E+00  0.31086370843E+04  0.31086370843E+04  0.00000000000E+00 0.  1.
         -2   -1    0    0    0  501 -0.00000000000E+00 -0.00000000000E+00 -0.71847789315E+03  0.71847789315E+03  0.00000000000E+00 0. -1.
         23    2    1    2    0    0  0.73494794088E+03 -0.67020982005E+03  0.26219833402E+04  0.28058059573E+04  0.91764670941E+02 0.  0.
         13    1    3    3    0    0  0.46790233241E+03 -0.38643488414E+03  0.16893950301E+04  0.17950821932E+04  0.00000000000E+00 0.  1.
        -13    1    3    3    0    0  0.26704560848E+03 -0.28377493591E+03  0.93258831007E+03  0.10107237641E+04  0.00000000000E+00 0. -1.
         22    1    1    2    0    0 -0.73494794088E+03  0.67020982005E+03 -0.23182414902E+03  0.10213090202E+04  0.00000000000E+00 0. -1.
<mgrwt>
<rscale>  0 0.29889711E+04</rscale>
<asrwt>0</asrwt>
<pdfrwt beam="1">  1        2 0.47825185E+00 0.29889711E+04</pdfrwt>
<pdfrwt beam="2">  1       -2 0.11053506E+00 0.29889711E+04</pdfrwt>
<totfact> 0.82607349E-01</totfact>
</mgrwt>
</event>
<event>
 6    1  0.5026615E-004  0.1024426E+04  0.7818608E-02  0.9282154E-01
         -2   -1    0    0    0  501 -0.00000000000E+00  0.00000000000E+00  0.82594748963E+03  0.82594748963E+03  0.00000000000E+00 0. -1.
          2   -1    0    0  501    0  0.00000000000E+00 -0.00000000000E+00 -0.31764966641E+03  0.31764966641E+03  0.00000000000E+00 0.  1.
         23    2    1    2    0    0  0.48035569910E+03  0.15284056710E+03  0.20100981353E+03  0.55323476097E+03  0.10752636419E+03 0.  0.
         13    1    3    3    0    0  0.46177860096E+03  0.15841274974E+03  0.17055702284E+03  0.51713032557E+03  0.00000000000E+00 0. -1.
        -13    1    3    3    0    0  0.18577098147E+02 -0.55721826392E+01  0.30452790689E+02  0.36104435402E+02  0.00000000000E+00 0.  1.
         22    1    1    2    0    0 -0.48035569910E+03 -0.15284056710E+03  0.30728800970E+03  0.59036239507E+03  0.00000000000E+00 0.  1.
<mgrwt>
<rscale>  0 0.10244256E+04</rscale>
<asrwt>0</asrwt>
<pdfrwt beam="1">  1        2 0.48869180E-01 0.10244256E+04</pdfrwt>
<pdfrwt beam="2">  1       -2 0.12706884E+00 0.10244256E+04</pdfrwt>
<totfact> 0.47222478E+01</totfact>
</mgrwt>
</event>
<event>
 6    1  0.5026615E-004  0.1250820E+04  0.7818608E-02  0.9069501E-01
          2   -1    0    0  501    0  0.00000000000E+00  0.00000000000E+00  0.38574659292E+03  0.38574659292E+03  0.00000000000E+00 0.  1.
         -2   -1    0    0    0  501 -0.00000000000E+00 -0.00000000000E+00 -0.10139761045E+04  0.10139761045E+04  0.00000000000E+00 0. -1.
         23    2    1    2    0    0  0.40745219221E+03  0.47033160801E+03 -0.33111344639E+03  0.71015249313E+03  0.86321136934E+02 0.  0.
         11    1    3    3    0    0  0.23172863659E+03  0.20184777413E+03 -0.15766298256E+03  0.34539586131E+03  0.00000000000E+00 0.  1.
        -11    1    3    3    0    0  0.17572355563E+03  0.26848383388E+03 -0.17345046383E+03  0.36475663182E+03  0.00000000000E+00 0. -1.
         22    1    1    2    0    0 -0.40745219221E+03 -0.47033160801E+03 -0.29711606516E+03  0.68957020426E+03  0.00000000000E+00 0.  1.
<mgrwt>
<rscale>  0 0.12508203E+04</rscale>
<asrwt>0</asrwt>
<pdfrwt beam="1">  1        2 0.59345631E-01 0.12508203E+04</pdfrwt>
<pdfrwt beam="2">  1       -2 0.15599632E+00 0.12508203E+04</pdfrwt>
<totfact> 0.21957885E+01</totfact>
</mgrwt>
</event>
<event>
 6    1  0.5026615E-004  0.2804191E+04  0.7818608E-02  0.8301968E-01
          2   -1    0    0  501    0  0.00000000000E+00  0.00000000000E+00  0.39522153934E+04  0.39522153934E+04  0.00000000000E+00 0.  1.
         -2   -1    0    0    0  501 -0.00000000000E+00 -0.00000000000E+00 -0.49741004520E+03  0.49741004520E+03  0.00000000000E+00 0. -1.
         23    2    1    2    0    0  0.62153917823E+03  0.80078787658E+03  0.19561325294E+03  0.10364296799E+04  0.91377039371E+02 0.  0.
         13    1    3    3    0    0  0.42637111492E+03  0.58295316779E+03  0.10241105980E+03  0.72946195833E+03  0.00000000000E+00 0. -1.
        -13    1    3    3    0    0  0.19516806331E+03  0.21783470879E+03  0.93202193139E+02  0.30696772158E+03  0.00000000000E+00 0.  1.
         22    1    1    2    0    0 -0.62153917823E+03 -0.80078787658E+03  0.32591920953E+04  0.34131957587E+04  0.00000000000E+00 0.  1.
<mgrwt>
<rscale>  0 0.28041909E+04</rscale>
<asrwt>0</asrwt>
<pdfrwt beam="1">  1        2 0.60803312E+00 0.28041909E+04</pdfrwt>
<pdfrwt beam="2">  1       -2 0.76524625E-01 0.28041909E+04</pdfrwt>
<totfact> 0.49672244E-01</totfact>
</mgrwt>
</event>
<event>
 6    1  0.5026615E-004  0.1366839E+04  0.7818608E-02  0.8978179E-01
         -2   -1    0    0    0  501 -0.00000000000E+00  0.00000000000E+00  0.16857778156E+04  0.16857778156E+04  0.00000000000E+00 0. -1.
          2   -1    0    0  501    0  0.00000000000E+00 -0.00000000000E+00 -0.27706020051E+03  0.27706020051E+03  0.00000000000E+00 0.  1.
         23    2    1    2    0    0 -0.54397753985E+03  0.40869143855E+03  0.71445674911E+03  0.99075859248E+03  0.90630493913E+02 0.  0.
         13    1    3    3    0    0 -0.36746759329E+03  0.24358628344E+03  0.41020974674E+03  0.60219494014E+03  0.00000000000E+00 0. -1.
        -13    1    3    3    0    0 -0.17650994655E+03  0.16510515511E+03  0.30424700237E+03  0.38856365235E+03  0.00000000000E+00 0.  1.
         22    1    1    2    0    0  0.54397753985E+03 -0.40869143855E+03  0.69426086599E+03  0.97207942363E+03  0.00000000000E+00 0.  1.
<mgrwt>
<rscale>  0 0.13668386E+04</rscale>
<asrwt>0</asrwt>
<pdfrwt beam="1">  1        2 0.42624647E-01 0.13668386E+04</pdfrwt>
<pdfrwt beam="2">  1       -2 0.25935043E+00 0.13668386E+04</pdfrwt>
<totfact> 0.66041041E+00</totfact>
</mgrwt>
</event>
<event>
 6    1  0.5026615E-004  0.2648718E+04  0.7818608E-02  0.8351838E-01
          2   -1    0    0  501    0  0.00000000000E+00  0.00000000000E+00  0.22388550856E+04  0.22388550856E+04  0.00000000000E+00 0.  1.
         -2   -1    0    0    0  501 -0.00000000000E+00 -0.00000000000E+00 -0.78340364679E+03  0.78340364679E+03  0.00000000000E+00 0. -1.
         23    2    1    2    0    0  0.90296053766E+02  0.12868195485E+04  0.39500985265E+03  0.13523502663E+04  0.93597710086E+02 0.  0.
         13    1    3    3    0    0  0.63286990933E+02  0.10120915227E+04  0.34928515655E+03  0.10725365327E+04  0.00000000000E+00 0. -1.
        -13    1    3    3    0    0  0.27009062833E+02  0.27472802581E+03  0.45724696097E+02  0.27981373353E+03  0.00000000000E+00 0.  1.
         22    1    1    2    0    0 -0.90296053766E+02 -0.12868195485E+04  0.10604415862E+04  0.16699084662E+04  0.00000000000E+00 0.  1.
<mgrwt>
<rscale>  0 0.26487184E+04</rscale>
<asrwt>0</asrwt>
<pdfrwt beam="1">  1        2 0.34443924E+00 0.26487184E+04</pdfrwt>
<pdfrwt beam="2">  1       -2 0.12052364E+00 0.26487184E+04</pdfrwt>
<totfact> 0.22718848E+00</totfact>
</mgrwt>
</event>
<event>
 6    1  0.5026615E-004  0.6106330E+03  0.7818608E-02  0.9883588E-01
          2   -1    0    0  501    0  0.00000000000E+00  0.00000000000E+00  0.40301397740E+04  0.40301397740E+04  0.00000000000E+00 0.  1.
         -2   -1    0    0    0  501 -0.00000000000E+00 -0.00000000000E+00 -0.23130254837E+02  0.23130254837E+02  0.00000000000E+00 0. -1.
         23    2    1    2    0    0  0.12666469635E+03 -0.21996210123E+03  0.30915828419E+04  0.31033051491E+04  0.90504745028E+02 0.  0.
         11    1    3    3    0    0  0.90750917972E+02 -0.10813035743E+03  0.12420521034E+04  0.12500485314E+04  0.00000000000E+00 0. -1.
        -11    1    3    3    0    0  0.35913778373E+02 -0.11183174379E+03  0.18495307385E+04  0.18532566177E+04  0.00000000000E+00 0.  1.
         22    1    1    2    0    0 -0.12666469635E+03  0.21996210123E+03  0.91542667731E+03  0.94996487977E+03  0.00000000000E+00 0. -1.
<mgrwt>
<rscale>  0 0.61063298E+03</rscale>
<asrwt>0</asrwt>
<pdfrwt beam="1">  1        2 0.62002095E+00 0.61063298E+03</pdfrwt>
<pdfrwt beam="2">  1       -2 0.35585039E-02 0.61063298E+03</pdfrwt>
<totfact> 0.12738731E+02</totfact>
</mgrwt>
</event>
<event>
 6    1  0.5026615E-004  0.4034010E+04  0.7818608E-02  0.7997721E-01
         -2   -1    0    0    0  501 -0.00000000000E+00  0.00000000000E+00  0.21320340317E+04  0.21320340317E+04  0.00000000000E+00 0. -1.
          2   -1    0    0  501    0  0.00000000000E+00 -0.00000000000E+00 -0.19081817774E+04  0.19081817774E+04  0.00000000000E+00 0.  1.
         23    2    1    2    0    0 -0.52261425405E+03  0.18025141604E+04 -0.62529518056E+03  0.19803045676E+04  0.91810460653E+02 0.  0.
         11    1    3    3    0    0 -0.28123741071E+03  0.80585173868E+03 -0.28349775246E+03  0.89936782329E+03  0.00000000000E+00 0.  1.
        -11    1    3    3    0    0 -0.24137684334E+03  0.99666242167E+03 -0.34179742810E+03  0.10809367443E+04  0.00000000000E+00 0. -1.
         22    1    1    2    0    0  0.52261425405E+03 -0.18025141604E+04  0.84914743488E+03  0.20599112415E+04  0.00000000000E+00 0.  1.
<mgrwt>
<rscale>  0 0.40340097E+04</rscale>
<asrwt>0</asrwt>
<pdfrwt beam="1">  1        2 0.29356643E+00 0.40340097E+04</pdfrwt>
<pdfrwt beam="2">  1       -2 0.32800523E+00 0.40340097E+04</pdfrwt>
<totfact> 0.12626120E-01</totfact>
</mgrwt>
</event>
<event>
 6    1  0.5026615E-004  0.4304730E+04  0.7818608E-02  0.7945744E-01
         -2   -1    0    0    0  501 -0.00000000000E+00  0.00000000000E+00  0.17819500341E+04  0.17819500341E+04  0.00000000000E+00 0. -1.
          2   -1    0    0  501    0  0.00000000000E+00 -0.00000000000E+00 -0.25997780009E+04  0.25997780009E+04  0.00000000000E+00 0.  1.
         23    2    1    2    0    0  0.56993562401E+03  0.68571239809E+03 -0.24020004116E+04  0.25638637818E+04  0.93613065129E+02 0.  0.
         11    1    3    3    0    0  0.40151692403E+03  0.45178957203E+03 -0.17341290600E+04  0.18364458212E+04  0.00000000000E+00 0. -1.
        -11    1    3    3    0    0  0.16841869998E+03  0.23392282605E+03 -0.66787135163E+03  0.72741796059E+03  0.00000000000E+00 0.  1.
         22    1    1    2    0    0 -0.56993562401E+03 -0.68571239809E+03  0.15841724448E+04  0.18178642533E+04  0.00000000000E+00 0. -1.
<mgrwt>
<rscale>  0 0.43047297E+04</rscale>
<asrwt>0</asrwt>
<pdfrwt beam="1">  1        2 0.39996584E+00 0.43047297E+04</pdfrwt>
<pdfrwt beam="2">  1       -2 0.27414616E+00 0.43047297E+04</pdfrwt>
<totfact> 0.10713195E-01</totfact>
</mgrwt>
</event>
<event>
 6    1  0.5026615E-004  0.1051751E+04  0.7818608E-02  0.9253538E-01
          1   -1    0    0  501    0  0.00000000000E+00  0.00000000000E+00  0.50855796908E+03  0.50855796908E+03  0.00000000000E+00 0.  1.
         -1   -1    0    0    0  501 -0.00000000000E+00 -0.00000000000E+00 -0.54378255331E+03  0.54378255331E+03  0.00000000000E+00 0. -1.
         23    2    1    2    0    0 -0.51148980436E+03  0.64001864287E+02  0.64508079298E+02  0.52730274969E+03  0.90381629408E+02 0.  0.
         13    1    3    3    0    0 -0.34363374939E+03  0.41863039861E+02  0.15196821025E+00  0.34617436491E+03  0.00000000000E+00 0.  1.
        -13    1    3    3    0    0 -0.16785605497E+03  0.22138824426E+02  0.64356111088E+02  0.18112838477E+03  0.00000000000E+00 0. -1.
         22    1    1    2    0    0  0.51148980436E+03 -0.64001864287E+02 -0.99732663528E+02  0.52503777271E+03  0.00000000000E+00 0. -1.
<mgrwt>
<rscale>  0 0.10517508E+04</rscale>
<asrwt>0</asrwt>
<pdfrwt beam="1">  1        1 0.78239688E-01 0.10517508E+04</pdfrwt>
<pdfrwt beam="2">  1       -1 0.83658854E-01 0.10517508E+04</pdfrwt>
<totfact> 0.61356530E+01</totfact>
</mgrwt>
</event>
<event>
 6    1  0.5026615E-004  0.6890142E+03  0.7818608E-02  0.9736206E-01
         -2   -1    0    0    0  501 -0.00000000000E+00  0.00000000000E+00  0.14693107236E+03  0.14693107236E+03  0.00000000000E+00 0. -1.
          2   -1    0    0  501    0  0.00000000000E+00 -0.00000000000E+00 -0.80776070641E+03  0.80776070641E+03  0.00000000000E+00 0.  1.
         23    2    1    2    0    0 -0.16563347305E+03 -0.26922825943E+03 -0.50388703721E+03  0.60177637563E+03  0.91183095611E+02 0.  0.
         13    1    3    3    0    0 -0.85214132786E+02 -0.11462395654E+03 -0.30852733485E+03  0.33998414109E+03  0.00000000000E+00 0.  1.
        -13    1    3    3    0    0 -0.80419340259E+02 -0.15460430289E+03 -0.19535970236E+03  0.26179223454E+03  0.00000000000E+00 0. -1.
         22    1    1    2    0    0  0.16563347305E+03  0.26922825943E+03 -0.15694259684E+03  0.35291540314E+03  0.00000000000E+00 0.  1.
<mgrwt>
<rscale>  0 0.68901421E+03</rscale>
<asrwt>0</asrwt>
<pdfrwt beam="1">  1        2 0.12427088E+00 0.68901421E+03</pdfrwt>
<pdfrwt beam="2">  1       -2 0.22604780E-01 0.68901421E+03</pdfrwt>
<totfact> 0.58770588E+02</totfact>
</mgrwt>
</event>
<event>
 6    1  0.5026615E-004  0.1559822E+04  0.7818608E-02  0.8845618E-01
          2   -1    0    0  501    0  0.00000000000E+00  0.00000000000E+00  0.14038316879E+04  0.14038316879E+04  0.00000000000E+00 0.  1.
         -2   -1    0    0    0  501 -0.00000000000E+00 -0.00000000000E+00 -0.43328631656E+03  0.43328631656E+03  0.00000000000E+00 0. -1.
         23    2    1    2    0    0 -0.35954512032E+03  0.34775106432E+03 -0.21395635513E+03  0.55133114954E+03  0.89360048538E+02 0.  0.
         13    1    3    3    0    0 -0.20609063061E+03  0.18271192218E+03 -0.16383535263E+03  0.32046687396E+03  0.00000000000E+00 0.  1.
        -13    1    3    3    0    0 -0.15345448971E+03  0.16503914214E+03 -0.50121002497E+02  0.23086427558E+03  0.00000000000E+00 0. -1.
         22    1    1    2    0    0  0.35954512032E+03 -0.34775106432E+03  0.11845017265E+04  0.12857868549E+04  0.00000000000E+00 0.  1.
<mgrwt>
<rscale>  0 0.15598219E+04</rscale>
<asrwt>0</asrwt>
<pdfrwt beam="1">  1        2 0.21597410E+00 0.15598219E+04</pdfrwt>
<pdfrwt beam="2">  1       -2 0.66659434E-01 0.15598219E+04</pdfrwt>
<totfact> 0.28631012E+01</totfact>
</mgrwt>
</event>
<event>
 6    1  0.5026615E-004  0.1900257E+04  0.7818608E-02  0.8654728E-01
         -2   -1    0    0    0  501 -0.00000000000E+00  0.00000000000E+00  0.88778775118E+03  0.88778775118E+03  0.00000000000E+00 0. -1.
          2   -1    0    0  501    0  0.00000000000E+00 -0.00000000000E+00 -0.10168469227E+04  0.10168469227E+04  0.00000000000E+00 0.  1.
         23    2    1    2    0    0 -0.91364645073E+03  0.23924750574E+03 -0.13345864503E+03  0.96017262521E+03  0.11014106561E+03 0.  0.
         11    1    3    3    0    0 -0.31780831212E+03  0.57522836712E+02 -0.92194745708E+02  0.33587329625E+03  0.00000000000E+00 0.  1.
        -11    1    3    3    0    0 -0.59583813861E+03  0.18172466902E+03 -0.41263899322E+02  0.62429932896E+03  0.00000000000E+00 0. -1.
         22    1    1    2    0    0  0.91364645073E+03 -0.23924750574E+03  0.43994735492E+01  0.94446204863E+03  0.00000000000E+00 0.  1.
<mgrwt>
<rscale>  0 0.19002571E+04</rscale>
<asrwt>0</asrwt>
<pdfrwt beam="1">  1        2 0.15643799E+00 0.19002571E+04</pdfrwt>
<pdfrwt beam="2">  1       -2 0.13658273E+00 0.19002571E+04</pdfrwt>
<totfact> 0.88107878E+00</totfact>
</mgrwt>
</event>
<event>
 6    1  0.5026615E-004  0.4007700E+04  0.7818608E-02  0.8002995E-01
         -2   -1    0    0    0  501 -0.00000000000E+00  0.00000000000E+00  0.18657341474E+04  0.18657341474E+04  0.00000000000E+00 0. -1.
          2   -1    0    0  501    0  0.00000000000E+00 -0.00000000000E+00 -0.21521906718E+04  0.21521906718E+04  0.00000000000E+00 0.  1.
         23    2    1    2    0    0 -0.90082659487E+03  0.10766223993E+04 -0.15752953129E+04  0.21122202861E+04  0.96513571693E+02 0.  0.
         11    1    3    3    0    0 -0.88508083048E+02  0.12799737264E+03 -0.13655703919E+03  0.20703824072E+03  0.00000000000E+00 0. -1.
        -11    1    3    3    0    0 -0.81231851182E+03  0.94862502669E+03 -0.14387382737E+04  0.19051820454E+04  0.00000000000E+00 0.  1.
         22    1    1    2    0    0  0.90082659487E+03 -0.10766223993E+04  0.12888387885E+04  0.19057045331E+04  0.00000000000E+00 0. -1.
<mgrwt>
<rscale>  0 0.40077004E+04</rscale>
<asrwt>0</asrwt>
<pdfrwt beam="1">  1        2 0.33110626E+00 0.40077004E+04</pdfrwt>
<pdfrwt beam="2">  1       -2 0.28703602E+00 0.40077004E+04</pdfrwt>
<totfact> 0.16522425E-01</totfact>
</mgrwt>
</event>
<event>
 6    1  0.5026615E-004  0.2854661E+04  0.7818608E-02  0.8286497E-01
         -2   -1    0    0    0  501 -0.00000000000E+00  0.00000000000E+00  0.56999950238E+03  0.56999950238E+03  0.00000000000E+00 0. -1.
          2   -1    0    0  501    0  0.00000000000E+00 -0.00000000000E+00 -0.35741640683E+04  0.35741640683E+04  0.00000000000E+00 0.  1.
         23    2    1    2    0    0  0.46620690933E+03  0.11473654133E+04 -0.47782719018E+03  0.13305934525E+04  0.91454021660E+02 0.  0.
         11    1    3    3    0    0  0.29528692575E+03  0.72655812333E+03 -0.25501096428E+03  0.82468883041E+03  0.00000000000E+00 0. -1.
        -11    1    3    3    0    0  0.17091998358E+03  0.42080729001E+03 -0.22281622590E+03  0.50590462207E+03  0.00000000000E+00 0.  1.
         22    1    1    2    0    0 -0.46620690933E+03 -0.11473654133E+04 -0.25263373757E+04  0.28135701182E+04  0.00000000000E+00 0.  1.
<mgrwt>
<rscale>  0 0.28546606E+04</rscale>
<asrwt>0</asrwt>
<pdfrwt beam="1">  1        2 0.54987138E+00 0.28546606E+04</pdfrwt>
<pdfrwt beam="2">  1       -2 0.87692234E-01 0.28546606E+04</pdfrwt>
<totfact> 0.70003310E-01</totfact>
</mgrwt>
</event>
<event>
 6    1  0.5026615E-004  0.3791539E+04  0.7818608E-02  0.8047973E-01
          2   -1    0    0  501    0  0.00000000000E+00  0.00000000000E+00  0.20519490605E+04  0.20519490605E+04  0.00000000000E+00 0.  1.
         -2   -1    0    0    0  501 -0.00000000000E+00 -0.00000000000E+00 -0.17514769106E+04  0.17514769106E+04  0.00000000000E+00 0. -1.
         23    2    1    2    0    0 -0.42448954282E+03 -0.15466169075E+04  0.11622306143E+04  0.19827549735E+04  0.91225289551E+02 0.  0.
         13    1    3    3    0    0 -0.39483795723E+03 -0.13278015532E+04  0.10160398416E+04  0.17179321689E+04  0.00000000000E+00 0.  1.
        -13    1    3    3    0    0 -0.29651585585E+02 -0.21881535433E+03  0.14619077271E+03  0.26482280461E+03  0.00000000000E+00 0. -1.
         22    1    1    2    0    0  0.42448954282E+03  0.15466169075E+04 -0.86175846437E+03  0.18206709976E+04  0.00000000000E+00 0. -1.
<mgrwt>
<rscale>  0 0.37915387E+04</rscale>
<asrwt>0</asrwt>
<pdfrwt beam="1">  1        2 0.31568447E+00 0.37915387E+04</pdfrwt>
<pdfrwt beam="2">  1       -2 0.26945799E+00 0.37915387E+04</pdfrwt>
<totfact> 0.24494524E-01</totfact>
</mgrwt>
</event>
<event>
 6    1  0.5026615E-004  0.2569060E+04  0.7818608E-02  0.8378787E-01
         -2   -1    0    0    0  501 -0.00000000000E+00  0.00000000000E+00  0.87375409305E+03  0.87375409305E+03  0.00000000000E+00 0. -1.
          2   -1    0    0  501    0  0.00000000000E+00 -0.00000000000E+00 -0.18884229579E+04  0.18884229579E+04  0.00000000000E+00 0.  1.
         23    2    1    2    0    0  0.98488446843E+02  0.11968108484E+04 -0.99353598628E+03  0.15611346788E+04  0.89283527922E+02 0.  0.
         11    1    3    3    0    0  0.71656238728E+02  0.36721808389E+03 -0.30927693301E+03  0.48542348416E+03  0.00000000000E+00 0. -1.
        -11    1    3    3    0    0  0.26832208115E+02  0.82959276453E+03 -0.68425905326E+03  0.10757111947E+04  0.00000000000E+00 0.  1.
         22    1    1    2    0    0 -0.98488446843E+02 -0.11968108484E+04 -0.21132878564E+02  0.12010423721E+04  0.00000000000E+00 0.  1.
<mgrwt>
<rscale>  0 0.25690600E+04</rscale>
<asrwt>0</asrwt>
<pdfrwt beam="1">  1        2 0.29052660E+00 0.25690600E+04</pdfrwt>
<pdfrwt beam="2">  1       -2 0.13442371E+00 0.25690600E+04</pdfrwt>
<totfact> 0.27261696E+00</totfact>
</mgrwt>
</event>
<event>
 6    1  0.5026615E-004  0.1692337E+04  0.7818608E-02  0.8765747E-01
         -2   -1    0    0    0  501 -0.00000000000E+00  0.00000000000E+00  0.39619401858E+03  0.39619401858E+03  0.00000000000E+00 0. -1.
          2   -1    0    0  501    0  0.00000000000E+00 -0.00000000000E+00 -0.18071977909E+04  0.18071977909E+04  0.00000000000E+00 0.  1.
         23    2    1    2    0    0 -0.24429288684E+03 -0.79080964127E+03 -0.49509214768E+03  0.96890689364E+03  0.92765459960E+02 0.  0.
         13    1    3    3    0    0 -0.15128769577E+03 -0.34017092240E+03 -0.20591624053E+03  0.42544767181E+03  0.00000000000E+00 0.  1.
        -13    1    3    3    0    0 -0.93005191066E+02 -0.45063871888E+03 -0.28917590715E+03  0.54345922183E+03  0.00000000000E+00 0. -1.
         22    1    1    2    0    0  0.24429288684E+03  0.79080964127E+03 -0.91591162461E+03  0.12344849158E+04  0.00000000000E+00 0.  1.
<mgrwt>
<rscale>  0 0.16923368E+04</rscale>
<asrwt>0</asrwt>
<pdfrwt beam="1">  1        2 0.27803043E+00 0.16923368E+04</pdfrwt>
<pdfrwt beam="2">  1       -2 0.60952925E-01 0.16923368E+04</pdfrwt>
<totfact> 0.20388660E+01</totfact>
</mgrwt>
</event>
<event>
 6    1  0.5026615E-004  0.1548127E+04  0.7818608E-02  0.8853065E-01
         -2   -1    0    0    0  501 -0.00000000000E+00  0.00000000000E+00  0.14986785953E+04  0.14986785953E+04  0.00000000000E+00 0. -1.
          2   -1    0    0  501    0  0.00000000000E+00 -0.00000000000E+00 -0.39980180276E+03  0.39980180276E+03  0.00000000000E+00 0.  1.
         23    2    1    2    0    0  0.74358358576E+03  0.80360659756E+02  0.32028675214E+03  0.81886155994E+03  0.92608131964E+02 0.  0.
         13    1    3    3    0    0  0.54731557900E+03  0.17725453105E+02  0.23182108976E+03  0.59465078185E+03  0.00000000000E+00 0. -1.
        -13    1    3    3    0    0  0.19626800676E+03  0.62635206651E+02  0.88465662386E+02  0.22421077809E+03  0.00000000000E+00 0.  1.
         22    1    1    2    0    0 -0.74358358576E+03 -0.80360659756E+02  0.77859004044E+03  0.10796188382E+04  0.00000000000E+00 0. -1.
<mgrwt>
<rscale>  0 0.15481271E+04</rscale>
<asrwt>0</asrwt>
<pdfrwt beam="1">  1        2 0.61507970E-01 0.15481271E+04</pdfrwt>
<pdfrwt beam="2">  1       -2 0.23056594E+00 0.15481271E+04</pdfrwt>
<totfact> 0.64935522E+00</totfact>
</mgrwt>
</event>
<event>
 6    1  0.5026615E-004  0.2303204E+04  0.7818608E-02  0.8476659E-01
         -2   -1    0    0    0  501 -0.00000000000E+00  0.00000000000E+00  0.65203448721E+03  0.65203448721E+03  0.00000000000E+00 0. -1.
          2   -1    0    0  501    0  0.00000000000E+00 -0.00000000000E+00 -0.20339215115E+04  0.20339215115E+04  0.00000000000E+00 0.  1.
         23    2    1    2    0    0  0.72438289887E+03 -0.65882151020E+03  0.10803978314E+02  0.98349760121E+03  0.91511961873E+02 0.  0.
         11    1    3    3    0    0  0.12769260445E+03 -0.85657500399E+02 -0.22765535877E+02  0.15543769887E+03  0.00000000000E+00 0.  1.
        -11    1    3    3    0    0  0.59669029442E+03 -0.57316400980E+03  0.33569514191E+02  0.82805990234E+03  0.00000000000E+00 0. -1.
         22    1    1    2    0    0 -0.72438289887E+03  0.65882151020E+03 -0.13926910026E+04  0.17024583975E+04  0.00000000000E+00 0.  1.
<mgrwt>
<rscale>  0 0.23032038E+04</rscale>
<asrwt>0</asrwt>
<pdfrwt beam="1">  1        2 0.31291100E+00 0.23032038E+04</pdfrwt>
<pdfrwt beam="2">  1       -2 0.10031300E+00 0.23032038E+04</pdfrwt>
<totfact> 0.47533447E+00</totfact>
</mgrwt>
</event>
<event>
 6    1  0.5026615E-004  0.2434696E+04  0.7818608E-02  0.8426627E-01
         -2   -1    0    0    0  501 -0.00000000000E+00  0.00000000000E+00  0.53421234871E+03  0.53421234871E+03  0.00000000000E+00 0. -1.
          2   -1    0    0  501    0  0.00000000000E+00 -0.00000000000E+00 -0.27740588168E+04  0.27740588168E+04  0.00000000000E+00 0.  1.
         23    2    1    2    0    0  0.94868620025E+03  0.45471814098E+03 -0.29432710532E+03  0.10965253200E+04  0.94684941601E+02 0.  0.
         11    1    3    3    0    0  0.55180346833E+03  0.31514034277E+03 -0.18522010009E+03  0.66189650911E+03  0.00000000000E+00 0. -1.
        -11    1    3    3    0    0  0.39688273192E+03  0.13957779821E+03 -0.10910700523E+03  0.43462881087E+03  0.00000000000E+00 0.  1.
         22    1    1    2    0    0 -0.94868620025E+03 -0.45471814098E+03 -0.19455193627E+04  0.22117458455E+04  0.00000000000E+00 0.  1.
<mgrwt>
<rscale>  0 0.24346963E+04</rscale>
<asrwt>0</asrwt>
<pdfrwt beam="1">  1        2 0.42677828E+00 0.24346963E+04</pdfrwt>
<pdfrwt beam="2">  1       -2 0.82186516E-01 0.24346963E+04</pdfrwt>
<totfact> 0.27961353E+00</totfact>
</mgrwt>
</event>
<event>
 6    1  0.5026615E-004  0.4542281E+04  0.7818608E-02  0.7903276E-01
         -2   -1    0    0    0  501 -0.00000000000E+00  0.00000000000E+00  0.17577407093E+04  0.17577407093E+04  0.00000000000E+00 0. -1.
          2   -1    0    0  501    0  0.00000000000E+00 -0.00000000000E+00 -0.29344940686E+04  0.29344940686E+04  0.00000000000E+00 0.  1.
         23    2    1    2    0    0 -0.15695304242E+04  0.82443462123E+03 -0.20533838817E+04  0.27144584331E+04  0.93707111372E+02 0.  0.
         13    1    3    3    0    0 -0.43385403624E+03  0.22991465494E+03 -0.63404546075E+03  0.80193747862E+03  0.00000000000E+00 0. -1.
        -13    1    3    3    0    0 -0.11356763879E+04  0.59451996629E+03 -0.14193384209E+04  0.19125209545E+04  0.00000000000E+00 0.  1.
         22    1    1    2    0    0  0.15695304242E+04 -0.82443462123E+03  0.87663052242E+03  0.19777763448E+04  0.00000000000E+00 0. -1.
<mgrwt>
<rscale>  0 0.45422812E+04</rscale>
<asrwt>0</asrwt>
<pdfrwt beam="1">  1        2 0.45146063E+00 0.45422812E+04</pdfrwt>
<pdfrwt beam="2">  1       -2 0.27042165E+00 0.45422812E+04</pdfrwt>
<totfact> 0.69565111E-02</totfact>
</mgrwt>
</event>
<event>
 6    1  0.5026615E-004  0.3330696E+04  0.7818608E-02  0.8155128E-01
         -2   -1    0    0    0  501 -0.00000000000E+00  0.00000000000E+00  0.49962835594E+04  0.49962835594E+04  0.00000000000E+00 0. -1.
          2   -1    0    0  501    0  0.00000000000E+00 -0.00000000000E+00 -0.55508941763E+03  0.55508941763E+03  0.00000000000E+00 0.  1.
         23    2    1    2    0    0  0.13287447455E+04  0.10444116321E+03  0.38828454888E+04  0.41063041989E+04  0.93672455653E+02 0.  0.
         11    1    3    3    0    0  0.69132982872E+03  0.10114656528E+03  0.20199999415E+04  0.21374207174E+04  0.00000000000E+00 0. -1.
        -11    1    3    3    0    0  0.63741491674E+03  0.32945979252E+01  0.18628455473E+04  0.19688834815E+04  0.00000000000E+00 0.  1.
         22    1    1    2    0    0 -0.13287447455E+04 -0.10444116321E+03  0.55834865294E+03  0.14450687781E+04  0.00000000000E+00 0.  1.
<mgrwt>
<rscale>  0 0.33306961E+04</rscale>
<asrwt>0</asrwt>
<pdfrwt beam="1">  1        2 0.85398375E-01 0.33306961E+04</pdfrwt>
<pdfrwt beam="2">  1       -2 0.76865898E+00 0.33306961E+04</pdfrwt>
<totfact> 0.52956497E-03</totfact>
</mgrwt>
</event>
<event>
 6    1  0.5026615E-004  0.2654473E+04  0.7818608E-02  0.8349930E-01
          2   -1    0    0  501    0  0.00000000000E+00  0.00000000000E+00  0.16118714400E+04  0.16118714400E+04  0.00000000000E+00 0.  1.
         -2   -1    0    0    0  501 -0.00000000000E+00 -0.00000000000E+00 -0.10928644057E+04  0.10928644057E+04  0.00000000000E+00 0. -1.
         23    2    1    2    0    0  0.11528927406E+04  0.65102644771E+03  0.19291213188E+03  0.13411615015E+04  0.92206157061E+02 0.  0.
         11    1    3    3    0    0  0.85238870474E+03  0.52017123201E+03  0.16629992979E+03  0.10123241977E+04  0.00000000000E+00 0. -1.
        -11    1    3    3    0    0  0.30050403587E+03  0.13085521570E+03  0.26612202087E+02  0.32883730377E+03  0.00000000000E+00 0.  1.
         22    1    1    2    0    0 -0.11528927406E+04 -0.65102644771E+03  0.32609490236E+03  0.13635743443E+04  0.00000000000E+00 0.  1.
<mgrwt>
<rscale>  0 0.26544731E+04</rscale>
<asrwt>0</asrwt>
<pdfrwt beam="1">  1        2 0.24798022E+00 0.26544731E+04</pdfrwt>
<pdfrwt beam="2">  1       -2 0.16813299E+00 0.26544731E+04</pdfrwt>
<totfact> 0.21258924E+00</totfact>
</mgrwt>
</event>
<event>
 6    1  0.5026615E-004  0.1640874E+04  0.7818608E-02  0.8795824E-01
         -2   -1    0    0    0  501 -0.00000000000E+00  0.00000000000E+00  0.11375237248E+04  0.11375237248E+04  0.00000000000E+00 0. -1.
          2   -1    0    0  501    0  0.00000000000E+00 -0.00000000000E+00 -0.59173872620E+03  0.59173872620E+03  0.00000000000E+00 0.  1.
         23    2    1    2    0    0  0.13503669277E+03 -0.63033682164E+03  0.80418312185E+03  0.10347633457E+04  0.92006907728E+02 0.  0.
         13    1    3    3    0    0  0.30736388925E+02 -0.18337394629E+03  0.17009817089E+03  0.25200023318E+03  0.00000000000E+00 0. -1.
        -13    1    3    3    0    0  0.10430030385E+03 -0.44696287535E+03  0.63408495096E+03  0.78276311254E+03  0.00000000000E+00 0.  1.
         22    1    1    2    0    0 -0.13503669277E+03  0.63033682164E+03 -0.25839812327E+03  0.69449910526E+03  0.00000000000E+00 0.  1.
<mgrwt>
<rscale>  0 0.16408740E+04</rscale>
<asrwt>0</asrwt>
<pdfrwt beam="1">  1        2 0.91036727E-01 0.16408740E+04</pdfrwt>
<pdfrwt beam="2">  1       -2 0.17500365E+00 0.16408740E+04</pdfrwt>
<totfact> 0.94634217E+00</totfact>
</mgrwt>
</event>
<event>
 6    1  0.5026615E-004  0.6624067E+04  0.7818608E-02  0.7617499E-01
         -2   -1    0    0    0  501 -0.00000000000E+00  0.00000000000E+00  0.49795553555E+04  0.49795553555E+04  0.00000000000E+00 0. -1.
          2   -1    0    0  501    0  0.00000000000E+00 -0.00000000000E+00 -0.22029210042E+04  0.22029210042E+04  0.00000000000E+00 0.  1.
         23    2    1    2    0    0 -0.26037690849E+04  0.15693990739E+04 -0.34629513606E+02  0.30417238412E+04  0.90872559991E+02 0.  0.
         11    1    3    3    0    0 -0.11601022590E+04  0.64661763676E+03 -0.15133956536E+02  0.13282246256E+04  0.00000000000E+00 0. -1.
        -11    1    3    3    0    0 -0.14436668260E+04  0.92278143712E+03 -0.19495557070E+02  0.17134992156E+04  0.00000000000E+00 0.  1.
         22    1    1    2    0    0  0.26037690849E+04 -0.15693990739E+04  0.28112638650E+04  0.41407525185E+04  0.00000000000E+00 0. -1.
<mgrwt>
<rscale>  0 0.66240674E+04</rscale>
<asrwt>0</asrwt>
<pdfrwt beam="1">  1        2 0.33891092E+00 0.66240674E+04</pdfrwt>
<pdfrwt beam="2">  1       -2 0.76608544E+00 0.66240674E+04</pdfrwt>
<totfact> 0.40264943E-04</totfact>
</mgrwt>
</event>
<event>
 6    1  0.5026615E-004  0.1752378E+04  0.7818608E-02  0.8732042E-01
          2   -1    0    0  501    0  0.00000000000E+00  0.00000000000E+00  0.14913516889E+04  0.14913516889E+04  0.00000000000E+00 0.  1.
         -2   -1    0    0    0  501 -0.00000000000E+00 -0.00000000000E+00 -0.51477273613E+03  0.51477273613E+03  0.00000000000E+00 0. -1.
         23    2    1    2    0    0  0.36749591864E+03  0.25822726167E+03  0.13477030507E+04  0.14234858879E+04  0.90961483714E+02 0.  0.
         13    1    3    3    0    0  0.20121953401E+03  0.11242824483E+03  0.80795343558E+03  0.84018936268E+03  0.00000000000E+00 0. -1.
        -13    1    3    3    0    0  0.16627638463E+03  0.14579901683E+03  0.53974961509E+03  0.58329652526E+03  0.00000000000E+00 0.  1.
         22    1    1    2    0    0 -0.36749591864E+03 -0.25822726167E+03 -0.37112409788E+03  0.58263853710E+03  0.00000000000E+00 0. -1.
<mgrwt>
<rscale>  0 0.17523780E+04</rscale>
<asrwt>0</asrwt>
<pdfrwt beam="1">  1        2 0.22943872E+00 0.17523780E+04</pdfrwt>
<pdfrwt beam="2">  1       -2 0.79195806E-01 0.17523780E+04</pdfrwt>
<totfact> 0.17202453E+01</totfact>
</mgrwt>
</event>
<event>
 6    1  0.5026615E-004  0.2885357E+04  0.7818608E-02  0.8277248E-01
          1   -1    0    0  501    0  0.00000000000E+00  0.00000000000E+00  0.16146072017E+04  0.16146072017E+04  0.00000000000E+00 0. -1.
         -1   -1    0    0    0  501 -0.00000000000E+00 -0.00000000000E+00 -0.12890572353E+04  0.12890572353E+04  0.00000000000E+00 0.  1.
         23    2    1    2    0    0  0.98723754542E+03 -0.35889342443E+03 -0.83002116634E+03  0.13420027886E+04  0.92703218726E+02 0.  0.
         11    1    3    3    0    0  0.53528248531E+03 -0.24192306360E+03 -0.47758687548E+03  0.75706230353E+03  0.00000000000E+00 0.  1.
        -11    1    3    3    0    0  0.45195506010E+03 -0.11697036083E+03 -0.35243429085E+03  0.58494048504E+03  0.00000000000E+00 0. -1.
         22    1    1    2    0    0 -0.98723754542E+03  0.35889342443E+03  0.11555711327E+04  0.15616616484E+04  0.00000000000E+00 0. -1.
<mgrwt>
<rscale>  0 0.28853569E+04</rscale>
<asrwt>0</asrwt>
<pdfrwt beam="1">  1        1 0.24840111E+00 0.28853569E+04</pdfrwt>
<pdfrwt beam="2">  1       -1 0.19831650E+00 0.28853569E+04</pdfrwt>
<totfact> 0.72449629E-01</totfact>
</mgrwt>
</event>
<event>
 6    1  0.5026615E-004  0.2580803E+04  0.7818608E-02  0.8374751E-01
          2   -1    0    0  501    0  0.00000000000E+00  0.00000000000E+00  0.66770898138E+03  0.66770898138E+03  0.00000000000E+00 0.  1.
         -2   -1    0    0    0  501 -0.00000000000E+00 -0.00000000000E+00 -0.24938051957E+04  0.24938051957E+04  0.00000000000E+00 0. -1.
         23    2    1    2    0    0  0.11973419359E+04  0.50425568042E+02 -0.14949085430E+04  0.19181897130E+04  0.92356773723E+02 0.  0.
         11    1    3    3    0    0  0.69242486466E+03  0.34988387905E+02 -0.79192960378E+03  0.10525345020E+04  0.00000000000E+00 0. -1.
        -11    1    3    3    0    0  0.50491707125E+03  0.15437180138E+02 -0.70297893921E+03  0.86565521100E+03  0.00000000000E+00 0.  1.
         22    1    1    2    0    0 -0.11973419359E+04 -0.50425568042E+02 -0.33118767133E+03  0.12433244641E+04  0.00000000000E+00 0.  1.
<mgrwt>
<rscale>  0 0.25808031E+04</rscale>
<asrwt>0</asrwt>
<pdfrwt beam="1">  1        2 0.10272446E+00 0.25808031E+04</pdfrwt>
<pdfrwt beam="2">  1       -2 0.38366234E+00 0.25808031E+04</pdfrwt>
<totfact> 0.36533716E-01</totfact>
</mgrwt>
</event>
<event>
 6    1  0.5026615E-004  0.3402708E+04  0.7818608E-02  0.8137242E-01
          2   -1    0    0  501    0  0.00000000000E+00  0.00000000000E+00  0.99192342329E+03  0.99192342329E+03  0.00000000000E+00 0.  1.
         -2   -1    0    0    0  501 -0.00000000000E+00 -0.00000000000E+00 -0.29181746069E+04  0.29181746069E+04  0.00000000000E+00 0. -1.
         23    2    1    2    0    0 -0.76170784061E+03 -0.71662970687E+03 -0.25040634169E+04  0.27152658461E+04  0.92617751921E+02 0.  0.
         11    1    3    3    0    0 -0.26518685551E+03 -0.27619821208E+03 -0.10220680003E+04  0.10914359889E+04  0.00000000000E+00 0.  1.
        -11    1    3    3    0    0 -0.49652098510E+03 -0.44043149479E+03 -0.14819954166E+04  0.16238298572E+04  0.00000000000E+00 0. -1.
         22    1    1    2    0    0  0.76170784061E+03  0.71662970687E+03  0.57781223327E+03  0.11948321841E+04  0.00000000000E+00 0.  1.
<mgrwt>
<rscale>  0 0.34027082E+04</rscale>
<asrwt>0</asrwt>
<pdfrwt beam="1">  1        2 0.15260361E+00 0.34027082E+04</pdfrwt>
<pdfrwt beam="2">  1       -2 0.44894994E+00 0.34027082E+04</pdfrwt>
<totfact> 0.74374163E-02</totfact>
</mgrwt>
</event>
<event>
 6    1  0.5026615E-004  0.1504819E+04  0.7818608E-02  0.8881254E-01
         -1   -1    0    0    0  501 -0.00000000000E+00  0.00000000000E+00  0.31682447125E+03  0.31682447125E+03  0.00000000000E+00 0. -1.
          1   -1    0    0  501    0  0.00000000000E+00 -0.00000000000E+00 -0.17868578863E+04  0.17868578863E+04  0.00000000000E+00 0.  1.
         23    2    1    2    0    0  0.52750250025E+03 -0.12759647721E+03 -0.14606854811E+04  0.15608866938E+04  0.90694252132E+02 0.  0.
         13    1    3    3    0    0  0.29750556569E+03 -0.44887015464E+02 -0.90851941285E+03  0.95704332676E+03  0.00000000000E+00 0. -1.
        -13    1    3    3    0    0  0.22999693457E+03 -0.82709461747E+02 -0.55216606823E+03  0.60384336700E+03  0.00000000000E+00 0.  1.
         22    1    1    2    0    0 -0.52750250025E+03  0.12759647721E+03 -0.93479339928E+01  0.54279566380E+03  0.00000000000E+00 0. -1.
<mgrwt>
<rscale>  0 0.15048193E+04</rscale>
<asrwt>0</asrwt>
<pdfrwt beam="1">  1        1 0.27490121E+00 0.15048193E+04</pdfrwt>
<pdfrwt beam="2">  1       -1 0.48742227E-01 0.15048193E+04</pdfrwt>
<totfact> 0.16945976E+01</totfact>
</mgrwt>
</event>
<event>
 6    1  0.5026615E-004  0.2046703E+04  0.7818608E-02  0.8585092E-01
         -2   -1    0    0    0  501 -0.00000000000E+00  0.00000000000E+00  0.49498180410E+03  0.49498180410E+03  0.00000000000E+00 0. -1.
          2   -1    0    0  501    0  0.00000000000E+00 -0.00000000000E+00 -0.21157303329E+04  0.21157303329E+04  0.00000000000E+00 0.  1.
         23    2    1    2    0    0 -0.13463534081E+03 -0.65146929324E+03 -0.18004629280E+04  0.19216285569E+04  0.91927365811E+02 0.  0.
         13    1    3    3    0    0 -0.48989920681E+01 -0.23931625563E+03 -0.62593572843E+03  0.67014312386E+03  0.00000000000E+00 0. -1.
        -13    1    3    3    0    0 -0.12973634875E+03 -0.41215303761E+03 -0.11745271995E+04  0.12514854330E+04  0.00000000000E+00 0.  1.
         22    1    1    2    0    0  0.13463534081E+03  0.65146929324E+03  0.17971439922E+03  0.68908358007E+03  0.00000000000E+00 0. -1.
<mgrwt>
<rscale>  0 0.20467027E+04</rscale>
<asrwt>0</asrwt>
<pdfrwt beam="1">  1        2 0.32549698E+00 0.20467027E+04</pdfrwt>
<pdfrwt beam="2">  1       -2 0.76151045E-01 0.20467027E+04</pdfrwt>
<totfact> 0.82260507E+00</totfact>
</mgrwt>
</event>
<event>
 6    1  0.5026615E-004  0.1989463E+04  0.7818608E-02  0.8611563E-01
         -2   -1    0    0    0  501 -0.00000000000E+00  0.00000000000E+00  0.41503227877E+03  0.41503227877E+03  0.00000000000E+00 0. -1.
          2   -1    0    0  501    0  0.00000000000E+00 -0.00000000000E+00 -0.23841286379E+04  0.23841286379E+04  0.00000000000E+00 0.  1.
         23    2    1    2    0    0 -0.79431739202E+03  0.23292523117E+03 -0.17572399688E+04  0.19447152410E+04  0.93972218638E+02 0.  0.
         11    1    3    3    0    0 -0.41792931052E+03  0.79861009997E+02 -0.84515791363E+03  0.94622121540E+03  0.00000000000E+00 0.  1.
        -11    1    3    3    0    0 -0.37638808150E+03  0.15306422117E+03 -0.91208205519E+03  0.99849402557E+03  0.00000000000E+00 0. -1.
         22    1    1    2    0    0  0.79431739202E+03 -0.23292523117E+03 -0.21185639028E+03  0.85444567568E+03  0.00000000000E+00 0. -1.
<mgrwt>
<rscale>  0 0.19894626E+04</rscale>
<asrwt>0</asrwt>
<pdfrwt beam="1">  1        2 0.36678902E+00 0.19894626E+04</pdfrwt>
<pdfrwt beam="2">  1       -2 0.63851120E-01 0.19894626E+04</pdfrwt>
<totfact> 0.85656495E+00</totfact>
</mgrwt>
</event>
<event>
 6    1  0.5026615E-004  0.2350471E+04  0.7818608E-02  0.8458283E-01
         -2   -1    0    0    0  501 -0.00000000000E+00  0.00000000000E+00  0.65329827706E+03  0.65329827706E+03  0.00000000000E+00 0. -1.
          2   -1    0    0  501    0  0.00000000000E+00 -0.00000000000E+00 -0.21141613422E+04  0.21141613422E+04  0.00000000000E+00 0.  1.
         23    2    1    2    0    0  0.79719688562E+03 -0.19011379527E+01 -0.17454645955E+04  0.19209819056E+04  0.89433432067E+02 0.  0.
         11    1    3    3    0    0  0.47919577868E+03  0.42656034987E+02 -0.10488283703E+04  0.11539016778E+04  0.00000000000E+00 0. -1.
        -11    1    3    3    0    0  0.31800110694E+03 -0.44557172940E+02 -0.69663622517E+03  0.76708022781E+03  0.00000000000E+00 0.  1.
         22    1    1    2    0    0 -0.79719688562E+03  0.19011379527E+01  0.28460153030E+03  0.84647771371E+03  0.00000000000E+00 0. -1.
<mgrwt>
<rscale>  0 0.23504706E+04</rscale>
<asrwt>0</asrwt>
<pdfrwt beam="1">  1        2 0.32525559E+00 0.23504706E+04</pdfrwt>
<pdfrwt beam="2">  1       -2 0.10050743E+00 0.23504706E+04</pdfrwt>
<totfact> 0.42510659E+00</totfact>
</mgrwt>
</event>
<event>
 6    1  0.5026615E-004  0.2859230E+04  0.7818608E-02  0.8285112E-01
         -2   -1    0    0    0  501 -0.00000000000E+00  0.00000000000E+00  0.73877717163E+03  0.73877717163E+03  0.00000000000E+00 0. -1.
          2   -1    0    0  501    0  0.00000000000E+00 -0.00000000000E+00 -0.27664616500E+04  0.27664616500E+04  0.00000000000E+00 0.  1.
         23    2    1    2    0    0  0.11849210758E+04 -0.88975188745E+02 -0.19861211333E+04  0.23162552003E+04  0.91686731319E+02 0.  0.
         13    1    3    3    0    0  0.18782318978E+03 -0.33445672027E+02 -0.37489319275E+03  0.42064363726E+03  0.00000000000E+00 0. -1.
        -13    1    3    3    0    0  0.99709788604E+03 -0.55529516718E+02 -0.16112279406E+04  0.18956115631E+04  0.00000000000E+00 0.  1.
         22    1    1    2    0    0 -0.11849210758E+04  0.88975188745E+02 -0.41563345073E+02  0.11889836213E+04  0.00000000000E+00 0. -1.
<mgrwt>
<rscale>  0 0.28592298E+04</rscale>
<asrwt>0</asrwt>
<pdfrwt beam="1">  1        2 0.42560949E+00 0.28592298E+04</pdfrwt>
<pdfrwt beam="2">  1       -2 0.11365802E+00 0.28592298E+04</pdfrwt>
<totfact> 0.12725761E+00</totfact>
</mgrwt>
</event>
<event>
 6    1  0.5026615E-004  0.2079173E+04  0.7818608E-02  0.8570474E-01
          2   -1    0    0  501    0  0.00000000000E+00  0.00000000000E+00  0.16308129516E+04  0.16308129516E+04  0.00000000000E+00 0.  1.
         -2   -1    0    0    0  501 -0.00000000000E+00 -0.00000000000E+00 -0.66270002876E+03  0.66270002876E+03  0.00000000000E+00 0. -1.
         23    2    1    2    0    0  0.75572378882E+03 -0.18165324817E+03  0.12430695829E+04  0.14690631563E+04  0.93852127085E+02 0.  0.
         11    1    3    3    0    0  0.25730876423E+03 -0.41283022331E+02  0.34430880979E+03  0.43181088984E+03  0.00000000000E+00 0. -1.
        -11    1    3    3    0    0  0.49841502459E+03 -0.14037022584E+03  0.89876077308E+03  0.10372522664E+04  0.00000000000E+00 0.  1.
         22    1    1    2    0    0 -0.75572378882E+03  0.18165324817E+03 -0.27495666001E+03  0.82444982409E+03  0.00000000000E+00 0. -1.
<mgrwt>
<rscale>  0 0.20791727E+04</rscale>
<asrwt>0</asrwt>
<pdfrwt beam="1">  1        2 0.25089430E+00 0.20791727E+04</pdfrwt>
<pdfrwt beam="2">  1       -2 0.10195385E+00 0.20791727E+04</pdfrwt>
<totfact> 0.78048909E+00</totfact>
</mgrwt>
</event>
<event>
 6    1  0.5026615E-004  0.1810420E+04  0.7818608E-02  0.8700778E-01
          2   -1    0    0  501    0  0.00000000000E+00  0.00000000000E+00  0.16591778526E+04  0.16591778526E+04  0.00000000000E+00 0. -1.
         -2   -1    0    0    0  501 -0.00000000000E+00 -0.00000000000E+00 -0.49386232420E+03  0.49386232420E+03  0.00000000000E+00 0.  1.
         23    2    1    2    0    0 -0.36831199900E+03  0.65517155533E+03  0.11799907387E+04  0.14012962993E+04  0.79684876328E+02 0.  0.
         13    1    3    3    0    0 -0.27588067221E+03  0.49508071958E+03  0.82283196759E+03  0.99913338003E+03  0.00000000000E+00 0.  1.
        -13    1    3    3    0    0 -0.92431326790E+02  0.16009083575E+03  0.35715877109E+03  0.40216291926E+03  0.00000000000E+00 0. -1.
         22    1    1    2    0    0  0.36831199900E+03 -0.65517155533E+03 -0.14675210310E+02  0.75174387748E+03  0.00000000000E+00 0. -1.
<mgrwt>
<rscale>  0 0.18104203E+04</rscale>
<asrwt>0</asrwt>
<pdfrwt beam="1">  1        2 0.25525813E+00 0.18104203E+04</pdfrwt>
<pdfrwt beam="2">  1       -2 0.75978820E-01 0.18104203E+04</pdfrwt>
<totfact> 0.15122526E+01</totfact>
</mgrwt>
</event>
<event>
 6    1  0.5026615E-004  0.2032451E+04  0.7818608E-02  0.8591597E-01
         -2   -1    0    0    0  501 -0.00000000000E+00  0.00000000000E+00  0.87095511673E+03  0.87095511673E+03  0.00000000000E+00 0. -1.
          2   -1    0    0  501    0  0.00000000000E+00 -0.00000000000E+00 -0.11857258155E+04  0.11857258155E+04  0.00000000000E+00 0.  1.
         23    2    1    2    0    0 -0.70295207497E+03  0.45288740216E+02  0.58061287946E+03  0.91742484080E+03  0.91456727612E+02 0.  0.
         11    1    3    3    0    0 -0.30572835385E+03 -0.24492102512E+02  0.23747227835E+03  0.38789531116E+03  0.00000000000E+00 0.  1.
        -11    1    3    3    0    0 -0.39722372111E+03  0.69780842728E+02  0.34314060111E+03  0.52952952963E+03  0.00000000000E+00 0. -1.
         22    1    1    2    0    0  0.70295207497E+03 -0.45288740216E+02 -0.89538357818E+03  0.11392560914E+04  0.00000000000E+00 0.  1.
<mgrwt>
<rscale>  0 0.20324507E+04</rscale>
<asrwt>0</asrwt>
<pdfrwt beam="1">  1        2 0.18241936E+00 0.20324507E+04</pdfrwt>
<pdfrwt beam="2">  1       -2 0.13399309E+00 0.20324507E+04</pdfrwt>
<totfact> 0.71992375E+00</totfact>
</mgrwt>
</event>
<event>
 6    1  0.5026615E-004  0.1052227E+04  0.7818608E-02  0.9253048E-01
         -2   -1    0    0    0  501 -0.00000000000E+00  0.00000000000E+00  0.17464904403E+03  0.17464904403E+03  0.00000000000E+00 0. -1.
          2   -1    0    0  501    0  0.00000000000E+00 -0.00000000000E+00 -0.15848658573E+04  0.15848658573E+04  0.00000000000E+00 0.  1.
         23    2    1    2    0    0  0.51268812584E+03  0.83609612150E+02 -0.61804541091E+03  0.81221599796E+03  0.88741285647E+02 0.  0.
         13    1    3    3    0    0  0.11796503573E+03  0.17332973635E+02 -0.20436086471E+03  0.23659996757E+03  0.00000000000E+00 0.  1.
        -13    1    3    3    0    0  0.39472309011E+03  0.66276638515E+02 -0.41368454620E+03  0.57561603039E+03  0.00000000000E+00 0. -1.
         22    1    1    2    0    0 -0.51268812584E+03 -0.83609612150E+02 -0.79217140240E+03  0.94729890341E+03  0.00000000000E+00 0.  1.
<mgrwt>
<rscale>  0 0.10522268E+04</rscale>
<asrwt>0</asrwt>
<pdfrwt beam="1">  1        2 0.24382552E+00 0.10522268E+04</pdfrwt>
<pdfrwt beam="2">  1       -2 0.26869083E-01 0.10522268E+04</pdfrwt>
<totfact> 0.14231625E+02</totfact>
</mgrwt>
</event>
<event>
 6    1  0.5026615E-004  0.2147210E+04  0.7818608E-02  0.8540727E-01
         -2   -1    0    0    0  501 -0.00000000000E+00  0.00000000000E+00  0.40276260575E+03  0.40276260575E+03  0.00000000000E+00 0. -1.
          2   -1    0    0  501    0  0.00000000000E+00 -0.00000000000E+00 -0.28618050904E+04  0.28618050904E+04  0.00000000000E+00 0.  1.
         23    2    1    2    0    0  0.31885689528E+03  0.97646369103E+03 -0.16961286705E+04  0.19850410073E+04  0.91565682920E+02 0.  0.
         11    1    3    3    0    0  0.14904198087E+03  0.57331330118E+03 -0.92319899786E+03  0.10969038440E+04  0.00000000000E+00 0. -1.
        -11    1    3    3    0    0  0.16981491442E+03  0.40315038984E+03 -0.77292967265E+03  0.88813716331E+03  0.00000000000E+00 0.  1.
         22    1    1    2    0    0 -0.31885689528E+03 -0.97646369103E+03 -0.76291381409E+03  0.12795266888E+04  0.00000000000E+00 0. -1.
<mgrwt>
<rscale>  0 0.21472104E+04</rscale>
<asrwt>0</asrwt>
<pdfrwt beam="1">  1        2 0.44027772E+00 0.21472104E+04</pdfrwt>
<pdfrwt beam="2">  1       -2 0.61963476E-01 0.21472104E+04</pdfrwt>
<totfact> 0.47133041E+00</totfact>
</mgrwt>
</event>
<event>
 6    1  0.5026615E-004  0.2064532E+04  0.7818608E-02  0.8577030E-01
         -2   -1    0    0    0  501 -0.00000000000E+00  0.00000000000E+00  0.79668288334E+03  0.79668288334E+03  0.00000000000E+00 0. -1.
          2   -1    0    0  501    0  0.00000000000E+00 -0.00000000000E+00 -0.13375118614E+04  0.13375118614E+04  0.00000000000E+00 0.  1.
         23    2    1    2    0    0  0.32682101217E+03  0.94650289674E+03 -0.52068330776E+03  0.11326531552E+04  0.95458658559E+02 0.  0.
         13    1    3    3    0    0  0.27474549405E+03  0.77018854393E+03 -0.46435807360E+03  0.94037434047E+03  0.00000000000E+00 0. -1.
        -13    1    3    3    0    0  0.52075518124E+02  0.17631435280E+03 -0.56325234166E+02  0.19227881474E+03  0.00000000000E+00 0.  1.
         22    1    1    2    0    0 -0.32682101217E+03 -0.94650289674E+03 -0.20145670308E+02  0.10015415895E+04  0.00000000000E+00 0. -1.
<mgrwt>
<rscale>  0 0.20645317E+04</rscale>
<asrwt>0</asrwt>
<pdfrwt beam="1">  1        2 0.20577105E+00 0.20645317E+04</pdfrwt>
<pdfrwt beam="2">  1       -2 0.12256660E+00 0.20645317E+04</pdfrwt>
<totfact> 0.73200212E+00</totfact>
</mgrwt>
</event>
<event>
 6    1  0.1066808E-003  0.2907552E+04  0.7818608E-02  0.8270634E-01
          2   -1    0    0  501    0  0.00000000000E+00  0.00000000000E+00  0.19329529367E+04  0.19329529367E+04  0.00000000000E+00 0.  1.
         -2   -1    0    0    0  501 -0.00000000000E+00 -0.00000000000E+00 -0.10933868377E+04  0.10933868377E+04  0.00000000000E+00 0. -1.
         23    2    1    2    0    0  0.81387448369E+03  0.25405820421E+03  0.16439485741E+04  0.18541757873E+04  0.91998311179E+02 0.  0.
         13    1    3    3    0    0  0.26886651563E+03  0.47865405372E+02  0.47056402270E+03  0.54406874540E+03  0.00000000000E+00 0. -1.
        -13    1    3    3    0    0  0.54500796807E+03  0.20619279884E+03  0.11733845514E+04  0.13101070419E+04  0.00000000000E+00 0.  1.
         22    1    1    2    0    0 -0.81387448369E+03 -0.25405820421E+03 -0.80438247515E+03  0.11721639871E+04  0.00000000000E+00 0. -1.
<mgrwt>
<rscale>  0 0.29075524E+04</rscale>
<asrwt>0</asrwt>
<pdfrwt beam="1">  1        2 0.29737737E+00 0.29075524E+04</pdfrwt>
<pdfrwt beam="2">  1       -2 0.16821336E+00 0.29075524E+04</pdfrwt>
<totfact> 0.13783891E+00</totfact>
</mgrwt>
</event>
<event>
 6    1  0.5026615E-004  0.9571684E+03  0.7818608E-02  0.9356811E-01
          2   -1    0    0  501    0  0.00000000000E+00  0.00000000000E+00  0.15708638347E+04  0.15708638347E+04  0.00000000000E+00 0.  1.
         -2   -1    0    0    0  501 -0.00000000000E+00 -0.00000000000E+00 -0.14580693134E+03  0.14580693134E+03  0.00000000000E+00 0. -1.
         23    2    1    2    0    0 -0.12923605682E+03 -0.45170406987E+03  0.83597667455E+03  0.96317621325E+03  0.90071595265E+02 0.  0.
         13    1    3    3    0    0 -0.12490730308E+03 -0.42510978486E+03  0.81944867453E+03  0.93156658041E+03  0.00000000000E+00 0.  1.
        -13    1    3    3    0    0 -0.43287537356E+01 -0.26594285007E+02  0.16528000017E+02  0.31609632844E+02  0.00000000000E+00 0. -1.
         22    1    1    2    0    0  0.12923605682E+03  0.45170406987E+03  0.58908022886E+03  0.75349455284E+03  0.00000000000E+00 0. -1.
<mgrwt>
<rscale>  0 0.95716840E+03</rscale>
<asrwt>0</asrwt>
<pdfrwt beam="1">  1        2 0.24167135E+00 0.95716840E+03</pdfrwt>
<pdfrwt beam="2">  1       -2 0.22431837E-01 0.95716840E+03</pdfrwt>
<totfact> 0.20198860E+02</totfact>
</mgrwt>
</event>
<event>
 6    1  0.5761252E-004  0.4437961E+04  0.7818608E-02  0.7921589E-01
          2   -1    0    0  501    0  0.00000000000E+00  0.00000000000E+00  0.22316137894E+04  0.22316137894E+04  0.00000000000E+00 0.  1.
         -2   -1    0    0    0  501 -0.00000000000E+00 -0.00000000000E+00 -0.22064186470E+04  0.22064186470E+04  0.00000000000E+00 0. -1.
         23    2    1    2    0    0  0.10271741770E+03 -0.56175502164E+03  0.21559136162E+04  0.22321129486E+04  0.90802657052E+02 0.  0.
         13    1    3    3    0    0  0.94432775885E+02 -0.27950055125E+03  0.10412151567E+04  0.10822047449E+04  0.00000000000E+00 0.  1.
        -13    1    3    3    0    0  0.82846418131E+01 -0.28225447039E+03  0.11146984595E+04  0.11499082037E+04  0.00000000000E+00 0. -1.
         22    1    1    2    0    0 -0.10271741770E+03  0.56175502164E+03 -0.21307184738E+04  0.22059194878E+04  0.00000000000E+00 0. -1.
<mgrwt>
<rscale>  0 0.44379609E+04</rscale>
<asrwt>0</asrwt>
<pdfrwt beam="1">  1        2 0.34332520E+00 0.44379609E+04</pdfrwt>
<pdfrwt beam="2">  1       -2 0.33944902E+00 0.44379609E+04</pdfrwt>
<totfact> 0.68403633E-02</totfact>
</mgrwt>
</event>
<event>
 6    1  0.5026615E-004  0.5913409E+04  0.7818608E-02  0.7701232E-01
          2   -1    0    0  501    0  0.00000000000E+00  0.00000000000E+00  0.44635052902E+04  0.44635052902E+04  0.00000000000E+00 0.  1.
         -2   -1    0    0    0  501 -0.00000000000E+00 -0.00000000000E+00 -0.19585729586E+04  0.19585729586E+04  0.00000000000E+00 0. -1.
         23    2    1    2    0    0  0.29054611873E+04  0.10604610201E+03  0.67288950739E+03  0.29856074725E+04  0.90117720338E+02 0.  0.
         13    1    3    3    0    0  0.23818439501E+04  0.68192052985E+02  0.58120058803E+03  0.24526770848E+04  0.00000000000E+00 0. -1.
        -13    1    3    3    0    0  0.52361723727E+03  0.37854049024E+02  0.91688919359E+02  0.53293038770E+03  0.00000000000E+00 0.  1.
         22    1    1    2    0    0 -0.29054611873E+04 -0.10604610201E+03  0.18320428241E+04  0.34364707763E+04  0.00000000000E+00 0.  1.
<mgrwt>
<rscale>  0 0.59134088E+04</rscale>
<asrwt>0</asrwt>
<pdfrwt beam="1">  1        2 0.68669312E+00 0.59134088E+04</pdfrwt>
<pdfrwt beam="2">  1       -2 0.30131892E+00 0.59134088E+04</pdfrwt>
<totfact> 0.27921152E-03</totfact>
</mgrwt>
</event>
<event>
 6    1  0.5026615E-004  0.1300482E+04  0.7818608E-02  0.9029183E-01
          2   -1    0    0  501    0  0.00000000000E+00  0.00000000000E+00  0.49040407574E+03  0.49040407574E+03  0.00000000000E+00 0. -1.
         -2   -1    0    0    0  501 -0.00000000000E+00 -0.00000000000E+00 -0.86217338074E+03  0.86217338074E+03  0.00000000000E+00 0.  1.
         23    2    1    2    0    0  0.22840503216E+03 -0.58833445830E+03 -0.39827834706E+02  0.63949160384E+03  0.95168069362E+02 0.  0.
         11    1    3    3    0    0  0.11310013056E+03 -0.16974224188E+03 -0.75426665440E+01  0.20411016641E+03  0.00000000000E+00 0.  1.
        -11    1    3    3    0    0  0.11530490160E+03 -0.41859221642E+03 -0.32285168162E+02  0.43538143743E+03  0.00000000000E+00 0. -1.
         22    1    1    2    0    0 -0.22840503216E+03  0.58833445830E+03 -0.33194147029E+03  0.71308585264E+03  0.00000000000E+00 0.  1.
<mgrwt>
<rscale>  0 0.13004820E+04</rscale>
<asrwt>0</asrwt>
<pdfrwt beam="1">  1        2 0.75446782E-01 0.13004820E+04</pdfrwt>
<pdfrwt beam="2">  1       -2 0.13264206E+00 0.13004820E+04</pdfrwt>
<totfact> 0.25459326E+01</totfact>
</mgrwt>
</event>
<event>
 6    1  0.5026615E-004  0.2028344E+04  0.7818608E-02  0.8593482E-01
          2   -1    0    0  501    0  0.00000000000E+00  0.00000000000E+00  0.18883370892E+04  0.18883370892E+04  0.00000000000E+00 0.  1.
         -2   -1    0    0    0  501 -0.00000000000E+00 -0.00000000000E+00 -0.54468294553E+03  0.54468294553E+03  0.00000000000E+00 0. -1.
         23    2    1    2    0    0  0.42047826040E+03 -0.35076388302E+03 -0.34792452497E+03  0.65502237970E+03  0.90363564164E+02 0.  0.
         13    1    3    3    0    0  0.83556239904E+02 -0.12041072680E+03 -0.82881002116E+02  0.16837353969E+03  0.00000000000E+00 0. -1.
        -13    1    3    3    0    0  0.33692202050E+03 -0.23035315623E+03 -0.26504352286E+03  0.48664884001E+03  0.00000000000E+00 0.  1.
         22    1    1    2    0    0 -0.42047826040E+03  0.35076388302E+03  0.16915786687E+04  0.17779976551E+04  0.00000000000E+00 0.  1.
<mgrwt>
<rscale>  0 0.20283442E+04</rscale>
<asrwt>0</asrwt>
<pdfrwt beam="1">  1        2 0.29051339E+00 0.20283442E+04</pdfrwt>
<pdfrwt beam="2">  1       -2 0.83797377E-01 0.20283442E+04</pdfrwt>
<totfact> 0.88913570E+00</totfact>
</mgrwt>
</event>
<event>
 6    1  0.5026615E-004  0.2848857E+04  0.7818608E-02  0.8288259E-01
          2   -1    0    0  501    0  0.00000000000E+00  0.00000000000E+00  0.18552331982E+04  0.18552331982E+04  0.00000000000E+00 0.  1.
         -2   -1    0    0    0  501 -0.00000000000E+00 -0.00000000000E+00 -0.10936615175E+04  0.10936615175E+04  0.00000000000E+00 0. -1.
         23    2    1    2    0    0  0.34812053398E+02  0.25019574899E+03  0.18307178244E+04  0.18503123253E+04  0.91203928386E+02 0.  0.
         13    1    3    3    0    0 -0.11593292583E+02  0.19933532392E+03  0.13759440957E+04  0.13903564760E+04  0.00000000000E+00 0. -1.
        -13    1    3    3    0    0  0.46405345981E+02  0.50860425068E+02  0.45477372873E+03  0.45995584931E+03  0.00000000000E+00 0.  1.
         22    1    1    2    0    0 -0.34812053398E+02 -0.25019574899E+03 -0.10691461437E+04  0.10985823904E+04  0.00000000000E+00 0. -1.
<mgrwt>
<rscale>  0 0.28488574E+04</rscale>
<asrwt>0</asrwt>
<pdfrwt beam="1">  1        2 0.28542049E+00 0.28488574E+04</pdfrwt>
<pdfrwt beam="2">  1       -2 0.16825562E+00 0.28488574E+04</pdfrwt>
<totfact> 0.15286889E+00</totfact>
</mgrwt>
</event>
<event>
 6    1  0.5026615E-004  0.3167012E+04  0.7818608E-02  0.8197584E-01
         -2   -1    0    0    0  501 -0.00000000000E+00  0.00000000000E+00  0.23355749024E+04  0.23355749024E+04  0.00000000000E+00 0. -1.
          2   -1    0    0  501    0  0.00000000000E+00 -0.00000000000E+00 -0.10736077363E+04  0.10736077363E+04  0.00000000000E+00 0.  1.
         23    2    1    2    0    0  0.88581420967E+03 -0.54758929657E+03 -0.65073679756E+03  0.12313494715E+04  0.90787055374E+02 0.  0.
         11    1    3    3    0    0  0.17790902477E+03 -0.77364551211E+02 -0.95827586375E+02  0.21637888342E+03  0.00000000000E+00 0. -1.
        -11    1    3    3    0    0  0.70790518490E+03 -0.47022474536E+03 -0.55490921119E+03  0.10149705881E+04  0.00000000000E+00 0.  1.
         22    1    1    2    0    0 -0.88581420967E+03  0.54758929657E+03  0.19127039637E+04  0.21778331672E+04  0.00000000000E+00 0. -1.
<mgrwt>
<rscale>  0 0.31670120E+04</rscale>
<asrwt>0</asrwt>
<pdfrwt beam="1">  1        2 0.16517042E+00 0.31670120E+04</pdfrwt>
<pdfrwt beam="2">  1       -2 0.35931921E+00 0.31670120E+04</pdfrwt>
<totfact> 0.25933751E-01</totfact>
</mgrwt>
</event>
<event>
 6    1  0.5026615E-004  0.1416852E+04  0.7818608E-02  0.8941710E-01
         -2   -1    0    0    0  501 -0.00000000000E+00  0.00000000000E+00  0.39667323897E+03  0.39667323897E+03  0.00000000000E+00 0. -1.
          2   -1    0    0  501    0  0.00000000000E+00 -0.00000000000E+00 -0.12651912879E+04  0.12651912879E+04  0.00000000000E+00 0.  1.
         23    2    1    2    0    0  0.12160565221E+03 -0.40146034633E+03 -0.11013036826E+04  0.11821276244E+04  0.92723107280E+02 0.  0.
         13    1    3    3    0    0 -0.43855740504E+00 -0.69978156495E+02 -0.26930663423E+03  0.27825024341E+03  0.00000000000E+00 0. -1.
        -13    1    3    3    0    0  0.12204420961E+03 -0.33148218983E+03 -0.83199704839E+03  0.90387738095E+03  0.00000000000E+00 0.  1.
         22    1    1    2    0    0 -0.12160565221E+03  0.40146034633E+03  0.23278563372E+03  0.47973690247E+03  0.00000000000E+00 0. -1.
<mgrwt>
<rscale>  0 0.14168522E+04</rscale>
<asrwt>0</asrwt>
<pdfrwt beam="1">  1        2 0.19464482E+00 0.14168522E+04</pdfrwt>
<pdfrwt beam="2">  1       -2 0.61026652E-01 0.14168522E+04</pdfrwt>
<totfact> 0.42080818E+01</totfact>
</mgrwt>
</event>
<event>
 6    1  0.5026615E-004  0.2608973E+04  0.7818608E-02  0.8365160E-01
         -2   -1    0    0    0  501 -0.00000000000E+00  0.00000000000E+00  0.85647391140E+03  0.85647391140E+03  0.00000000000E+00 0. -1.
          2   -1    0    0  501    0  0.00000000000E+00 -0.00000000000E+00 -0.19868504875E+04  0.19868504875E+04  0.00000000000E+00 0.  1.
         23    2    1    2    0    0  0.30658916027E+03 -0.23587269885E+03 -0.19218003970E+04  0.19624245706E+04  0.90335963470E+02 0.  0.
         13    1    3    3    0    0  0.30554538372E+02 -0.15029792810E+02 -0.33489000684E+03  0.33661668284E+03  0.00000000000E+00 0. -1.
        -13    1    3    3    0    0  0.27603462190E+03 -0.22084290604E+03 -0.15869103902E+04  0.16258078878E+04  0.00000000000E+00 0.  1.
         22    1    1    2    0    0 -0.30658916027E+03  0.23587269885E+03  0.79142382087E+03  0.88089982830E+03  0.00000000000E+00 0. -1.
<mgrwt>
<rscale>  0 0.26089734E+04</rscale>
<asrwt>0</asrwt>
<pdfrwt beam="1">  1        2 0.30566930E+00 0.26089734E+04</pdfrwt>
<pdfrwt beam="2">  1       -2 0.13176522E+00 0.26089734E+04</pdfrwt>
<totfact> 0.25206874E+00</totfact>
</mgrwt>
</event>
<event>
 6    1  0.5026615E-004  0.2671101E+04  0.7818608E-02  0.8344443E-01
          2   -1    0    0  501    0  0.00000000000E+00  0.00000000000E+00  0.14643230730E+04  0.14643230730E+04  0.00000000000E+00 0. -1.
         -2   -1    0    0    0  501 -0.00000000000E+00 -0.00000000000E+00 -0.12181025596E+04  0.12181025596E+04  0.00000000000E+00 0.  1.
         23    2    1    2    0    0 -0.36462707382E+03  0.44420623866E+03 -0.10856776358E+04  0.12318310079E+04  0.91867392050E+02 0.  0.
         13    1    3    3    0    0 -0.11653919425E+03  0.14837169329E+03 -0.45203726586E+03  0.48982979992E+03  0.00000000000E+00 0. -1.
        -13    1    3    3    0    0 -0.24808787956E+03  0.29583454537E+03 -0.63364036996E+03  0.74200120799E+03  0.00000000000E+00 0.  1.
         22    1    1    2    0    0  0.36462707382E+03 -0.44420623866E+03  0.13318981492E+04  0.14505946247E+04  0.00000000000E+00 0. -1.
<mgrwt>
<rscale>  0 0.26711014E+04</rscale>
<asrwt>0</asrwt>
<pdfrwt beam="1">  1        2 0.22528047E+00 0.26711014E+04</pdfrwt>
<pdfrwt beam="2">  1       -2 0.18740039E+00 0.26711014E+04</pdfrwt>
<totfact> 0.18875109E+00</totfact>
</mgrwt>
</event>
<event>
 6    1  0.5026615E-004  0.1342699E+04  0.7818608E-02  0.8996373E-01
         -2   -1    0    0    0  501 -0.00000000000E+00  0.00000000000E+00  0.16867600480E+03  0.16867600480E+03  0.00000000000E+00 0. -1.
          2   -1    0    0  501    0  0.00000000000E+00 -0.00000000000E+00 -0.26720458429E+04  0.26720458429E+04  0.00000000000E+00 0.  1.
         23    2    1    2    0    0  0.57939723534E+03 -0.33036367535E+03 -0.11672109251E+04  0.13473491698E+04  0.90150581546E+02 0.  0.
         11    1    3    3    0    0  0.40980195279E+03 -0.18484818928E+03 -0.78009097836E+03  0.90036016577E+03  0.00000000000E+00 0.  1.
        -11    1    3    3    0    0  0.16959528255E+03 -0.14551548607E+03 -0.38711994675E+03  0.44698900403E+03  0.00000000000E+00 0. -1.
         22    1    1    2    0    0 -0.57939723534E+03  0.33036367535E+03 -0.13361589130E+04  0.14933726779E+04  0.00000000000E+00 0. -1.
<mgrwt>
<rscale>  0 0.13426988E+04</rscale>
<asrwt>0</asrwt>
<pdfrwt beam="1">  1        2 0.41108395E+00 0.13426988E+04</pdfrwt>
<pdfrwt beam="2">  1       -2 0.25950156E-01 0.13426988E+04</pdfrwt>
<totfact> 0.36364277E+01</totfact>
</mgrwt>
</event>
<event>
 6    1  0.5026615E-004  0.2377327E+04  0.7818608E-02  0.8448041E-01
         -2   -1    0    0    0  501 -0.00000000000E+00  0.00000000000E+00  0.83413899907E+03  0.83413899907E+03  0.00000000000E+00 0. -1.
          2   -1    0    0  501    0  0.00000000000E+00 -0.00000000000E+00 -0.16938678425E+04  0.16938678425E+04  0.00000000000E+00 0.  1.
         23    2    1    2    0    0 -0.24405144385E+03  0.51581330168E+03  0.67643244956E+03  0.88928295162E+03  0.87400456529E+02 0.  0.
         11    1    3    3    0    0 -0.15057157070E+03  0.24461720321E+03  0.29176298538E+03  0.40943255079E+03  0.00000000000E+00 0. -1.
        -11    1    3    3    0    0 -0.93479873147E+02  0.27119609846E+03  0.38466946418E+03  0.47985040083E+03  0.00000000000E+00 0.  1.
         22    1    1    2    0    0  0.24405144385E+03 -0.51581330168E+03 -0.15361612930E+04  0.16387238899E+04  0.00000000000E+00 0.  1.
<mgrwt>
<rscale>  0 0.23773273E+04</rscale>
<asrwt>0</asrwt>
<pdfrwt beam="1">  1        2 0.26059505E+00 0.23773273E+04</pdfrwt>
<pdfrwt beam="2">  1       -2 0.12832908E+00 0.23773273E+04</pdfrwt>
<totfact> 0.39966185E+00</totfact>
</mgrwt>
</event>
<event>
 6    1  0.5026615E-004  0.1133379E+04  0.7818608E-02  0.9173256E-01
          2   -1    0    0  501    0  0.00000000000E+00  0.00000000000E+00  0.75213638012E+03  0.75213638012E+03  0.00000000000E+00 0.  1.
         -2   -1    0    0    0  501 -0.00000000000E+00 -0.00000000000E+00 -0.42696623978E+03  0.42696623978E+03  0.00000000000E+00 0. -1.
         23    2    1    2    0    0 -0.12142121765E+03 -0.11676685876E+03 -0.39488273293E+03  0.43960701361E+03  0.94574532782E+02 0.  0.
         13    1    3    3    0    0 -0.58292101294E+02 -0.10639251853E+03 -0.31304984202E+03  0.33573433048E+03  0.00000000000E+00 0.  1.
        -13    1    3    3    0    0 -0.63129116358E+02 -0.10374340238E+02 -0.81832890905E+02  0.10387268313E+03  0.00000000000E+00 0. -1.
         22    1    1    2    0    0  0.12142121765E+03  0.11676685876E+03  0.72005287327E+03  0.73949560628E+03  0.00000000000E+00 0.  1.
<mgrwt>
<rscale>  0 0.11333787E+04</rscale>
<asrwt>0</asrwt>
<pdfrwt beam="1">  1        2 0.11571329E+00 0.11333787E+04</pdfrwt>
<pdfrwt beam="2">  1       -2 0.65687114E-01 0.11333787E+04</pdfrwt>
<totfact> 0.79049094E+01</totfact>
</mgrwt>
</event>
<event>
 6    1  0.5026615E-004  0.1359668E+04  0.7818608E-02  0.8983542E-01
         -2   -1    0    0    0  501 -0.00000000000E+00  0.00000000000E+00  0.63350554190E+03  0.63350554190E+03  0.00000000000E+00 0. -1.
          2   -1    0    0  501    0  0.00000000000E+00 -0.00000000000E+00 -0.72955036998E+03  0.72955036998E+03  0.00000000000E+00 0.  1.
         23    2    1    2    0    0  0.47646338826E+03  0.32161656291E+03  0.30985184909E+03  0.65934667759E+03  0.90968670313E+02 0.  0.
         11    1    3    3    0    0  0.35486991304E+03  0.19255996404E+03  0.19782469504E+03  0.44960716731E+03  0.00000000000E+00 0.  1.
        -11    1    3    3    0    0  0.12159347522E+03  0.12905659887E+03  0.11202715404E+03  0.20973951028E+03  0.00000000000E+00 0. -1.
         22    1    1    2    0    0 -0.47646338826E+03 -0.32161656291E+03 -0.40589667717E+03  0.70370923429E+03  0.00000000000E+00 0.  1.
<mgrwt>
<rscale>  0 0.13596679E+04</rscale>
<asrwt>0</asrwt>
<pdfrwt beam="1">  1        2 0.11223852E+00 0.13596679E+04</pdfrwt>
<pdfrwt beam="2">  1       -2 0.97462391E-01 0.13596679E+04</pdfrwt>
<totfact> 0.33305550E+01</totfact>
</mgrwt>
</event>
<event>
 6    1  0.5026615E-004  0.5973376E+03  0.7818608E-02  0.9910945E-01
         -2   -1    0    0    0  501 -0.00000000000E+00  0.00000000000E+00  0.57861837715E+03  0.57861837715E+03  0.00000000000E+00 0. -1.
          2   -1    0    0  501    0  0.00000000000E+00 -0.00000000000E+00 -0.15416558455E+03  0.15416558455E+03  0.00000000000E+00 0.  1.
         23    2    1    2    0    0 -0.26074391416E+03  0.69787004861E+02  0.81371694507E+02  0.29624959343E+03  0.91021174044E+02 0.  0.
         13    1    3    3    0    0  0.76531649706E+00 -0.71567837045E+01 -0.66473162401E+01  0.97975545689E+01  0.00000000000E+00 0.  1.
        -13    1    3    3    0    0 -0.26150923065E+03  0.76943788565E+02  0.88019010747E+02  0.28645203886E+03  0.00000000000E+00 0. -1.
         22    1    1    2    0    0  0.26074391416E+03 -0.69787004861E+02  0.34308109809E+03  0.43653436827E+03  0.00000000000E+00 0. -1.
<mgrwt>
<rscale>  0 0.59733756E+03</rscale>
<asrwt>0</asrwt>
<pdfrwt beam="1">  1        2 0.23717783E-01 0.59733756E+03</pdfrwt>
<pdfrwt beam="2">  1       -2 0.89018211E-01 0.59733756E+03</pdfrwt>
<totfact> 0.25532286E+02</totfact>
</mgrwt>
</event>
<event>
 6    1  0.5026615E-004  0.1932560E+04  0.7818608E-02  0.8638817E-01
         -2   -1    0    0    0  501 -0.00000000000E+00  0.00000000000E+00  0.10594568471E+04  0.10594568471E+04  0.00000000000E+00 0. -1.
          2   -1    0    0  501    0  0.00000000000E+00 -0.00000000000E+00 -0.88129790244E+03  0.88129790244E+03  0.00000000000E+00 0.  1.
         23    2    1    2    0    0  0.26750836086E+02  0.89704911387E+03 -0.26518848301E+03  0.93977040322E+03  0.86201852168E+02 0.  0.
         13    1    3    3    0    0 -0.20354627392E+02  0.44053759471E+03 -0.15824561456E+03  0.46853960103E+03  0.00000000000E+00 0.  1.
        -13    1    3    3    0    0  0.47105463478E+02  0.45651151916E+03 -0.10694286845E+03  0.47123080219E+03  0.00000000000E+00 0. -1.
         22    1    1    2    0    0 -0.26750836086E+02 -0.89704911387E+03  0.44334742765E+03  0.10009843463E+04  0.00000000000E+00 0. -1.
<mgrwt>
<rscale>  0 0.19325601E+04</rscale>
<asrwt>0</asrwt>
<pdfrwt beam="1">  1        2 0.13558429E+00 0.19325601E+04</pdfrwt>
<pdfrwt beam="2">  1       -2 0.16299336E+00 0.19325601E+04</pdfrwt>
<totfact> 0.67513460E+00</totfact>
</mgrwt>
</event>
<event>
 6    1  0.5026615E-004  0.4315074E+04  0.7818608E-02  0.7943837E-01
         -2   -1    0    0    0  501 -0.00000000000E+00  0.00000000000E+00  0.12743019999E+04  0.12743019999E+04  0.00000000000E+00 0. -1.
          2   -1    0    0  501    0  0.00000000000E+00 -0.00000000000E+00 -0.36529531912E+04  0.36529531912E+04  0.00000000000E+00 0.  1.
         23    2    1    2    0    0  0.12456443478E+04  0.48822446719E+03 -0.31211844168E+04  0.33971086090E+04  0.92529812832E+02 0.  0.
         13    1    3    3    0    0  0.27544332152E+03  0.97542464408E+02 -0.77925310146E+03  0.83223731704E+03  0.00000000000E+00 0.  1.
        -13    1    3    3    0    0  0.97020102629E+03  0.39068200278E+03 -0.23419313153E+04  0.25648712920E+04  0.00000000000E+00 0. -1.
         22    1    1    2    0    0 -0.12456443478E+04 -0.48822446719E+03  0.74253322550E+03  0.15301465821E+04  0.00000000000E+00 0. -1.
<mgrwt>
<rscale>  0 0.43150738E+04</rscale>
<asrwt>0</asrwt>
<pdfrwt beam="1">  1        2 0.56199279E+00 0.43150738E+04</pdfrwt>
<pdfrwt beam="2">  1       -2 0.19604646E+00 0.43150738E+04</pdfrwt>
<totfact> 0.68489060E-02</totfact>
</mgrwt>
</event>
<event>
 6    1  0.5026615E-004  0.2175374E+04  0.7818608E-02  0.8528748E-01
          2   -1    0    0  501    0  0.00000000000E+00  0.00000000000E+00  0.12472081923E+04  0.12472081923E+04  0.00000000000E+00 0.  1.
         -2   -1    0    0    0  501 -0.00000000000E+00 -0.00000000000E+00 -0.94856908014E+03  0.94856908014E+03  0.00000000000E+00 0. -1.
         23    2    1    2    0    0  0.10062398630E+04  0.39877386076E+03  0.23632142628E+03  0.11116081215E+04  0.91024970610E+02 0.  0.
         11    1    3    3    0    0  0.10571443543E+03  0.51499628106E+02 -0.13912294319E+01  0.11759969844E+03  0.00000000000E+00 0. -1.
        -11    1    3    3    0    0  0.90052542759E+03  0.34727423266E+03  0.23771265571E+03  0.99400842304E+03  0.00000000000E+00 0.  1.
         22    1    1    2    0    0 -0.10062398630E+04 -0.39877386076E+03  0.62317685912E+02  0.10841691510E+04  0.00000000000E+00 0. -1.
<mgrwt>
<rscale>  0 0.21753741E+04</rscale>
<asrwt>0</asrwt>
<pdfrwt beam="1">  1        2 0.19187818E+00 0.21753741E+04</pdfrwt>
<pdfrwt beam="2">  1       -2 0.14593370E+00 0.21753741E+04</pdfrwt>
<totfact> 0.52399987E+00</totfact>
</mgrwt>
</event>
<event>
 6    1  0.5026615E-004  0.3570138E+04  0.7818608E-02  0.8097366E-01
          2   -1    0    0  501    0  0.00000000000E+00  0.00000000000E+00  0.25766801735E+04  0.25766801735E+04  0.00000000000E+00 0.  1.
         -2   -1    0    0    0  501 -0.00000000000E+00 -0.00000000000E+00 -0.12366573567E+04  0.12366573567E+04  0.00000000000E+00 0. -1.
         23    2    1    2    0    0 -0.12795867510E+04  0.12406062405E+04  0.75104845539E+03  0.19362821513E+04  0.93105799980E+02 0.  0.
         13    1    3    3    0    0 -0.45852563850E+03  0.43655484881E+03  0.31502409052E+03  0.70715350158E+03  0.00000000000E+00 0.  1.
        -13    1    3    3    0    0 -0.82106111251E+03  0.80405139165E+03  0.43602436487E+03  0.12291286498E+04  0.00000000000E+00 0. -1.
         22    1    1    2    0    0  0.12795867510E+04 -0.12406062405E+04  0.58897436140E+03  0.18770553789E+04  0.00000000000E+00 0.  1.
<mgrwt>
<rscale>  0 0.35701375E+04</rscale>
<asrwt>0</asrwt>
<pdfrwt beam="1">  1        2 0.39641233E+00 0.35701375E+04</pdfrwt>
<pdfrwt beam="2">  1       -2 0.19025498E+00 0.35701375E+04</pdfrwt>
<totfact> 0.39610047E-01</totfact>
</mgrwt>
</event>
<event>
 6    1  0.5074328E-004  0.2385596E+04  0.7818608E-02  0.8444916E-01
         -2   -1    0    0    0  501 -0.00000000000E+00  0.00000000000E+00  0.94596193616E+03  0.94596193616E+03  0.00000000000E+00 0. -1.
          2   -1    0    0  501    0  0.00000000000E+00 -0.00000000000E+00 -0.15040431019E+04  0.15040431019E+04  0.00000000000E+00 0.  1.
         23    2    1    2    0    0 -0.68703301266E+03  0.71663245395E+02 -0.12750841633E+04  0.14543930254E+04  0.11076762899E+03 0.  0.
         11    1    3    3    0    0 -0.38332501180E+03  0.51434480939E+02 -0.59985028164E+03  0.71372538899E+03  0.00000000000E+00 0. -1.
        -11    1    3    3    0    0 -0.30370800086E+03  0.20228764456E+02 -0.67523388170E+03  0.74066763646E+03  0.00000000000E+00 0.  1.
         22    1    1    2    0    0  0.68703301266E+03 -0.71663245395E+02  0.71700299757E+03  0.99561201265E+03  0.00000000000E+00 0. -1.
<mgrwt>
<rscale>  0 0.23855964E+04</rscale>
<asrwt>0</asrwt>
<pdfrwt beam="1">  1        2 0.23139125E+00 0.23855964E+04</pdfrwt>
<pdfrwt beam="2">  1       -2 0.14553260E+00 0.23855964E+04</pdfrwt>
<totfact> 0.36899966E+00</totfact>
</mgrwt>
</event>
<event>
 6    1  0.5026615E-004  0.4702193E+04  0.7818608E-02  0.7876164E-01
         -2   -1    0    0    0  501 -0.00000000000E+00  0.00000000000E+00  0.20374402500E+04  0.20374402500E+04  0.00000000000E+00 0. -1.
          2   -1    0    0  501    0  0.00000000000E+00 -0.00000000000E+00 -0.27130383890E+04  0.27130383890E+04  0.00000000000E+00 0.  1.
         23    2    1    2    0    0 -0.16600759879E+03 -0.19001116936E+04  0.10493549376E+04  0.21788165137E+04  0.90070218821E+02 0.  0.
         13    1    3    3    0    0 -0.13599783812E+03 -0.11334350790E+04  0.59969371017E+03  0.12894972029E+04  0.00000000000E+00 0.  1.
        -13    1    3    3    0    0 -0.30009760669E+02 -0.76667661455E+03  0.44966122738E+03  0.88931931073E+03  0.00000000000E+00 0. -1.
         22    1    1    2    0    0  0.16600759879E+03  0.19001116936E+04 -0.17249530765E+04  0.25716621254E+04  0.00000000000E+00 0.  1.
<mgrwt>
<rscale>  0 0.47021925E+04</rscale>
<asrwt>0</asrwt>
<pdfrwt beam="1">  1        2 0.41739052E+00 0.47021925E+04</pdfrwt>
<pdfrwt beam="2">  1       -2 0.31345235E+00 0.47021925E+04</pdfrwt>
<totfact> 0.51088173E-02</totfact>
</mgrwt>
</event>
<event>
 6    1  0.5026615E-004  0.1248129E+04  0.7818608E-02  0.9071742E-01
          2   -1    0    0  501    0  0.00000000000E+00  0.00000000000E+00  0.32327371609E+03  0.32327371609E+03  0.00000000000E+00 0.  1.
         -2   -1    0    0    0  501 -0.00000000000E+00 -0.00000000000E+00 -0.12047264663E+04  0.12047264663E+04  0.00000000000E+00 0. -1.
         23    2    1    2    0    0 -0.55479718283E+03 -0.26378174912E+03 -0.56352375320E+03  0.83629246061E+03  0.66673338058E+02 0.  0.
         11    1    3    3    0    0 -0.38253211630E+03 -0.17809933510E+03 -0.42746795390E+03  0.60064885314E+03  0.00000000000E+00 0. -1.
        -11    1    3    3    0    0 -0.17226506653E+03 -0.85682414027E+02 -0.13605579929E+03  0.23564360747E+03  0.00000000000E+00 0.  1.
         22    1    1    2    0    0  0.55479718283E+03  0.26378174912E+03 -0.31792899702E+03  0.69170772179E+03  0.00000000000E+00 0.  1.
<mgrwt>
<rscale>  0 0.12481288E+04</rscale>
<asrwt>0</asrwt>
<pdfrwt beam="1">  1        2 0.49734417E-01 0.12481288E+04</pdfrwt>
<pdfrwt beam="2">  1       -2 0.18534253E+00 0.12481288E+04</pdfrwt>
<totfact> 0.16538873E+01</totfact>
</mgrwt>
</event>
<event>
 6    1  0.5026615E-004  0.1990400E+04  0.7818608E-02  0.8611122E-01
          2   -1    0    0  501    0  0.00000000000E+00  0.00000000000E+00  0.20899384176E+04  0.20899384176E+04  0.00000000000E+00 0.  1.
         -2   -1    0    0    0  501 -0.00000000000E+00 -0.00000000000E+00 -0.47390065618E+03  0.47390065618E+03  0.00000000000E+00 0. -1.
         23    2    1    2    0    0  0.77901115930E+03 -0.32217286772E+03  0.13394788425E+03  0.85877480900E+03  0.94331298503E+02 0.  0.
         11    1    3    3    0    0  0.64958698566E+03 -0.27642700652E+03  0.14627400405E+03  0.72095161150E+03  0.00000000000E+00 0. -1.
        -11    1    3    3    0    0  0.12942417364E+03 -0.45745861205E+02 -0.12326119802E+02  0.13782319750E+03  0.00000000000E+00 0.  1.
         22    1    1    2    0    0 -0.77901115930E+03  0.32217286772E+03  0.14820898771E+04  0.17050642648E+04  0.00000000000E+00 0.  1.
<mgrwt>
<rscale>  0 0.19904001E+04</rscale>
<asrwt>0</asrwt>
<pdfrwt beam="1">  1        2 0.32152898E+00 0.19904001E+04</pdfrwt>
<pdfrwt beam="2">  1       -2 0.72907795E-01 0.19904001E+04</pdfrwt>
<totfact> 0.94079922E+00</totfact>
</mgrwt>
</event>
<event>
 6    1  0.5026615E-004  0.1359595E+04  0.7818608E-02  0.8983596E-01
          2   -1    0    0  501    0  0.00000000000E+00  0.00000000000E+00  0.26788233034E+04  0.26788233034E+04  0.00000000000E+00 0.  1.
         -2   -1    0    0    0  501 -0.00000000000E+00 -0.00000000000E+00 -0.17251037731E+03  0.17251037731E+03  0.00000000000E+00 0. -1.
         23    2    1    2    0    0 -0.52767644233E+03 -0.35420335805E+03  0.17464946730E+04  0.18607650438E+04  0.91106854167E+02 0.  0.
         13    1    3    3    0    0 -0.13410962119E+03 -0.61062961255E+02  0.49594167223E+03  0.51737048426E+03  0.00000000000E+00 0.  1.
        -13    1    3    3    0    0 -0.39356682114E+03 -0.29314039679E+03  0.12505530007E+04  0.13433945595E+04  0.00000000000E+00 0. -1.
         22    1    1    2    0    0  0.52767644233E+03  0.35420335805E+03  0.75981825309E+03  0.99056863688E+03  0.00000000000E+00 0. -1.
<mgrwt>
<rscale>  0 0.13595953E+04</rscale>
<asrwt>0</asrwt>
<pdfrwt beam="1">  1        2 0.41212663E+00 0.13595953E+04</pdfrwt>
<pdfrwt beam="2">  1       -2 0.26540060E-01 0.13595953E+04</pdfrwt>
<totfact> 0.34530548E+01</totfact>
</mgrwt>
</event>
<event>
 6    1  0.5026615E-004  0.1745611E+04  0.7818608E-02  0.8735770E-01
         -2   -1    0    0    0  501 -0.00000000000E+00  0.00000000000E+00  0.37435057834E+03  0.37435057834E+03  0.00000000000E+00 0. -1.
          2   -1    0    0  501    0  0.00000000000E+00 -0.00000000000E+00 -0.20349629626E+04  0.20349629626E+04  0.00000000000E+00 0.  1.
         23    2    1    2    0    0 -0.86894334563E+03  0.47400550379E+02 -0.85475689242E+03  0.12232644594E+04  0.91963266666E+02 0.  0.
         11    1    3    3    0    0 -0.19107751105E+03 -0.41189486658E+01 -0.14054891042E+03  0.23723738573E+03  0.00000000000E+00 0.  1.
        -11    1    3    3    0    0 -0.67786583458E+03  0.51519499044E+02 -0.71420798200E+03  0.98602707368E+03  0.00000000000E+00 0. -1.
         22    1    1    2    0    0  0.86894334563E+03 -0.47400550379E+02 -0.80585549185E+03  0.11860490816E+04  0.00000000000E+00 0. -1.
<mgrwt>
<rscale>  0 0.17456111E+04</rscale>
<asrwt>0</asrwt>
<pdfrwt beam="1">  1        2 0.31307123E+00 0.17456111E+04</pdfrwt>
<pdfrwt beam="2">  1       -2 0.57592396E-01 0.17456111E+04</pdfrwt>
<totfact> 0.17103738E+01</totfact>
</mgrwt>
</event>
<event>
 6    1  0.5026615E-004  0.2835046E+04  0.7818608E-02  0.8292470E-01
         -2   -1    0    0    0  501 -0.00000000000E+00  0.00000000000E+00  0.59417595657E+03  0.59417595657E+03  0.00000000000E+00 0. -1.
          2   -1    0    0  501    0  0.00000000000E+00 -0.00000000000E+00 -0.33817796427E+04  0.33817796427E+04  0.00000000000E+00 0.  1.
         23    2    1    2    0    0 -0.11999796645E+04  0.47003202670E+03 -0.57234670329E+03  0.14130968827E+04  0.91546435178E+02 0.  0.
         11    1    3    3    0    0 -0.35471374944E+03  0.13023635881E+03 -0.12363854929E+03  0.39757998449E+03  0.00000000000E+00 0. -1.
        -11    1    3    3    0    0 -0.84526591502E+03  0.33979566789E+03 -0.44870815401E+03  0.10155168982E+04  0.00000000000E+00 0.  1.
         22    1    1    2    0    0  0.11999796645E+04 -0.47003202670E+03 -0.22152569828E+04  0.25628587166E+04  0.00000000000E+00 0.  1.
<mgrwt>
<rscale>  0 0.28350465E+04</rscale>
<asrwt>0</asrwt>
<pdfrwt beam="1">  1        2 0.52027379E+00 0.28350465E+04</pdfrwt>
<pdfrwt beam="2">  1       -2 0.91411686E-01 0.28350465E+04</pdfrwt>
<totfact> 0.86746065E-01</totfact>
</mgrwt>
</event>
<event>
 6    1  0.5026615E-004  0.2640425E+04  0.7818608E-02  0.8354598E-01
         -2   -1    0    0    0  501 -0.00000000000E+00  0.00000000000E+00  0.46833155851E+03  0.46833155851E+03  0.00000000000E+00 0. -1.
          2   -1    0    0  501    0  0.00000000000E+00 -0.00000000000E+00 -0.37216379112E+04  0.37216379112E+04  0.00000000000E+00 0.  1.
         23    2    1    2    0    0 -0.38858288986E+03  0.10238973350E+04 -0.27937920657E+04  0.30023180920E+04  0.96319284391E+02 0.  0.
         13    1    3    3    0    0 -0.15949734375E+03  0.33031675829E+03 -0.10240873817E+04  0.10877975588E+04  0.00000000000E+00 0.  1.
        -13    1    3    3    0    0 -0.22908554611E+03  0.69358057674E+03 -0.17697046840E+04  0.19145205333E+04  0.00000000000E+00 0. -1.
         22    1    1    2    0    0  0.38858288986E+03 -0.10238973350E+04 -0.45951428702E+03  0.11876513777E+04  0.00000000000E+00 0. -1.
<mgrwt>
<rscale>  0 0.26404246E+04</rscale>
<asrwt>0</asrwt>
<pdfrwt beam="1">  1        2 0.57255967E+00 0.26404246E+04</pdfrwt>
<pdfrwt beam="2">  1       -2 0.72051011E-01 0.26404246E+04</pdfrwt>
<totfact> 0.86623048E-01</totfact>
</mgrwt>
</event>
<event>
 6    1  0.5026615E-004  0.4028939E+04  0.7818608E-02  0.7998734E-01
          2   -1    0    0  501    0  0.00000000000E+00  0.00000000000E+00  0.13440529510E+04  0.13440529510E+04  0.00000000000E+00 0.  1.
         -2   -1    0    0    0  501 -0.00000000000E+00 -0.00000000000E+00 -0.30192907523E+04  0.30192907523E+04  0.00000000000E+00 0. -1.
         23    2    1    2    0    0 -0.41803430699E+03  0.91947400691E+03  0.10482981631E+04  0.14585488258E+04  0.90832302955E+02 0.  0.
         11    1    3    3    0    0 -0.34050694616E+03  0.74400936206E+03  0.89789170273E+03  0.12147857511E+04  0.00000000000E+00 0.  1.
        -11    1    3    3    0    0 -0.77527360830E+02  0.17546464485E+03  0.15040646039E+03  0.24376307472E+03  0.00000000000E+00 0. -1.
         22    1    1    2    0    0  0.41803430699E+03 -0.91947400691E+03 -0.27235359643E+04  0.29047948775E+04  0.00000000000E+00 0. -1.
<mgrwt>
<rscale>  0 0.40289386E+04</rscale>
<asrwt>0</asrwt>
<pdfrwt beam="1">  1        2 0.20677738E+00 0.40289386E+04</pdfrwt>
<pdfrwt beam="2">  1       -2 0.46450626E+00 0.40289386E+04</pdfrwt>
<totfact> 0.34176754E-02</totfact>
</mgrwt>
</event>
<event>
 6    1  0.5026615E-004  0.1673477E+04  0.7818608E-02  0.8776638E-01
          2   -1    0    0  501    0  0.00000000000E+00  0.00000000000E+00  0.69415598059E+03  0.69415598059E+03  0.00000000000E+00 0.  1.
         -2   -1    0    0    0  501 -0.00000000000E+00 -0.00000000000E+00 -0.10086075185E+04  0.10086075185E+04  0.00000000000E+00 0. -1.
         23    2    1    2    0    0  0.27364136050E+03  0.70677164362E+02  0.64090460779E+03  0.70648029595E+03  0.92091457447E+02 0.  0.
         13    1    3    3    0    0  0.18502112286E+03  0.24833975568E+02  0.32054635671E+03  0.37094407806E+03  0.00000000000E+00 0.  1.
        -13    1    3    3    0    0  0.88620237634E+02  0.45843188794E+02  0.32035825108E+03  0.33553621789E+03  0.00000000000E+00 0. -1.
         22    1    1    2    0    0 -0.27364136050E+03 -0.70677164362E+02 -0.95535614568E+03  0.99628320312E+03  0.00000000000E+00 0. -1.
<mgrwt>
<rscale>  0 0.16734766E+04</rscale>
<asrwt>0</asrwt>
<pdfrwt beam="1">  1        2 0.10679323E+00 0.16734766E+04</pdfrwt>
<pdfrwt beam="2">  1       -2 0.15517039E+00 0.16734766E+04</pdfrwt>
<totfact> 0.10801126E+01</totfact>
</mgrwt>
</event>
<event>
 6    1  0.5026615E-004  0.4169244E+04  0.7818608E-02  0.7971249E-01
         -2   -1    0    0    0  501 -0.00000000000E+00  0.00000000000E+00  0.29175537191E+04  0.29175537191E+04  0.00000000000E+00 0. -1.
          2   -1    0    0  501    0  0.00000000000E+00 -0.00000000000E+00 -0.14894839176E+04  0.14894839176E+04  0.00000000000E+00 0.  1.
         23    2    1    2    0    0  0.33798758455E+03 -0.16489154649E+04 -0.58370300990E+03  0.17839883305E+04  0.93527226835E+02 0.  0.
         13    1    3    3    0    0  0.14757809089E+03 -0.53605945288E+03 -0.21795096161E+03  0.59719481879E+03  0.00000000000E+00 0. -1.
        -13    1    3    3    0    0  0.19040949367E+03 -0.11128560120E+04 -0.36575204829E+03  0.11867935118E+04  0.00000000000E+00 0.  1.
         22    1    1    2    0    0 -0.33798758455E+03  0.16489154649E+04  0.20117728114E+04  0.26230493061E+04  0.00000000000E+00 0. -1.
<mgrwt>
<rscale>  0 0.41692442E+04</rscale>
<asrwt>0</asrwt>
<pdfrwt beam="1">  1        2 0.22915137E+00 0.41692442E+04</pdfrwt>
<pdfrwt beam="2">  1       -2 0.44885442E+00 0.41692442E+04</pdfrwt>
<totfact> 0.35384509E-02</totfact>
</mgrwt>
</event>
<event>
 6    1  0.5026615E-004  0.4262479E+04  0.7818608E-02  0.7953593E-01
          2   -1    0    0  501    0  0.00000000000E+00  0.00000000000E+00  0.25396411738E+04  0.25396411738E+04  0.00000000000E+00 0.  1.
         -2   -1    0    0    0  501 -0.00000000000E+00 -0.00000000000E+00 -0.17885128823E+04  0.17885128823E+04  0.00000000000E+00 0. -1.
         23    2    1    2    0    0  0.69096232158E+03 -0.19756491692E+04 -0.27198400074E+02  0.20951267368E+04  0.90541264638E+02 0.  0.
         11    1    3    3    0    0  0.48429867454E+03 -0.12871970722E+04  0.10620881827E+02  0.13753306191E+04  0.00000000000E+00 0.  1.
        -11    1    3    3    0    0  0.20666364705E+03 -0.68845209705E+03 -0.37819281902E+02  0.71979611768E+03  0.00000000000E+00 0. -1.
         22    1    1    2    0    0 -0.69096232158E+03  0.19756491692E+04  0.77832669154E+03  0.22330273192E+04  0.00000000000E+00 0.  1.
<mgrwt>
<rscale>  0 0.42624786E+04</rscale>
<asrwt>0</asrwt>
<pdfrwt beam="1">  1        2 0.39071403E+00 0.42624786E+04</pdfrwt>
<pdfrwt beam="2">  1       -2 0.27515583E+00 0.42624786E+04</pdfrwt>
<totfact> 0.11493458E-01</totfact>
</mgrwt>
</event>
<event>
 6    1  0.5026615E-004  0.1508228E+04  0.7818608E-02  0.8878999E-01
         -2   -1    0    0    0  501 -0.00000000000E+00  0.00000000000E+00  0.23232682895E+03  0.23232682895E+03  0.00000000000E+00 0. -1.
          2   -1    0    0  501    0  0.00000000000E+00 -0.00000000000E+00 -0.24477942597E+04  0.24477942597E+04  0.00000000000E+00 0.  1.
         23    2    1    2    0    0  0.15282906194E+03  0.64069316116E+03 -0.46904937244E+03  0.81362156191E+03  0.90156992426E+02 0.  0.
         13    1    3    3    0    0  0.95764356818E+02  0.23314070706E+03 -0.15426064296E+03  0.29550253348E+03  0.00000000000E+00 0. -1.
        -13    1    3    3    0    0  0.57064705123E+02  0.40755245410E+03 -0.31478872948E+03  0.51811902843E+03  0.00000000000E+00 0.  1.
         22    1    1    2    0    0 -0.15282906194E+03 -0.64069316116E+03 -0.17464180583E+04  0.18664995267E+04  0.00000000000E+00 0.  1.
<mgrwt>
<rscale>  0 0.15082285E+04</rscale>
<asrwt>0</asrwt>
<pdfrwt beam="1">  1        2 0.37658373E+00 0.15082285E+04</pdfrwt>
<pdfrwt beam="2">  1       -2 0.35742590E-01 0.15082285E+04</pdfrwt>
<totfact> 0.26577726E+01</totfact>
</mgrwt>
</event>
<event>
 6    1  0.5026615E-004  0.1817163E+04  0.7818608E-02  0.8697225E-01
         -2   -1    0    0    0  501 -0.00000000000E+00  0.00000000000E+00  0.66229369694E+03  0.66229369694E+03  0.00000000000E+00 0. -1.
          2   -1    0    0  501    0  0.00000000000E+00 -0.00000000000E+00 -0.12464571311E+04  0.12464571311E+04  0.00000000000E+00 0.  1.
         23    2    1    2    0    0 -0.23555481451E+03  0.27024701894E+03 -0.11671544838E+04  0.12243546811E+04  0.90968533943E+02 0.  0.
         13    1    3    3    0    0 -0.17550794661E+03  0.24315091955E+03 -0.87825683578E+03  0.92804120522E+03  0.00000000000E+00 0. -1.
        -13    1    3    3    0    0 -0.60046867899E+02  0.27096099382E+02 -0.28889764803E+03  0.29631347588E+03  0.00000000000E+00 0.  1.
         22    1    1    2    0    0  0.23555481451E+03 -0.27024701894E+03  0.58299104969E+03  0.68439614691E+03  0.00000000000E+00 0. -1.
<mgrwt>
<rscale>  0 0.18171634E+04</rscale>
<asrwt>0</asrwt>
<pdfrwt beam="1">  1        2 0.19176263E+00 0.18171634E+04</pdfrwt>
<pdfrwt beam="2">  1       -2 0.10189134E+00 0.18171634E+04</pdfrwt>
<totfact> 0.13238802E+01</totfact>
</mgrwt>
</event>
<event>
 6    1  0.5026615E-004  0.2971003E+04  0.7818608E-02  0.8252060E-01
          2   -1    0    0  501    0  0.00000000000E+00  0.00000000000E+00  0.17202667987E+04  0.17202667987E+04  0.00000000000E+00 0.  1.
         -2   -1    0    0    0  501 -0.00000000000E+00 -0.00000000000E+00 -0.12827745363E+04  0.12827745363E+04  0.00000000000E+00 0. -1.
         23    2    1    2    0    0 -0.12115534085E+04  0.62160996217E+03 -0.37760236878E+03  0.14160190087E+04  0.90915771109E+02 0.  0.
         13    1    3    3    0    0 -0.54014314670E+03  0.22687269279E+03 -0.16733317214E+03  0.60928337263E+03  0.00000000000E+00 0. -1.
        -13    1    3    3    0    0 -0.67141026176E+03  0.39473726938E+03 -0.21026919663E+03  0.80673563606E+03  0.00000000000E+00 0.  1.
         22    1    1    2    0    0  0.12115534085E+04 -0.62160996217E+03  0.81509463116E+03  0.15870223264E+04  0.00000000000E+00 0.  1.
<mgrwt>
<rscale>  0 0.29710028E+04</rscale>
<asrwt>0</asrwt>
<pdfrwt beam="1">  1        2 0.26465643E+00 0.29710028E+04</pdfrwt>
<pdfrwt beam="2">  1       -2 0.19734993E+00 0.29710028E+04</pdfrwt>
<totfact> 0.11353846E+00</totfact>
</mgrwt>
</event>
<event>
 6    1  0.5026615E-004  0.4710051E+04  0.7818608E-02  0.7874861E-01
         -2   -1    0    0    0  501 -0.00000000000E+00  0.00000000000E+00  0.12294432298E+04  0.12294432298E+04  0.00000000000E+00 0. -1.
          2   -1    0    0  501    0  0.00000000000E+00 -0.00000000000E+00 -0.45111035779E+04  0.45111035779E+04  0.00000000000E+00 0.  1.
         23    2    1    2    0    0 -0.16724203836E+04 -0.15267171277E+04 -0.85717401002E+03  0.24230192448E+04  0.91759739137E+02 0.  0.
         11    1    3    3    0    0 -0.17977779091E+03 -0.19350133713E+03 -0.78905545734E+02  0.27566085454E+03  0.00000000000E+00 0.  1.
        -11    1    3    3    0    0 -0.14926425927E+04 -0.13332157905E+04 -0.77826846429E+03  0.21473583902E+04  0.00000000000E+00 0. -1.
         22    1    1    2    0    0  0.16724203836E+04  0.15267171277E+04 -0.24244863381E+04  0.33175275629E+04  0.00000000000E+00 0.  1.
<mgrwt>
<rscale>  0 0.47100513E+04</rscale>
<asrwt>0</asrwt>
<pdfrwt beam="1">  1        2 0.69401594E+00 0.47100513E+04</pdfrwt>
<pdfrwt beam="2">  1       -2 0.18914511E+00 0.47100513E+04</pdfrwt>
<totfact> 0.13913959E-02</totfact>
</mgrwt>
</event>
<event>
 6    1  0.5026615E-004  0.5316477E+04  0.7818608E-02  0.7781459E-01
          2   -1    0    0  501    0  0.00000000000E+00  0.00000000000E+00  0.29740382649E+04  0.29740382649E+04  0.00000000000E+00 0.  1.
         -2   -1    0    0    0  501 -0.00000000000E+00 -0.00000000000E+00 -0.23759717682E+04  0.23759717682E+04  0.00000000000E+00 0. -1.
         23    2    1    2    0    0 -0.17273535473E+04 -0.10873997919E+04 -0.14132327142E+04  0.24844362510E+04  0.94911517381E+02 0.  0.
         13    1    3    3    0    0 -0.13370803101E+04 -0.86895676134E+03 -0.11417621840E+04  0.19612471781E+04  0.00000000000E+00 0. -1.
        -13    1    3    3    0    0 -0.39027323722E+03 -0.21844303054E+03 -0.27147053019E+03  0.52318907294E+03  0.00000000000E+00 0.  1.
         22    1    1    2    0    0  0.17273535473E+04  0.10873997919E+04  0.20112992109E+04  0.28655737821E+04  0.00000000000E+00 0.  1.
<mgrwt>
<rscale>  0 0.53164766E+04</rscale>
<asrwt>0</asrwt>
<pdfrwt beam="1">  1        2 0.45754435E+00 0.53164766E+04</pdfrwt>
<pdfrwt beam="2">  1       -2 0.36553412E+00 0.53164766E+04</pdfrwt>
<totfact> 0.15909852E-02</totfact>
</mgrwt>
</event>
<event>
 6    1  0.5026615E-004  0.8591644E+03  0.7818608E-02  0.9478119E-01
         -2   -1    0    0    0  501 -0.00000000000E+00  0.00000000000E+00  0.74779923331E+02  0.74779923331E+02  0.00000000000E+00 0. -1.
          2   -1    0    0  501    0  0.00000000000E+00 -0.00000000000E+00 -0.24677863901E+04  0.24677863901E+04  0.00000000000E+00 0.  1.
         23    2    1    2    0    0  0.34341752650E+03 -0.41622022968E+02 -0.47918038842E+03  0.59772743875E+03  0.89421787509E+02 0.  0.
         11    1    3    3    0    0  0.30623056992E+03 -0.36978348861E+02 -0.36676370861E+03  0.47922873264E+03  0.00000000000E+00 0.  1.
        -11    1    3    3    0    0  0.37186956586E+02 -0.46436741063E+01 -0.11241667981E+03  0.11849870611E+03  0.00000000000E+00 0. -1.
         22    1    1    2    0    0 -0.34341752650E+03  0.41622022968E+02 -0.19138260784E+04  0.19448388747E+04  0.00000000000E+00 0. -1.
<mgrwt>
<rscale>  0 0.85916442E+03</rscale>
<asrwt>0</asrwt>
<pdfrwt beam="1">  1        2 0.37965948E+00 0.85916442E+03</pdfrwt>
<pdfrwt beam="2">  1       -2 0.11504603E-01 0.85916442E+03</pdfrwt>
<totfact> 0.20347573E+02</totfact>
</mgrwt>
</event>
<event>
 6    1  0.5026615E-004  0.2047037E+04  0.7818608E-02  0.8584940E-01
          1   -1    0    0  501    0  0.00000000000E+00  0.00000000000E+00  0.10526387865E+04  0.10526387865E+04  0.00000000000E+00 0.  1.
         -1   -1    0    0    0  501 -0.00000000000E+00 -0.00000000000E+00 -0.99520339508E+03  0.99520339508E+03  0.00000000000E+00 0. -1.
         23    2    1    2    0    0 -0.67802401254E+03 -0.37375651206E+03  0.69523245869E+03  0.10447491695E+04  0.93499538381E+02 0.  0.
         11    1    3    3    0    0 -0.14071908449E+03 -0.11923710375E+03  0.14416766980E+03  0.23410182542E+03  0.00000000000E+00 0.  1.
        -11    1    3    3    0    0 -0.53730492805E+03 -0.25451940831E+03  0.55106478888E+03  0.81064734408E+03  0.00000000000E+00 0. -1.
         22    1    1    2    0    0  0.67802401254E+03  0.37375651206E+03 -0.63779706726E+03  0.10030930121E+04  0.00000000000E+00 0. -1.
<mgrwt>
<rscale>  0 0.20470366E+04</rscale>
<asrwt>0</asrwt>
<pdfrwt beam="1">  1        1 0.16194443E+00 0.20470366E+04</pdfrwt>
<pdfrwt beam="2">  1       -1 0.15310821E+00 0.20470366E+04</pdfrwt>
<totfact> 0.42003430E+00</totfact>
</mgrwt>
</event>
<event>
 6    1  0.5026615E-004  0.3254798E+04  0.7818608E-02  0.8174493E-01
         -2   -1    0    0    0  501 -0.00000000000E+00  0.00000000000E+00  0.74511680625E+03  0.74511680625E+03  0.00000000000E+00 0. -1.
          2   -1    0    0  501    0  0.00000000000E+00 -0.00000000000E+00 -0.35543784914E+04  0.35543784914E+04  0.00000000000E+00 0.  1.
         23    2    1    2    0    0  0.15503691547E+04 -0.46562314364E+03 -0.12014530156E+04  0.20179392177E+04  0.90221450310E+02 0.  0.
         11    1    3    3    0    0  0.71925558648E+03 -0.23199031672E+03 -0.61360581717E+03  0.97347840479E+03  0.00000000000E+00 0.  1.
        -11    1    3    3    0    0  0.83111356824E+03 -0.23363282692E+03 -0.58784719840E+03  0.10444608130E+04  0.00000000000E+00 0. -1.
         22    1    1    2    0    0 -0.15503691547E+04  0.46562314364E+03 -0.16078086696E+04  0.22815560799E+04  0.00000000000E+00 0.  1.
<mgrwt>
<rscale>  0 0.32547978E+04</rscale>
<asrwt>0</asrwt>
<pdfrwt beam="1">  1        2 0.54682744E+00 0.32547978E+04</pdfrwt>
<pdfrwt beam="2">  1       -2 0.11463336E+00 0.32547978E+04</pdfrwt>
<totfact> 0.37021998E-01</totfact>
</mgrwt>
</event>
<event>
 6    1  0.5026615E-004  0.6487879E+03  0.7818608E-02  0.9809056E-01
         -2   -1    0    0    0  501 -0.00000000000E+00  0.00000000000E+00  0.12066800509E+03  0.12066800509E+03  0.00000000000E+00 0.  1.
          2   -1    0    0  501    0  0.00000000000E+00 -0.00000000000E+00 -0.87207392494E+03  0.87207392494E+03  0.00000000000E+00 0. -1.
         23    2    1    2    0    0 -0.84798985244E+02  0.30459215627E+03 -0.43942461062E+03  0.54855774878E+03  0.88624859785E+02 0.  0.
         11    1    3    3    0    0 -0.54774067989E+02  0.25559311903E+03 -0.30088440389E+03  0.39857178215E+03  0.00000000000E+00 0.  1.
        -11    1    3    3    0    0 -0.30024917254E+02  0.48999037235E+02 -0.13854020673E+03  0.14998596663E+03  0.00000000000E+00 0. -1.
         22    1    1    2    0    0  0.84798985244E+02 -0.30459215627E+03 -0.31198130923E+03  0.44418418125E+03  0.00000000000E+00 0.  1.
<mgrwt>
<rscale>  0 0.64878786E+03</rscale>
<asrwt>0</asrwt>
<pdfrwt beam="1">  1        2 0.13416522E+00 0.64878786E+03</pdfrwt>
<pdfrwt beam="2">  1       -2 0.18564308E-01 0.64878786E+03</pdfrwt>
<totfact> 0.74944538E+02</totfact>
</mgrwt>
</event>
<event>
 6    1  0.5026615E-004  0.1096841E+04  0.7818608E-02  0.9208276E-01
          2   -1    0    0  501    0  0.00000000000E+00  0.00000000000E+00  0.51561891483E+03  0.51561891483E+03  0.00000000000E+00 0.  1.
         -2   -1    0    0    0  501 -0.00000000000E+00 -0.00000000000E+00 -0.58330904877E+03  0.58330904877E+03  0.00000000000E+00 0. -1.
         23    2    1    2    0    0 -0.15894858973E+03 -0.41427957922E+03  0.28228976180E+03  0.53379244767E+03  0.91403739779E+02 0.  0.
         13    1    3    3    0    0 -0.10806299688E+03 -0.33539954011E+03  0.18265806248E+03  0.39690607275E+03  0.00000000000E+00 0. -1.
        -13    1    3    3    0    0 -0.50885592852E+02 -0.78880039103E+02  0.99631699322E+02  0.13688637492E+03  0.00000000000E+00 0.  1.
         22    1    1    2    0    0  0.15894858973E+03  0.41427957922E+03 -0.34997989575E+03  0.56513551592E+03  0.00000000000E+00 0. -1.
<mgrwt>
<rscale>  0 0.10968412E+04</rscale>
<asrwt>0</asrwt>
<pdfrwt beam="1">  1        2 0.79325988E-01 0.10968412E+04</pdfrwt>
<pdfrwt beam="2">  1       -2 0.89739853E-01 0.10968412E+04</pdfrwt>
<totfact> 0.62793701E+01</totfact>
</mgrwt>
</event>
<event>
 6    1  0.5026615E-004  0.2233152E+04  0.7818608E-02  0.8504755E-01
         -2   -1    0    0    0  501 -0.00000000000E+00  0.00000000000E+00  0.23031444448E+04  0.23031444448E+04  0.00000000000E+00 0. -1.
          2   -1    0    0  501    0  0.00000000000E+00 -0.00000000000E+00 -0.54132189143E+03  0.54132189143E+03  0.00000000000E+00 0.  1.
         23    2    1    2    0    0 -0.68045046832E+03 -0.51381771338E+03 -0.32179804272E+02  0.85814663848E+03  0.91425548436E+02 0.  0.
         11    1    3    3    0    0 -0.25732758568E+03 -0.23112504532E+03  0.20904188596E+02  0.34651588423E+03  0.00000000000E+00 0.  1.
        -11    1    3    3    0    0 -0.42312288264E+03 -0.28269266807E+03 -0.53083992868E+02  0.51163075425E+03  0.00000000000E+00 0. -1.
         22    1    1    2    0    0  0.68045046832E+03  0.51381771338E+03  0.17940023576E+04  0.19863196977E+04  0.00000000000E+00 0. -1.
<mgrwt>
<rscale>  0 0.22331525E+04</rscale>
<asrwt>0</asrwt>
<pdfrwt beam="1">  1        2 0.83280293E-01 0.22331525E+04</pdfrwt>
<pdfrwt beam="2">  1       -2 0.35432991E+00 0.22331525E+04</pdfrwt>
<totfact> 0.74804146E-01</totfact>
</mgrwt>
</event>
<event>
 6    1  0.5026615E-004  0.4474024E+04  0.7818608E-02  0.7915200E-01
         -1   -1    0    0    0  501 -0.00000000000E+00  0.00000000000E+00  0.41207987908E+04  0.41207987908E+04  0.00000000000E+00 0. -1.
          1   -1    0    0  501    0  0.00000000000E+00 -0.00000000000E+00 -0.12143818902E+04  0.12143818902E+04  0.00000000000E+00 0.  1.
         23    2    1    2    0    0 -0.13229762630E+04  0.92407687703E+03 -0.39184711691E+03  0.16632969960E+04  0.93959919831E+02 0.  0.
         11    1    3    3    0    0 -0.47920361046E+03  0.28055888537E+03 -0.13012619008E+03  0.57033517670E+03  0.00000000000E+00 0. -1.
        -11    1    3    3    0    0 -0.84377265257E+03  0.64351799166E+03 -0.26172092683E+03  0.10929618193E+04  0.00000000000E+00 0.  1.
         22    1    1    2    0    0  0.13229762630E+04 -0.92407687703E+03  0.32982640175E+04  0.36718836850E+04  0.00000000000E+00 0. -1.
<mgrwt>
<rscale>  0 0.44740243E+04</rscale>
<asrwt>0</asrwt>
<pdfrwt beam="1">  1        1 0.18682799E+00 0.44740243E+04</pdfrwt>
<pdfrwt beam="2">  1       -1 0.63396904E+00 0.44740243E+04</pdfrwt>
<totfact> 0.26140371E-03</totfact>
</mgrwt>
</event>
<event>
 6    1  0.5026615E-004  0.3242733E+04  0.7818608E-02  0.8177622E-01
         -2   -1    0    0    0  501 -0.00000000000E+00  0.00000000000E+00  0.62889681513E+03  0.62889681513E+03  0.00000000000E+00 0. -1.
          2   -1    0    0  501    0  0.00000000000E+00 -0.00000000000E+00 -0.41800653070E+04  0.41800653070E+04  0.00000000000E+00 0.  1.
         23    2    1    2    0    0  0.10832176110E+04  0.11615699336E+04 -0.22507726134E+04  0.27562481761E+04  0.91222516326E+02 0.  0.
         11    1    3    3    0    0  0.43214448933E+03  0.48957635442E+03 -0.85436955566E+03  0.10753516653E+04  0.00000000000E+00 0. -1.
        -11    1    3    3    0    0  0.65107312169E+03  0.67199357919E+03 -0.13964030578E+04  0.16808965108E+04  0.00000000000E+00 0.  1.
         22    1    1    2    0    0 -0.10832176110E+04 -0.11615699336E+04 -0.13003958784E+04  0.20527139460E+04  0.00000000000E+00 0. -1.
<mgrwt>
<rscale>  0 0.32427333E+04</rscale>
<asrwt>0</asrwt>
<pdfrwt beam="1">  1        2 0.64308697E+00 0.32427333E+04</pdfrwt>
<pdfrwt beam="2">  1       -2 0.96753357E-01 0.32427333E+04</pdfrwt>
<totfact> 0.18088050E-01</totfact>
</mgrwt>
</event>
<event>
 6    1  0.5026615E-004  0.1845529E+04  0.7818608E-02  0.8682455E-01
          2   -1    0    0  501    0  0.00000000000E+00  0.00000000000E+00  0.55419059328E+03  0.55419059328E+03  0.00000000000E+00 0.  1.
         -2   -1    0    0    0  501 -0.00000000000E+00 -0.00000000000E+00 -0.15364647070E+04  0.15364647070E+04  0.00000000000E+00 0. -1.
         23    2    1    2    0    0 -0.34511520984E+03 -0.70195429007E+03 -0.10419223005E+04  0.13061795265E+04  0.93051285677E+02 0.  0.
         11    1    3    3    0    0 -0.22201043523E+03 -0.40704190918E+03 -0.54720961794E+03  0.71722389471E+03  0.00000000000E+00 0. -1.
        -11    1    3    3    0    0 -0.12310477461E+03 -0.29491238089E+03 -0.49471268254E+03  0.58895563178E+03  0.00000000000E+00 0.  1.
         22    1    1    2    0    0  0.34511520984E+03  0.70195429007E+03  0.59648186799E+02  0.78447577375E+03  0.00000000000E+00 0.  1.
<mgrwt>
<rscale>  0 0.18455290E+04</rscale>
<asrwt>0</asrwt>
<pdfrwt beam="1">  1        2 0.85260092E-01 0.18455290E+04</pdfrwt>
<pdfrwt beam="2">  1       -2 0.23637918E+00 0.18455290E+04</pdfrwt>
<totfact> 0.40017173E+00</totfact>
</mgrwt>
</event>
<event>
 6    1  0.5026615E-004  0.4954295E+04  0.7818608E-02  0.7835596E-01
          2   -1    0    0  501    0  0.00000000000E+00  0.00000000000E+00  0.38708453673E+04  0.38708453673E+04  0.00000000000E+00 0.  1.
         -2   -1    0    0    0  501 -0.00000000000E+00 -0.00000000000E+00 -0.15852507541E+04  0.15852507541E+04  0.00000000000E+00 0. -1.
         23    2    1    2    0    0 -0.21246370576E+04  0.10849509980E+04  0.41170924078E+03  0.24225095175E+04  0.88580858965E+02 0.  0.
         13    1    3    3    0    0 -0.16743542089E+04  0.82544438998E+03  0.29623854915E+03  0.18901263809E+04  0.00000000000E+00 0. -1.
        -13    1    3    3    0    0 -0.45028284875E+03  0.25950660807E+03  0.11547069163E+03  0.53238313660E+03  0.00000000000E+00 0.  1.
         22    1    1    2    0    0  0.21246370576E+04 -0.10849509980E+04  0.18738853724E+04  0.30335866040E+04  0.00000000000E+00 0.  1.
<mgrwt>
<rscale>  0 0.49542953E+04</rscale>
<asrwt>0</asrwt>
<pdfrwt beam="1">  1        2 0.59551467E+00 0.49542953E+04</pdfrwt>
<pdfrwt beam="2">  1       -2 0.24388473E+00 0.49542953E+04</pdfrwt>
<totfact> 0.22100971E-02</totfact>
</mgrwt>
</event>
<event>
 6    1  0.5026615E-004  0.3118413E+04  0.7818608E-02  0.8210703E-01
          1   -1    0    0  501    0  0.00000000000E+00  0.00000000000E+00  0.12248077702E+04  0.12248077702E+04  0.00000000000E+00 0. -1.
         -1   -1    0    0    0  501 -0.00000000000E+00 -0.00000000000E+00 -0.19849033842E+04  0.19849033842E+04  0.00000000000E+00 0.  1.
         23    2    1    2    0    0 -0.11702392873E+04  0.89582145061E+03 -0.89943148207E+03  0.17293833039E+04  0.99164308995E+02 0.  0.
         11    1    3    3    0    0 -0.54438857946E+03  0.47900863459E+03 -0.43747721261E+03  0.84687337248E+03  0.00000000000E+00 0. -1.
        -11    1    3    3    0    0 -0.62585070780E+03  0.41681281602E+03 -0.46195426946E+03  0.88250993146E+03  0.00000000000E+00 0.  1.
         22    1    1    2    0    0  0.11702392873E+04 -0.89582145061E+03  0.13933586801E+03  0.14803278505E+04  0.00000000000E+00 0.  1.
<mgrwt>
<rscale>  0 0.31184131E+04</rscale>
<asrwt>0</asrwt>
<pdfrwt beam="1">  1        1 0.18843197E+00 0.31184131E+04</pdfrwt>
<pdfrwt beam="2">  1       -1 0.30536975E+00 0.31184131E+04</pdfrwt>
<totfact> 0.26313326E-01</totfact>
</mgrwt>
</event>
<event>
 6    1  0.5026615E-004  0.1607860E+04  0.7818608E-02  0.8815734E-01
         -2   -1    0    0    0  501 -0.00000000000E+00  0.00000000000E+00  0.36937200998E+03  0.36937200998E+03  0.00000000000E+00 0. -1.
          2   -1    0    0  501    0  0.00000000000E+00 -0.00000000000E+00 -0.17497349275E+04  0.17497349275E+04  0.00000000000E+00 0.  1.
         23    2    1    2    0    0 -0.12492613774E+03 -0.16138379388E+03 -0.17143872546E+04  0.17276691690E+04  0.63763860552E+02 0.  0.
         11    1    3    3    0    0 -0.55189844544E+02 -0.36236997933E+02 -0.71896878926E+03  0.72199387732E+03  0.00000000000E+00 0. -1.
        -11    1    3    3    0    0 -0.69736293197E+02 -0.12514679595E+03 -0.99541846536E+03  0.10056752917E+04  0.00000000000E+00 0.  1.
         22    1    1    2    0    0  0.12492613774E+03  0.16138379388E+03  0.33402433709E+03  0.39143776848E+03  0.00000000000E+00 0. -1.
<mgrwt>
<rscale>  0 0.16078596E+04</rscale>
<asrwt>0</asrwt>
<pdfrwt beam="1">  1        2 0.26918998E+00 0.16078596E+04</pdfrwt>
<pdfrwt beam="2">  1       -2 0.56826464E-01 0.16078596E+04</pdfrwt>
<totfact> 0.25606006E+01</totfact>
</mgrwt>
</event>
<event>
 6    1  0.5026615E-004  0.2006954E+04  0.7818608E-02  0.8603376E-01
          2   -1    0    0  501    0  0.00000000000E+00  0.00000000000E+00  0.13852573784E+04  0.13852573784E+04  0.00000000000E+00 0.  1.
         -2   -1    0    0    0  501 -0.00000000000E+00 -0.00000000000E+00 -0.72691652833E+03  0.72691652833E+03  0.00000000000E+00 0. -1.
         23    2    1    2    0    0 -0.75573814155E+03  0.65598369057E+03  0.29025794499E+03  0.10459001305E+04  0.90568578518E+02 0.  0.
         11    1    3    3    0    0 -0.56457352962E+03  0.45340807400E+03  0.24022337117E+03  0.76290852661E+03  0.00000000000E+00 0.  1.
        -11    1    3    3    0    0 -0.19116461193E+03  0.20257561657E+03  0.50034573828E+02  0.28299160387E+03  0.00000000000E+00 0. -1.
         22    1    1    2    0    0  0.75573814155E+03 -0.65598369057E+03  0.36808290507E+03  0.10662737762E+04  0.00000000000E+00 0.  1.
<mgrwt>
<rscale>  0 0.20069544E+04</rscale>
<asrwt>0</asrwt>
<pdfrwt beam="1">  1        2 0.21311652E+00 0.20069544E+04</pdfrwt>
<pdfrwt beam="2">  1       -2 0.11183331E+00 0.20069544E+04</pdfrwt>
<totfact> 0.86491193E+00</totfact>
</mgrwt>
</event>
<event>
 6    1  0.5026615E-004  0.2123720E+04  0.7818608E-02  0.8550866E-01
          2   -1    0    0  501    0  0.00000000000E+00  0.00000000000E+00  0.47420370136E+04  0.47420370136E+04  0.00000000000E+00 0.  1.
         -2   -1    0    0    0  501 -0.00000000000E+00 -0.00000000000E+00 -0.23777682988E+03  0.23777682988E+03  0.00000000000E+00 0. -1.
         23    2    1    2    0    0 -0.74727868006E+03  0.11969789992E+03  0.51496371889E+03  0.91936567891E+03  0.85396761471E+02 0.  0.
         11    1    3    3    0    0 -0.49559915985E+03  0.41473087948E+02  0.35545950635E+03  0.61130189344E+03  0.00000000000E+00 0. -1.
        -11    1    3    3    0    0 -0.25167952021E+03  0.78224811975E+02  0.15950421254E+03  0.30806378547E+03  0.00000000000E+00 0.  1.
         22    1    1    2    0    0  0.74727868006E+03 -0.11969789992E+03  0.39892964648E+04  0.40604481645E+04  0.00000000000E+00 0.  1.
<mgrwt>
<rscale>  0 0.21237199E+04</rscale>
<asrwt>0</asrwt>
<pdfrwt beam="1">  1        2 0.72954409E+00 0.21237199E+04</pdfrwt>
<pdfrwt beam="2">  1       -2 0.36581054E-01 0.21237199E+04</pdfrwt>
<totfact> 0.45457357E-01</totfact>
</mgrwt>
</event>
<event>
 6    1  0.5026615E-004  0.1258338E+04  0.7818608E-02  0.9063272E-01
          1   -1    0    0  501    0  0.00000000000E+00  0.00000000000E+00  0.65898198155E+03  0.65898198155E+03  0.00000000000E+00 0.  1.
         -1   -1    0    0    0  501 -0.00000000000E+00 -0.00000000000E+00 -0.60070434849E+03  0.60070434849E+03  0.00000000000E+00 0. -1.
         23    2    1    2    0    0  0.27607974173E+03 -0.48930866118E+03 -0.24812959770E+03  0.61974228503E+03  0.82880714895E+02 0.  0.
         13    1    3    3    0    0  0.94606295691E+02 -0.18887783255E+03 -0.13617204846E+03  0.25133247621E+03  0.00000000000E+00 0. -1.
        -13    1    3    3    0    0  0.18147344604E+03 -0.30043082862E+03 -0.11195754924E+03  0.36840980882E+03  0.00000000000E+00 0.  1.
         22    1    1    2    0    0 -0.27607974173E+03  0.48930866118E+03  0.30640723075E+03  0.63994404502E+03  0.00000000000E+00 0.  1.
<mgrwt>
<rscale>  0 0.12583375E+04</rscale>
<asrwt>0</asrwt>
<pdfrwt beam="1">  1        1 0.10138184E+00 0.12583375E+04</pdfrwt>
<pdfrwt beam="2">  1       -1 0.92416053E-01 0.12583375E+04</pdfrwt>
<totfact> 0.33514202E+01</totfact>
</mgrwt>
</event>
<event>
 6    1  0.5026615E-004  0.4733787E+04  0.7818608E-02  0.7870939E-01
          2   -1    0    0  501    0  0.00000000000E+00  0.00000000000E+00  0.30096215628E+04  0.30096215628E+04  0.00000000000E+00 0. -1.
         -2   -1    0    0    0  501 -0.00000000000E+00 -0.00000000000E+00 -0.18614246499E+04  0.18614246499E+04  0.00000000000E+00 0.  1.
         23    2    1    2    0    0  0.10930682712E+04  0.20977464328E+04  0.63473022043E+03  0.24505118944E+04  0.82387801565E+02 0.  0.
         11    1    3    3    0    0  0.45513093084E+03  0.80989828275E+03  0.27771333334E+03  0.96964121618E+03  0.00000000000E+00 0.  1.
        -11    1    3    3    0    0  0.63793734033E+03  0.12878481501E+04  0.35701688709E+03  0.14808706782E+04  0.00000000000E+00 0. -1.
         22    1    1    2    0    0 -0.10930682712E+04 -0.20977464328E+04  0.51346669248E+03  0.24205343183E+04  0.00000000000E+00 0. -1.
<mgrwt>
<rscale>  0 0.47337865E+04</rscale>
<asrwt>0</asrwt>
<pdfrwt beam="1">  1        2 0.46301870E+00 0.47337865E+04</pdfrwt>
<pdfrwt beam="2">  1       -2 0.28637302E+00 0.47337865E+04</pdfrwt>
<totfact> 0.49135812E-02</totfact>
</mgrwt>
</event>
<event>
 6    1  0.5026615E-004  0.7831519E+03  0.7818608E-02  0.9584729E-01
          1   -1    0    0  501    0  0.00000000000E+00  0.00000000000E+00  0.52135272856E+03  0.52135272856E+03  0.00000000000E+00 0.  1.
         -1   -1    0    0    0  501 -0.00000000000E+00 -0.00000000000E+00 -0.29410362194E+03  0.29410362194E+03  0.00000000000E+00 0. -1.
         23    2    1    2    0    0  0.27816536316E+03 -0.20696542135E+02  0.39312541548E+03  0.49092705141E+03  0.93045480222E+02 0.  0.
         13    1    3    3    0    0  0.12809620983E+03 -0.55505589404E+02  0.17436370228E+03  0.22336564217E+03  0.00000000000E+00 0. -1.
        -13    1    3    3    0    0  0.15006915333E+03  0.34809047268E+02  0.21876171321E+03  0.26756140925E+03  0.00000000000E+00 0.  1.
         22    1    1    2    0    0 -0.27816536316E+03  0.20696542135E+02 -0.16587630887E+03  0.32452929908E+03  0.00000000000E+00 0. -1.
<mgrwt>
<rscale>  0 0.78315190E+03</rscale>
<asrwt>0</asrwt>
<pdfrwt beam="1">  1        1 0.80208112E-01 0.78315190E+03</pdfrwt>
<pdfrwt beam="2">  1       -1 0.45246711E-01 0.78315190E+03</pdfrwt>
<totfact> 0.20508107E+02</totfact>
</mgrwt>
</event>
<event>
 6    1  0.5026615E-004  0.2509740E+04  0.7818608E-02  0.8399524E-01
         -2   -1    0    0    0  501 -0.00000000000E+00  0.00000000000E+00  0.15210913036E+04  0.15210913036E+04  0.00000000000E+00 0. -1.
          2   -1    0    0  501    0  0.00000000000E+00 -0.00000000000E+00 -0.10352428343E+04  0.10352428343E+04  0.00000000000E+00 0.  1.
         23    2    1    2    0    0  0.83021661976E+03 -0.42338525709E+03 -0.60999313181E+03  0.11177989363E+04  0.94170746076E+02 0.  0.
         11    1    3    3    0    0  0.50610577431E+03 -0.22147780025E+03 -0.32120428799E+03  0.63903651337E+03  0.00000000000E+00 0.  1.
        -11    1    3    3    0    0  0.32411084545E+03 -0.20190745683E+03 -0.28878884382E+03  0.47876242289E+03  0.00000000000E+00 0. -1.
         22    1    1    2    0    0 -0.83021661976E+03  0.42338525709E+03  0.10958416011E+04  0.14385352016E+04  0.00000000000E+00 0. -1.
<mgrwt>
<rscale>  0 0.25097401E+04</rscale>
<asrwt>0</asrwt>
<pdfrwt beam="1">  1        2 0.15926813E+00 0.25097401E+04</pdfrwt>
<pdfrwt beam="2">  1       -2 0.23401405E+00 0.25097401E+04</pdfrwt>
<totfact> 0.17197734E+00</totfact>
</mgrwt>
</event>
<event>
 6    1  0.5026615E-004  0.2109358E+04  0.7818608E-02  0.8557132E-01
          1   -1    0    0  501    0  0.00000000000E+00  0.00000000000E+00  0.11675266717E+04  0.11675266717E+04  0.00000000000E+00 0.  1.
         -1   -1    0    0    0  501 -0.00000000000E+00 -0.00000000000E+00 -0.95273848634E+03  0.95273848634E+03  0.00000000000E+00 0. -1.
         23    2    1    2    0    0  0.75835026998E+03 -0.73025956733E+03  0.10393571687E+03  0.10616517076E+04  0.89036775425E+02 0.  0.
         11    1    3    3    0    0  0.47471954997E+03 -0.47300880242E+03  0.10753506224E+03  0.67871921138E+03  0.00000000000E+00 0. -1.
        -11    1    3    3    0    0  0.28363072002E+03 -0.25725076491E+03 -0.35993453682E+01  0.38293249624E+03  0.00000000000E+00 0.  1.
         22    1    1    2    0    0 -0.75835026998E+03  0.73025956733E+03  0.11085246849E+03  0.10586134504E+04  0.00000000000E+00 0.  1.
<mgrwt>
<rscale>  0 0.21093578E+04</rscale>
<asrwt>0</asrwt>
<pdfrwt beam="1">  1        1 0.17961949E+00 0.21093578E+04</pdfrwt>
<pdfrwt beam="2">  1       -1 0.14657515E+00 0.21093578E+04</pdfrwt>
<totfact> 0.38516980E+00</totfact>
</mgrwt>
</event>
<event>
 6    1  0.5026615E-004  0.1441262E+04  0.7818608E-02  0.8924481E-01
         -2   -1    0    0    0  501 -0.00000000000E+00  0.00000000000E+00  0.21597509110E+03  0.21597509110E+03  0.00000000000E+00 0. -1.
          2   -1    0    0  501    0  0.00000000000E+00 -0.00000000000E+00 -0.24044869879E+04  0.24044869879E+04  0.00000000000E+00 0.  1.
         23    2    1    2    0    0 -0.40778105775E+03  0.58827545357E+03 -0.99362639022E+03  0.12275856401E+04  0.85555245246E+02 0.  0.
         13    1    3    3    0    0 -0.14540266639E+03  0.16422128591E+03 -0.35560872172E+03  0.41781350996E+03  0.00000000000E+00 0.  1.
        -13    1    3    3    0    0 -0.26237839136E+03  0.42405416766E+03 -0.63801766850E+03  0.80977213009E+03  0.00000000000E+00 0. -1.
         22    1    1    2    0    0  0.40778105775E+03 -0.58827545357E+03 -0.11948855065E+04  0.13928764389E+04  0.00000000000E+00 0.  1.
<mgrwt>
<rscale>  0 0.14412624E+04</rscale>
<asrwt>0</asrwt>
<pdfrwt beam="1">  1        2 0.36992109E+00 0.14412624E+04</pdfrwt>
<pdfrwt beam="2">  1       -2 0.33226936E-01 0.14412624E+04</pdfrwt>
<totfact> 0.32525874E+01</totfact>
</mgrwt>
</event>
<event>
 6    1  0.5026615E-004  0.3341052E+04  0.7818608E-02  0.8152528E-01
         -2   -1    0    0    0  501 -0.00000000000E+00  0.00000000000E+00  0.21894810172E+04  0.21894810172E+04  0.00000000000E+00 0. -1.
          2   -1    0    0  501    0  0.00000000000E+00 -0.00000000000E+00 -0.12745748412E+04  0.12745748412E+04  0.00000000000E+00 0.  1.
         23    2    1    2    0    0 -0.43423131913E+02  0.98774161376E+03 -0.93667304692E+03  0.13650406888E+04  0.91981635332E+02 0.  0.
         13    1    3    3    0    0 -0.18338009815E+02  0.84248220987E+03 -0.83236231227E+03  0.11844575026E+04  0.00000000000E+00 0. -1.
        -13    1    3    3    0    0 -0.25085122098E+02  0.14525940388E+03 -0.10431073465E+03  0.18058318618E+03  0.00000000000E+00 0.  1.
         22    1    1    2    0    0  0.43423131913E+02 -0.98774161376E+03  0.18515792229E+04  0.20990151697E+04  0.00000000000E+00 0. -1.
<mgrwt>
<rscale>  0 0.33410522E+04</rscale>
<asrwt>0</asrwt>
<pdfrwt beam="1">  1        2 0.19608844E+00 0.33410522E+04</pdfrwt>
<pdfrwt beam="2">  1       -2 0.33684323E+00 0.33410522E+04</pdfrwt>
<totfact> 0.26788742E-01</totfact>
</mgrwt>
</event>
<event>
 6    1  0.5026615E-004  0.1786106E+04  0.7818608E-02  0.8713723E-01
         -2   -1    0    0    0  501 -0.00000000000E+00  0.00000000000E+00  0.24392828119E+03  0.24392828119E+03  0.00000000000E+00 0. -1.
          2   -1    0    0  501    0  0.00000000000E+00 -0.00000000000E+00 -0.32695816103E+04  0.32695816103E+04  0.00000000000E+00 0.  1.
         23    2    1    2    0    0 -0.16315407841E+03 -0.16971922952E+03 -0.32066996212E+04  0.32165222990E+04  0.87574932377E+02 0.  0.
         11    1    3    3    0    0 -0.58848669334E+02 -0.11374073820E+03 -0.13531692891E+04  0.13592156732E+04  0.00000000000E+00 0. -1.
        -11    1    3    3    0    0 -0.10430540908E+03 -0.55978491318E+02 -0.18535303321E+04  0.18573066257E+04  0.00000000000E+00 0.  1.
         22    1    1    2    0    0  0.16315407841E+03  0.16971922952E+03  0.18104629217E+03  0.29698759247E+03  0.00000000000E+00 0. -1.
<mgrwt>
<rscale>  0 0.17861057E+04</rscale>
<asrwt>0</asrwt>
<pdfrwt beam="1">  1        2 0.50301255E+00 0.17861057E+04</pdfrwt>
<pdfrwt beam="2">  1       -2 0.37527428E-01 0.17861057E+04</pdfrwt>
<totfact> 0.74328953E+00</totfact>
</mgrwt>
</event>
<event>
 6    1  0.8216612E-004  0.3711354E+04  0.7818608E-02  0.8065450E-01
          1   -1    0    0  501    0  0.00000000000E+00  0.00000000000E+00  0.24960839858E+04  0.24960839858E+04  0.00000000000E+00 0. -1.
         -1   -1    0    0    0  501 -0.00000000000E+00 -0.00000000000E+00 -0.13795757219E+04  0.13795757219E+04  0.00000000000E+00 0.  1.
         23    2    1    2    0    0  0.58850397002E+03 -0.35073418272E+03 -0.12409688324E+04  0.14206546874E+04  0.94364761649E+02 0.  0.
         11    1    3    3    0    0  0.30604122543E+03 -0.19122764007E+03 -0.55739463443E+03  0.66401658148E+03  0.00000000000E+00 0. -1.
        -11    1    3    3    0    0  0.28246274460E+03 -0.15950654265E+03 -0.68357419797E+03  0.75663810594E+03  0.00000000000E+00 0.  1.
         22    1    1    2    0    0 -0.58850397002E+03  0.35073418272E+03  0.23574770963E+04  0.24550050202E+04  0.00000000000E+00 0. -1.
<mgrwt>
<rscale>  0 0.37113539E+04</rscale>
<asrwt>0</asrwt>
<pdfrwt beam="1">  1        1 0.38401292E+00 0.37113539E+04</pdfrwt>
<pdfrwt beam="2">  1       -1 0.21224242E+00 0.37113539E+04</pdfrwt>
<totfact> 0.13563505E-01</totfact>
</mgrwt>
</event>
<event>
 6    1  0.5026615E-004  0.4499057E+04  0.7818608E-02  0.7910802E-01
         -2   -1    0    0    0  501 -0.00000000000E+00  0.00000000000E+00  0.13113023581E+04  0.13113023581E+04  0.00000000000E+00 0. -1.
          2   -1    0    0  501    0  0.00000000000E+00 -0.00000000000E+00 -0.38590478194E+04  0.38590478194E+04  0.00000000000E+00 0.  1.
         23    2    1    2    0    0  0.57035630036E+03 -0.21652072368E+04 -0.10366134444E+04  0.24690636950E+04  0.90991259181E+02 0.  0.
         13    1    3    3    0    0  0.35740374617E+03 -0.11803483151E+04 -0.56458376101E+03  0.13563607212E+04  0.00000000000E+00 0. -1.
        -13    1    3    3    0    0  0.21295255419E+03 -0.98485892174E+03 -0.47202968341E+03  0.11127029739E+04  0.00000000000E+00 0.  1.
         22    1    1    2    0    0 -0.57035630036E+03  0.21652072368E+04 -0.15111320169E+04  0.27012864825E+04  0.00000000000E+00 0.  1.
<mgrwt>
<rscale>  0 0.44990570E+04</rscale>
<asrwt>0</asrwt>
<pdfrwt beam="1">  1        2 0.59369967E+00 0.44990570E+04</pdfrwt>
<pdfrwt beam="2">  1       -2 0.20173882E+00 0.44990570E+04</pdfrwt>
<totfact> 0.43284472E-02</totfact>
</mgrwt>
</event>
<event>
 6    1  0.5026615E-004  0.1213057E+04  0.7818608E-02  0.9101504E-01
         -2   -1    0    0    0  501 -0.00000000000E+00  0.00000000000E+00  0.18140412863E+03  0.18140412863E+03  0.00000000000E+00 0. -1.
          2   -1    0    0  501    0  0.00000000000E+00 -0.00000000000E+00 -0.20279411948E+04  0.20279411948E+04  0.00000000000E+00 0.  1.
         23    2    1    2    0    0  0.16675285986E+03  0.51751696237E+03 -0.45253451087E+03  0.71305877106E+03  0.89638188546E+02 0.  0.
         11    1    3    3    0    0  0.17535009848E+03  0.50483996478E+03 -0.44716763212E+03  0.69682848556E+03  0.00000000000E+00 0.  1.
        -11    1    3    3    0    0 -0.85972386200E+01  0.12676997590E+02 -0.53668787471E+01  0.16230285496E+02  0.00000000000E+00 0. -1.
         22    1    1    2    0    0 -0.16675285986E+03 -0.51751696237E+03 -0.13940025553E+04  0.14962865523E+04  0.00000000000E+00 0.  1.
<mgrwt>
<rscale>  0 0.12130571E+04</rscale>
<asrwt>0</asrwt>
<pdfrwt beam="1">  1        2 0.31199094E+00 0.12130571E+04</pdfrwt>
<pdfrwt beam="2">  1       -2 0.27908328E-01 0.12130571E+04</pdfrwt>
<totfact> 0.74643158E+01</totfact>
</mgrwt>
</event>
<event>
 6    1  0.5026615E-004  0.4190165E+04  0.7818608E-02  0.7967246E-01
          2   -1    0    0  501    0  0.00000000000E+00  0.00000000000E+00  0.42178248667E+04  0.42178248667E+04  0.00000000000E+00 0.  1.
         -2   -1    0    0    0  501 -0.00000000000E+00 -0.00000000000E+00 -0.10406718575E+04  0.10406718575E+04  0.00000000000E+00 0. -1.
         23    2    1    2    0    0  0.20241263664E+04 -0.51437913046E+03  0.17833846544E+04  0.27476674460E+04  0.86845444892E+02 0.  0.
         11    1    3    3    0    0  0.14261957549E+04 -0.40192859718E+03  0.12767301678E+04  0.19559194385E+04  0.00000000000E+00 0. -1.
        -11    1    3    3    0    0  0.59793061154E+03 -0.11245053328E+03  0.50665448665E+03  0.79174800757E+03  0.00000000000E+00 0.  1.
         22    1    1    2    0    0 -0.20241263664E+04  0.51437913046E+03  0.13937683548E+04  0.25108292781E+04  0.00000000000E+00 0. -1.
<mgrwt>
<rscale>  0 0.41901655E+04</rscale>
<asrwt>0</asrwt>
<pdfrwt beam="1">  1        2 0.64889612E+00 0.41901655E+04</pdfrwt>
<pdfrwt beam="2">  1       -2 0.16010336E+00 0.41901655E+04</pdfrwt>
<totfact> 0.43596718E-02</totfact>
</mgrwt>
</event>
<event>
 6    1  0.5026615E-004  0.4077840E+03  0.7818608E-02  0.1041117E+00
         -2   -1    0    0    0  501 -0.00000000000E+00  0.00000000000E+00  0.24399622714E+03  0.24399622714E+03  0.00000000000E+00 0. -1.
          2   -1    0    0  501    0  0.00000000000E+00 -0.00000000000E+00 -0.17037950908E+03  0.17037950908E+03  0.00000000000E+00 0.  1.
         23    2    1    2    0    0  0.19058348395E+03 -0.20148741898E+02  0.92240100431E+01  0.21220141292E+03  0.90643924925E+02 0.  0.
         13    1    3    3    0    0  0.24391999209E+02 -0.36042531717E+02 -0.84008694244E+01  0.44323902412E+02  0.00000000000E+00 0.  1.
        -13    1    3    3    0    0  0.16619148475E+03  0.15893789818E+02  0.17624879468E+02  0.16787751050E+03  0.00000000000E+00 0. -1.
         22    1    1    2    0    0 -0.19058348395E+03  0.20148741898E+02  0.64392708019E+02  0.20217432330E+03  0.00000000000E+00 0. -1.
<mgrwt>
<rscale>  0 0.40778405E+03</rscale>
<asrwt>0</asrwt>
<pdfrwt beam="1">  1        2 0.26212232E-01 0.40778405E+03</pdfrwt>
<pdfrwt beam="2">  1       -2 0.37537881E-01 0.40778405E+03</pdfrwt>
<totfact> 0.13821387E+03</totfact>
</mgrwt>
</event>
<event>
 6    1  0.5026615E-004  0.1165799E+04  0.7818608E-02  0.9143331E-01
         -2   -1    0    0    0  501 -0.00000000000E+00  0.00000000000E+00  0.20833369104E+04  0.20833369104E+04  0.00000000000E+00 0.  1.
          2   -1    0    0  501    0  0.00000000000E+00 -0.00000000000E+00 -0.16309013667E+03  0.16309013667E+03  0.00000000000E+00 0. -1.
         23    2    1    2    0    0 -0.53249809932E+03  0.14847771244E+03  0.12998653389E+04  0.14154800081E+04  0.91290181506E+02 0.  0.
         11    1    3    3    0    0 -0.18525268852E+03  0.83774975143E+01  0.45643597142E+03  0.49266879044E+03  0.00000000000E+00 0.  1.
        -11    1    3    3    0    0 -0.34724541080E+03  0.14010021493E+03  0.84342936745E+03  0.92281121765E+03  0.00000000000E+00 0. -1.
         22    1    1    2    0    0  0.53249809932E+03 -0.14847771244E+03  0.62038143484E+03  0.83094703897E+03  0.00000000000E+00 0. -1.
<mgrwt>
<rscale>  0 0.11657988E+04</rscale>
<asrwt>0</asrwt>
<pdfrwt beam="1">  1        2 0.25090792E-01 0.11657988E+04</pdfrwt>
<pdfrwt beam="2">  1       -2 0.32051335E+00 0.11657988E+04</pdfrwt>
<totfact> 0.51971778E+00</totfact>
</mgrwt>
</event>
<event>
 6    1  0.5026615E-004  0.1820719E+04  0.7818608E-02  0.8695358E-01
          2   -1    0    0  501    0  0.00000000000E+00  0.00000000000E+00  0.15497277145E+04  0.15497277145E+04  0.00000000000E+00 0.  1.
         -2   -1    0    0    0  501 -0.00000000000E+00 -0.00000000000E+00 -0.53477422769E+03  0.53477422769E+03  0.00000000000E+00 0. -1.
         23    2    1    2    0    0  0.14997275445E+02  0.90100209740E+03  0.37864083357E+03  0.98135939001E+03  0.87565254176E+02 0.  0.
         11    1    3    3    0    0 -0.12095510236E+02  0.47519665498E+03  0.24160073866E+03  0.53322516744E+03  0.00000000000E+00 0.  1.
        -11    1    3    3    0    0  0.27092785681E+02  0.42580544242E+03  0.13704009491E+03  0.44813422258E+03  0.00000000000E+00 0. -1.
         22    1    1    2    0    0 -0.14997275445E+02 -0.90100209740E+03  0.63631265326E+03  0.11031425522E+04  0.00000000000E+00 0.  1.
<mgrwt>
<rscale>  0 0.18207190E+04</rscale>
<asrwt>0</asrwt>
<pdfrwt beam="1">  1        2 0.23841965E+00 0.18207190E+04</pdfrwt>
<pdfrwt beam="2">  1       -2 0.82272959E-01 0.18207190E+04</pdfrwt>
<totfact> 0.14553376E+01</totfact>
</mgrwt>
</event>
<event>
 6    1  0.5026615E-004  0.3462154E+04  0.7818608E-02  0.8122818E-01
          2   -1    0    0  501    0  0.00000000000E+00  0.00000000000E+00  0.17129461273E+04  0.17129461273E+04  0.00000000000E+00 0.  1.
         -2   -1    0    0    0  501 -0.00000000000E+00 -0.00000000000E+00 -0.17493999817E+04  0.17493999817E+04  0.00000000000E+00 0. -1.
         23    2    1    2    0    0  0.13875389553E+04  0.93471296663E+03  0.42158969869E+03  0.17277693367E+04  0.92175508354E+02 0.  0.
         11    1    3    3    0    0  0.74292009279E+03  0.49381207473E+03  0.17767256412E+03  0.90958681249E+03  0.00000000000E+00 0. -1.
        -11    1    3    3    0    0  0.64461886254E+03  0.44090089190E+03  0.24391713458E+03  0.81818252423E+03  0.00000000000E+00 0.  1.
         22    1    1    2    0    0 -0.13875389553E+04 -0.93471296663E+03 -0.45804355311E+03  0.17345767723E+04  0.00000000000E+00 0.  1.
<mgrwt>
<rscale>  0 0.34621542E+04</rscale>
<asrwt>0</asrwt>
<pdfrwt beam="1">  1        2 0.26353017E+00 0.34621542E+04</pdfrwt>
<pdfrwt beam="2">  1       -2 0.26913846E+00 0.34621542E+04</pdfrwt>
<totfact> 0.39003263E-01</totfact>
</mgrwt>
</event>
<event>
 6    1  0.5026615E-004  0.3826455E+04  0.7818608E-02  0.8040501E-01
         -2   -1    0    0    0  501 -0.00000000000E+00  0.00000000000E+00  0.10618814703E+04  0.10618814703E+04  0.00000000000E+00 0.  1.
          2   -1    0    0  501    0  0.00000000000E+00 -0.00000000000E+00 -0.34471262019E+04  0.34471262019E+04  0.00000000000E+00 0. -1.
         23    2    1    2    0    0  0.49732404670E+03 -0.17847995755E+04 -0.63633885542E+03  0.19611629956E+04  0.91610174714E+02 0.  0.
         11    1    3    3    0    0  0.10044508589E+03 -0.24184818490E+03 -0.90849919779E+02  0.27718850580E+03  0.00000000000E+00 0.  1.
        -11    1    3    3    0    0  0.39687896081E+03 -0.15429513906E+04 -0.54548893564E+03  0.16839744898E+04  0.00000000000E+00 0. -1.
         22    1    1    2    0    0 -0.49732404670E+03  0.17847995755E+04 -0.17489058762E+04  0.25478446766E+04  0.00000000000E+00 0. -1.
<mgrwt>
<rscale>  0 0.38264550E+04</rscale>
<asrwt>0</asrwt>
<pdfrwt beam="1">  1        2 0.53032711E+00 0.38264550E+04</pdfrwt>
<pdfrwt beam="2">  1       -2 0.16336638E+00 0.38264550E+04</pdfrwt>
<totfact> 0.16817897E-01</totfact>
</mgrwt>
</event>
<event>
 6    1  0.5026615E-004  0.3179212E+04  0.7818608E-02  0.8194329E-01
         -2   -1    0    0    0  501 -0.00000000000E+00  0.00000000000E+00  0.80843961259E+03  0.80843961259E+03  0.00000000000E+00 0. -1.
          2   -1    0    0  501    0  0.00000000000E+00 -0.00000000000E+00 -0.31255853038E+04  0.31255853038E+04  0.00000000000E+00 0.  1.
         23    2    1    2    0    0  0.15435866313E+04 -0.33189094787E+03 -0.94570962880E+03  0.18426980259E+04  0.91422223419E+02 0.  0.
         13    1    3    3    0    0  0.12183341081E+04 -0.27109694967E+03 -0.78878750147E+03  0.14764881570E+04  0.00000000000E+00 0. -1.
        -13    1    3    3    0    0  0.32525252317E+03 -0.60793998198E+02 -0.15692212734E+03  0.36620986892E+03  0.00000000000E+00 0.  1.
         22    1    1    2    0    0 -0.15435866313E+04  0.33189094787E+03 -0.13714360624E+04  0.20913268905E+04  0.00000000000E+00 0.  1.
<mgrwt>
<rscale>  0 0.31792118E+04</rscale>
<asrwt>0</asrwt>
<pdfrwt beam="1">  1        2 0.48085927E+00 0.31792118E+04</pdfrwt>
<pdfrwt beam="2">  1       -2 0.12437533E+00 0.31792118E+04</pdfrwt>
<totfact> 0.59297808E-01</totfact>
</mgrwt>
</event>
<event>
 6    1  0.5026615E-004  0.4081539E+04  0.7818608E-02  0.7988297E-01
          2   -1    0    0  501    0  0.00000000000E+00  0.00000000000E+00  0.21128986827E+04  0.21128986827E+04  0.00000000000E+00 0.  1.
         -2   -1    0    0    0  501 -0.00000000000E+00 -0.00000000000E+00 -0.19711026509E+04  0.19711026509E+04  0.00000000000E+00 0. -1.
         23    2    1    2    0    0  0.98387069152E+03 -0.66372676059E+03 -0.15890466475E+04  0.19853467334E+04  0.89429601182E+02 0.  0.
         11    1    3    3    0    0  0.20535325758E+03 -0.18151027505E+03 -0.34613040962E+03  0.44149994429E+03  0.00000000000E+00 0.  1.
        -11    1    3    3    0    0  0.77851743394E+03 -0.48221648555E+03 -0.12429162379E+04  0.15438467891E+04  0.00000000000E+00 0. -1.
         22    1    1    2    0    0 -0.98387069152E+03  0.66372676059E+03  0.17308426793E+04  0.20986546002E+04  0.00000000000E+00 0.  1.
<mgrwt>
<rscale>  0 0.40815390E+04</rscale>
<asrwt>0</asrwt>
<pdfrwt beam="1">  1        2 0.32506134E+00 0.40815390E+04</pdfrwt>
<pdfrwt beam="2">  1       -2 0.30324656E+00 0.40815390E+04</pdfrwt>
<totfact> 0.13751011E-01</totfact>
</mgrwt>
</event>
<event>
 6    1  0.5026615E-004  0.1998238E+04  0.7818608E-02  0.8607445E-01
         -2   -1    0    0    0  501 -0.00000000000E+00  0.00000000000E+00  0.43127786803E+03  0.43127786803E+03  0.00000000000E+00 0. -1.
          2   -1    0    0  501    0  0.00000000000E+00 -0.00000000000E+00 -0.23146072818E+04  0.23146072818E+04  0.00000000000E+00 0.  1.
         23    2    1    2    0    0  0.59056587247E+03 -0.84938374471E+02  0.15404427681E+03  0.62294517605E+03  0.91369994856E+02 0.  0.
         13    1    3    3    0    0  0.37221585005E+03 -0.17041902159E+02  0.68767339362E+02  0.37889841966E+03  0.00000000000E+00 0. -1.
        -13    1    3    3    0    0  0.21835002242E+03 -0.67896472312E+02  0.85276937450E+02  0.24404675639E+03  0.00000000000E+00 0.  1.
         22    1    1    2    0    0 -0.59056587247E+03  0.84938374471E+02 -0.20373736905E+04  0.21229399737E+04  0.00000000000E+00 0.  1.
<mgrwt>
<rscale>  0 0.19982381E+04</rscale>
<asrwt>0</asrwt>
<pdfrwt beam="1">  1        2 0.35609343E+00 0.19982381E+04</pdfrwt>
<pdfrwt beam="2">  1       -2 0.66350441E-01 0.19982381E+04</pdfrwt>
<totfact> 0.86327092E+00</totfact>
</mgrwt>
</event>
<event>
 6    1  0.5026615E-004  0.2035673E+04  0.7818608E-02  0.8590121E-01
          2   -1    0    0  501    0  0.00000000000E+00  0.00000000000E+00  0.13749389532E+04  0.13749389532E+04  0.00000000000E+00 0.  1.
         -2   -1    0    0    0  501 -0.00000000000E+00 -0.00000000000E+00 -0.75348189011E+03  0.75348189011E+03  0.00000000000E+00 0. -1.
         23    2    1    2    0    0 -0.23225147460E+03  0.48748407113E+03 -0.58817446479E+03  0.80373601276E+03  0.91983205619E+02 0.  0.
         11    1    3    3    0    0 -0.11769332064E+03  0.17961849495E+03 -0.18307284072E+03  0.28218821106E+03  0.00000000000E+00 0. -1.
        -11    1    3    3    0    0 -0.11455815396E+03  0.30786557618E+03 -0.40510162407E+03  0.52154780170E+03  0.00000000000E+00 0.  1.
         22    1    1    2    0    0  0.23225147460E+03 -0.48748407113E+03  0.12096315279E+04  0.13246848306E+04  0.00000000000E+00 0.  1.
<mgrwt>
<rscale>  0 0.20356735E+04</rscale>
<asrwt>0</asrwt>
<pdfrwt beam="1">  1        2 0.21152907E+00 0.20356735E+04</pdfrwt>
<pdfrwt beam="2">  1       -2 0.11592029E+00 0.20356735E+04</pdfrwt>
<totfact> 0.80144289E+00</totfact>
</mgrwt>
</event>
<event>
 6    1  0.5026615E-004  0.1291594E+04  0.7818608E-02  0.9036258E-01
          2   -1    0    0  501    0  0.00000000000E+00  0.00000000000E+00  0.54614763753E+03  0.54614763753E+03  0.00000000000E+00 0.  1.
         -2   -1    0    0    0  501 -0.00000000000E+00 -0.00000000000E+00 -0.76362870658E+03  0.76362870658E+03  0.00000000000E+00 0. -1.
         23    2    1    2    0    0  0.62342303790E+02  0.51236457939E+03  0.28109628953E+03  0.59215289999E+03  0.72290441453E+02 0.  0.
         13    1    3    3    0    0  0.60173080697E+02  0.30568380053E+03  0.13790852206E+03  0.34070830047E+03  0.00000000000E+00 0. -1.
        -13    1    3    3    0    0  0.21692230935E+01  0.20668077886E+03  0.14318776747E+03  0.25144459953E+03  0.00000000000E+00 0.  1.
         22    1    1    2    0    0 -0.62342303790E+02 -0.51236457939E+03 -0.49857735858E+03  0.71762344412E+03  0.00000000000E+00 0. -1.
<mgrwt>
<rscale>  0 0.12915944E+04</rscale>
<asrwt>0</asrwt>
<pdfrwt beam="1">  1        2 0.84022713E-01 0.12915944E+04</pdfrwt>
<pdfrwt beam="2">  1       -2 0.11748134E+00 0.12915944E+04</pdfrwt>
<totfact> 0.30461305E+01</totfact>
</mgrwt>
</event>
<event>
 6    1  0.5026615E-004  0.7121417E+03  0.7818608E-02  0.9696691E-01
          1   -1    0    0  501    0  0.00000000000E+00  0.00000000000E+00  0.61142112936E+03  0.61142112936E+03  0.00000000000E+00 0.  1.
         -1   -1    0    0    0  501 -0.00000000000E+00 -0.00000000000E+00 -0.20736356682E+03  0.20736356682E+03  0.00000000000E+00 0. -1.
         23    2    1    2    0    0  0.55016152301E+02 -0.32760296591E+03  0.69074743857E+02  0.34701783733E+03  0.72798206735E+02 0.  0.
         13    1    3    3    0    0  0.63720486266E+02 -0.17277736459E+03  0.25264661560E+02  0.18587797397E+03  0.00000000000E+00 0. -1.
        -13    1    3    3    0    0 -0.87043339654E+01 -0.15482560132E+03  0.43810082297E+02  0.16113986336E+03  0.00000000000E+00 0.  1.
         22    1    1    2    0    0 -0.55016152301E+02  0.32760296591E+03  0.33498281868E+03  0.47176685884E+03  0.00000000000E+00 0.  1.
<mgrwt>
<rscale>  0 0.71214174E+03</rscale>
<asrwt>0</asrwt>
<pdfrwt beam="1">  1        1 0.94064788E-01 0.71214174E+03</pdfrwt>
<pdfrwt beam="2">  1       -1 0.31902087E-01 0.71214174E+03</pdfrwt>
<totfact> 0.30857601E+02</totfact>
</mgrwt>
</event>
<event>
 6    1  0.5026615E-004  0.2430663E+04  0.7818608E-02  0.8428112E-01
          1   -1    0    0  501    0  0.00000000000E+00  0.00000000000E+00  0.11655915108E+04  0.11655915108E+04  0.00000000000E+00 0.  1.
         -1   -1    0    0    0  501 -0.00000000000E+00 -0.00000000000E+00 -0.12671943309E+04  0.12671943309E+04  0.00000000000E+00 0. -1.
         23    2    1    2    0    0 -0.75124001669E+03  0.79919584059E+03 -0.57057630297E+03  0.12398853086E+04  0.93181042171E+02 0.  0.
         13    1    3    3    0    0 -0.53907588610E+03  0.58322171240E+03 -0.45856015668E+03  0.91707567522E+03  0.00000000000E+00 0.  1.
        -13    1    3    3    0    0 -0.21216413060E+03  0.21597412820E+03 -0.11201614629E+03  0.32280963336E+03  0.00000000000E+00 0. -1.
         22    1    1    2    0    0  0.75124001669E+03 -0.79919584059E+03  0.46897348284E+03  0.11929005331E+04  0.00000000000E+00 0.  1.
<mgrwt>
<rscale>  0 0.24306632E+04</rscale>
<asrwt>0</asrwt>
<pdfrwt beam="1">  1        1 0.17932177E+00 0.24306632E+04</pdfrwt>
<pdfrwt beam="2">  1       -1 0.19495298E+00 0.24306632E+04</pdfrwt>
<totfact> 0.16515989E+00</totfact>
</mgrwt>
</event>
<event>
 6    1  0.5026615E-004  0.8185936E+03  0.7818608E-02  0.9533487E-01
          2   -1    0    0  501    0  0.00000000000E+00  0.00000000000E+00  0.12329792537E+04  0.12329792537E+04  0.00000000000E+00 0.  1.
         -2   -1    0    0    0  501 -0.00000000000E+00 -0.00000000000E+00 -0.13586918098E+03  0.13586918098E+03  0.00000000000E+00 0. -1.
         23    2    1    2    0    0 -0.29006321300E+03  0.15853258732E+03  0.94449263907E+03  0.10047587070E+04  0.90578503081E+02 0.  0.
         13    1    3    3    0    0 -0.25962105251E+03  0.14498130397E+03  0.73901016615E+03  0.79659192507E+03  0.00000000000E+00 0. -1.
        -13    1    3    3    0    0 -0.30442160485E+02  0.13551283349E+02  0.20548247291E+03  0.20816678191E+03  0.00000000000E+00 0.  1.
         22    1    1    2    0    0  0.29006321300E+03 -0.15853258732E+03  0.15261743368E+03  0.36408972773E+03  0.00000000000E+00 0. -1.
<mgrwt>
<rscale>  0 0.81859363E+03</rscale>
<asrwt>0</asrwt>
<pdfrwt beam="1">  1        2 0.18968911E+00 0.81859363E+03</pdfrwt>
<pdfrwt beam="2">  1       -2 0.20902952E-01 0.81859363E+03</pdfrwt>
<totfact> 0.35938550E+02</totfact>
</mgrwt>
</event>
<event>
 6    1  0.5026615E-004  0.1832440E+04  0.7818608E-02  0.8689236E-01
          2   -1    0    0  501    0  0.00000000000E+00  0.00000000000E+00  0.12706302465E+04  0.12706302465E+04  0.00000000000E+00 0.  1.
         -2   -1    0    0    0  501 -0.00000000000E+00 -0.00000000000E+00 -0.66066327767E+03  0.66066327767E+03  0.00000000000E+00 0. -1.
         23    2    1    2    0    0 -0.20307352552E+03 -0.49631073269E+03 -0.47386493393E+03  0.72205624654E+03  0.96197959462E+02 0.  0.
         11    1    3    3    0    0 -0.14248674844E+03 -0.22962706890E+03 -0.21272872462E+03  0.34392524555E+03  0.00000000000E+00 0. -1.
        -11    1    3    3    0    0 -0.60586777076E+02 -0.26668366379E+03 -0.26113620931E+03  0.37813100098E+03  0.00000000000E+00 0.  1.
         22    1    1    2    0    0  0.20307352552E+03  0.49631073269E+03  0.10838319027E+04  0.12092372776E+04  0.00000000000E+00 0.  1.
<mgrwt>
<rscale>  0 0.18324396E+04</rscale>
<asrwt>0</asrwt>
<pdfrwt beam="1">  1        2 0.19548158E+00 0.18324396E+04</pdfrwt>
<pdfrwt beam="2">  1       -2 0.10164050E+00 0.18324396E+04</pdfrwt>
<totfact> 0.12871298E+01</totfact>
</mgrwt>
</event>
<event>
 6    1  0.5026615E-004  0.2226095E+04  0.7818608E-02  0.8507645E-01
          2   -1    0    0  501    0  0.00000000000E+00  0.00000000000E+00  0.10146428090E+04  0.10146428090E+04  0.00000000000E+00 0.  1.
         -2   -1    0    0    0  501 -0.00000000000E+00 -0.00000000000E+00 -0.12209962337E+04  0.12209962337E+04  0.00000000000E+00 0. -1.
         23    2    1    2    0    0  0.95635171675E+03  0.54439765085E+03 -0.25818659581E+03  0.11339748080E+04  0.90890805791E+02 0.  0.
         11    1    3    3    0    0  0.28762813592E+03  0.12138715619E+03 -0.54742182829E+02  0.31695661035E+03  0.00000000000E+00 0. -1.
        -11    1    3    3    0    0  0.66872358083E+03  0.42301049466E+03 -0.20344441298E+03  0.81701819767E+03  0.00000000000E+00 0.  1.
         22    1    1    2    0    0 -0.95635171675E+03 -0.54439765085E+03  0.51833171069E+02  0.11016642347E+04  0.00000000000E+00 0.  1.
<mgrwt>
<rscale>  0 0.22260953E+04</rscale>
<asrwt>0</asrwt>
<pdfrwt beam="1">  1        2 0.15609889E+00 0.22260953E+04</pdfrwt>
<pdfrwt beam="2">  1       -2 0.18784558E+00 0.22260953E+04</pdfrwt>
<totfact> 0.36024947E+00</totfact>
</mgrwt>
</event>
<event>
 6    1  0.5026615E-004  0.3021875E+04  0.7818608E-02  0.8237512E-01
          2   -1    0    0  501    0  0.00000000000E+00  0.00000000000E+00  0.23254609738E+04  0.23254609738E+04  0.00000000000E+00 0.  1.
         -2   -1    0    0    0  501 -0.00000000000E+00 -0.00000000000E+00 -0.98171180078E+03  0.98171180078E+03  0.00000000000E+00 0. -1.
         23    2    1    2    0    0 -0.10948762612E+04  0.69674186340E+03 -0.17189745548E+03  0.13118312113E+04  0.84552589102E+02 0.  0.
         11    1    3    3    0    0 -0.35499853070E+03  0.18506587327E+03 -0.34489081443E+02  0.40182437829E+03  0.00000000000E+00 0.  1.
        -11    1    3    3    0    0 -0.73987773047E+03  0.51167599013E+03 -0.13740837404E+03  0.91000683304E+03  0.00000000000E+00 0. -1.
         22    1    1    2    0    0  0.10948762612E+04 -0.69674186340E+03  0.15156466285E+04  0.19953415632E+04  0.00000000000E+00 0.  1.
<mgrwt>
<rscale>  0 0.30218752E+04</rscale>
<asrwt>0</asrwt>
<pdfrwt beam="1">  1        2 0.35776322E+00 0.30218752E+04</pdfrwt>
<pdfrwt beam="2">  1       -2 0.15103259E+00 0.30218752E+04</pdfrwt>
<totfact> 0.11022663E+00</totfact>
</mgrwt>
</event>
<event>
 6    1  0.5026615E-004  0.2257139E+04  0.7818608E-02  0.8495015E-01
          2   -1    0    0  501    0  0.00000000000E+00  0.00000000000E+00  0.27750190140E+04  0.27750190140E+04  0.00000000000E+00 0.  1.
         -2   -1    0    0    0  501 -0.00000000000E+00 -0.00000000000E+00 -0.45897665306E+03  0.45897665306E+03  0.00000000000E+00 0. -1.
         23    2    1    2    0    0 -0.62843600810E+03  0.18586108353E+03  0.24731802917E+04  0.25600754285E+04  0.88821651131E+02 0.  0.
         11    1    3    3    0    0 -0.54002768383E+03  0.15314820605E+03  0.22215249334E+04  0.22913439947E+04  0.00000000000E+00 0.  1.
        -11    1    3    3    0    0 -0.88408324270E+02  0.32712877474E+02  0.25165535833E+03  0.26873143383E+03  0.00000000000E+00 0. -1.
         22    1    1    2    0    0  0.62843600810E+03 -0.18586108353E+03 -0.15713793076E+03  0.67392023855E+03  0.00000000000E+00 0. -1.
<mgrwt>
<rscale>  0 0.22571388E+04</rscale>
<asrwt>0</asrwt>
<pdfrwt beam="1">  1        2 0.42692599E+00 0.22571388E+04</pdfrwt>
<pdfrwt beam="2">  1       -2 0.70611794E-01 0.22571388E+04</pdfrwt>
<totfact> 0.39744460E+00</totfact>
</mgrwt>
</event>
<event>
 6    1  0.5026615E-004  0.2954086E+04  0.7818608E-02  0.8256965E-01
         -4   -1    0    0    0  501 -0.00000000000E+00  0.00000000000E+00  0.21368307606E+04  0.21368307606E+04  0.00000000000E+00 0. -1.
          4   -1    0    0  501    0  0.00000000000E+00 -0.00000000000E+00 -0.10209775424E+04  0.10209775424E+04  0.00000000000E+00 0.  1.
         23    2    1    2    0    0  0.10935746728E+04  0.34514093001E+03 -0.43453810356E+03  0.12294045390E+04  0.87088060631E+02 0.  0.
         11    1    3    3    0    0  0.43423457960E+03  0.17222121546E+03 -0.20517038460E+03  0.51021045059E+03  0.00000000000E+00 0.  1.
        -11    1    3    3    0    0  0.65934009325E+03  0.17291971455E+03 -0.22936771897E+03  0.71919408837E+03  0.00000000000E+00 0. -1.
         22    1    1    2    0    0 -0.10935746728E+04 -0.34514093001E+03  0.15503913218E+04  0.19284037641E+04  0.00000000000E+00 0. -1.
<mgrwt>
<rscale>  0 0.29540861E+04</rscale>
<asrwt>0</asrwt>
<pdfrwt beam="1">  1        4 0.15707347E+00 0.29540861E+04</pdfrwt>
<pdfrwt beam="2">  1       -4 0.32874319E+00 0.29540861E+04</pdfrwt>
<totfact> 0.91318551E-03</totfact>
</mgrwt>
</event>
<event>
 6    1  0.5026615E-004  0.1250236E+04  0.7818608E-02  0.9069987E-01
         -2   -1    0    0    0  501 -0.00000000000E+00  0.00000000000E+00  0.28582592952E+03  0.28582592952E+03  0.00000000000E+00 0. -1.
          2   -1    0    0  501    0  0.00000000000E+00 -0.00000000000E+00 -0.13671701327E+04  0.13671701327E+04  0.00000000000E+00 0.  1.
         23    2    1    2    0    0  0.23681595070E+03 -0.48678696866E+03 -0.94819722562E+03  0.10955272604E+04  0.89769996148E+02 0.  0.
         13    1    3    3    0    0  0.13311779965E+03 -0.24965949941E+03 -0.58171706444E+03  0.64687321578E+03  0.00000000000E+00 0. -1.
        -13    1    3    3    0    0  0.10369815105E+03 -0.23712746925E+03 -0.36648016118E+03  0.44865404461E+03  0.00000000000E+00 0.  1.
         22    1    1    2    0    0 -0.23681595070E+03  0.48678696866E+03 -0.13314697753E+03  0.55746880180E+03  0.00000000000E+00 0. -1.
<mgrwt>
<rscale>  0 0.12502363E+04</rscale>
<asrwt>0</asrwt>
<pdfrwt beam="1">  1        2 0.21033387E+00 0.12502363E+04</pdfrwt>
<pdfrwt beam="2">  1       -2 0.43973220E-01 0.12502363E+04</pdfrwt>
<totfact> 0.72861248E+01</totfact>
</mgrwt>
</event>
<event>
 6    1  0.5026615E-004  0.5300813E+04  0.7818608E-02  0.7783708E-01
          2   -1    0    0  501    0  0.00000000000E+00  0.00000000000E+00  0.31412910634E+04  0.31412910634E+04  0.00000000000E+00 0.  1.
         -2   -1    0    0    0  501 -0.00000000000E+00 -0.00000000000E+00 -0.22362316001E+04  0.22362316001E+04  0.00000000000E+00 0. -1.
         23    2    1    2    0    0 -0.20095541171E+04 -0.16398194490E+04 -0.97130707768E+02  0.25969290733E+04  0.85385376382E+02 0.  0.
         11    1    3    3    0    0 -0.78754610345E+03 -0.59049580010E+03 -0.27684974457E+02  0.98472362255E+03  0.00000000000E+00 0.  1.
        -11    1    3    3    0    0 -0.12220080136E+04 -0.10493236489E+04 -0.69445733310E+02  0.16122054507E+04  0.00000000000E+00 0. -1.
         22    1    1    2    0    0  0.20095541171E+04  0.16398194490E+04  0.10021901711E+04  0.27805935902E+04  0.00000000000E+00 0.  1.
<mgrwt>
<rscale>  0 0.53008129E+04</rscale>
<asrwt>0</asrwt>
<pdfrwt beam="1">  1        2 0.48327555E+00 0.53008129E+04</pdfrwt>
<pdfrwt beam="2">  1       -2 0.34403563E+00 0.53008129E+04</pdfrwt>
<totfact> 0.17059436E-02</totfact>
</mgrwt>
</event>
<event>
 6    1  0.5026615E-004  0.2009393E+04  0.7818608E-02  0.8602242E-01
          2   -1    0    0  501    0  0.00000000000E+00  0.00000000000E+00  0.83806627845E+03  0.83806627845E+03  0.00000000000E+00 0.  1.
         -2   -1    0    0    0  501 -0.00000000000E+00 -0.00000000000E+00 -0.12044573048E+04  0.12044573048E+04  0.00000000000E+00 0. -1.
         23    2    1    2    0    0  0.53574522287E+03  0.51712830421E+03 -0.86610241205E+03  0.11457760738E+04  0.90690662709E+02 0.  0.
         13    1    3    3    0    0  0.39032024696E+03  0.41499276384E+03 -0.69991703725E+03  0.90247035866E+03  0.00000000000E+00 0.  1.
        -13    1    3    3    0    0  0.14542497591E+03  0.10213554037E+03 -0.16618537479E+03  0.24330571514E+03  0.00000000000E+00 0. -1.
         22    1    1    2    0    0 -0.53574522287E+03 -0.51712830421E+03  0.49971138565E+03  0.89674750950E+03  0.00000000000E+00 0.  1.
<mgrwt>
<rscale>  0 0.20093930E+04</rscale>
<asrwt>0</asrwt>
<pdfrwt beam="1">  1        2 0.12893327E+00 0.20093930E+04</pdfrwt>
<pdfrwt beam="2">  1       -2 0.18530112E+00 0.20093930E+04</pdfrwt>
<totfact> 0.50069999E+00</totfact>
</mgrwt>
</event>
<event>
 6    1  0.5026615E-004  0.5857922E+03  0.7818608E-02  0.9935329E-01
         -2   -1    0    0    0  501 -0.00000000000E+00  0.00000000000E+00  0.79727357225E+02  0.79727357225E+02  0.00000000000E+00 0. -1.
          2   -1    0    0  501    0  0.00000000000E+00 -0.00000000000E+00 -0.10760187442E+04  0.10760187442E+04  0.00000000000E+00 0.  1.
         23    2    1    2    0    0  0.17498209550E+03  0.42500407174E+02 -0.73983344631E+02  0.21602425783E+03  0.93637205916E+02 0.  0.
         13    1    3    3    0    0  0.42198956817E+02  0.13310118938E+01 -0.63968184739E+02  0.76644975099E+02  0.00000000000E+00 0. -1.
        -13    1    3    3    0    0  0.13278313869E+03  0.41169395280E+02 -0.10015159892E+02  0.13937928273E+03  0.00000000000E+00 0.  1.
         22    1    1    2    0    0 -0.17498209550E+03 -0.42500407174E+02 -0.92230804236E+03  0.93972184361E+03  0.00000000000E+00 0.  1.
<mgrwt>
<rscale>  0 0.58579222E+03</rscale>
<asrwt>0</asrwt>
<pdfrwt beam="1">  1        2 0.16554134E+00 0.58579222E+03</pdfrwt>
<pdfrwt beam="2">  1       -2 0.12265748E-01 0.58579222E+03</pdfrwt>
<totfact> 0.11169264E+03</totfact>
</mgrwt>
</event>
<event>
 6    1  0.5026615E-004  0.3255295E+04  0.7818608E-02  0.8174365E-01
          2   -1    0    0  501    0  0.00000000000E+00  0.00000000000E+00  0.33414754048E+04  0.33414754048E+04  0.00000000000E+00 0.  1.
         -2   -1    0    0    0  501 -0.00000000000E+00 -0.00000000000E+00 -0.79283448302E+03  0.79283448302E+03  0.00000000000E+00 0. -1.
         23    2    1    2    0    0  0.13100986505E+04  0.76226123636E+03  0.52660482907E+03  0.16072502078E+04  0.92411676671E+02 0.  0.
         13    1    3    3    0    0  0.49091376309E+03  0.33694766718E+03  0.19778461913E+03  0.62741438362E+03  0.00000000000E+00 0.  1.
        -13    1    3    3    0    0  0.81918488736E+03  0.42531356918E+03  0.32882020994E+03  0.97983582414E+03  0.00000000000E+00 0. -1.
         22    1    1    2    0    0 -0.13100986505E+04 -0.76226123636E+03  0.20220360928E+04  0.25270596801E+04  0.00000000000E+00 0.  1.
<mgrwt>
<rscale>  0 0.32552953E+04</rscale>
<asrwt>0</asrwt>
<pdfrwt beam="1">  1        2 0.51407313E+00 0.32552953E+04</pdfrwt>
<pdfrwt beam="2">  1       -2 0.12197454E+00 0.32552953E+04</pdfrwt>
<totfact> 0.44596016E-01</totfact>
</mgrwt>
</event>
<event>
 6    1  0.5026615E-004  0.1426482E+04  0.7818608E-02  0.8934870E-01
         -2   -1    0    0    0  501 -0.00000000000E+00  0.00000000000E+00  0.65607702086E+03  0.65607702086E+03  0.00000000000E+00 0. -1.
          2   -1    0    0  501    0  0.00000000000E+00 -0.00000000000E+00 -0.77538557528E+03  0.77538557528E+03  0.00000000000E+00 0.  1.
         23    2    1    2    0    0  0.22261969554E+03 -0.66023369385E+03  0.78405908278E+02  0.70719809467E+03  0.92269167708E+02 0.  0.
         11    1    3    3    0    0  0.71545620312E+02 -0.31906934128E+03  0.55794120163E+01  0.32703998252E+03  0.00000000000E+00 0.  1.
        -11    1    3    3    0    0  0.15107407523E+03 -0.34116435258E+03  0.72826496262E+02  0.38015811215E+03  0.00000000000E+00 0. -1.
         22    1    1    2    0    0 -0.22261969554E+03  0.66023369385E+03 -0.19771446270E+03  0.72426450148E+03  0.00000000000E+00 0. -1.
<mgrwt>
<rscale>  0 0.14264819E+04</rscale>
<asrwt>0</asrwt>
<pdfrwt beam="1">  1        2 0.11929009E+00 0.14264819E+04</pdfrwt>
<pdfrwt beam="2">  1       -2 0.10093493E+00 0.14264819E+04</pdfrwt>
<totfact> 0.28184004E+01</totfact>
</mgrwt>
</event>
<event>
 6    1  0.5026615E-004  0.1100796E+04  0.7818608E-02  0.9204416E-01
          2   -1    0    0  501    0  0.00000000000E+00  0.00000000000E+00  0.20201980598E+04  0.20201980598E+04  0.00000000000E+00 0.  1.
         -2   -1    0    0    0  501 -0.00000000000E+00 -0.00000000000E+00 -0.14995461314E+03  0.14995461314E+03  0.00000000000E+00 0. -1.
         23    2    1    2    0    0  0.20805150137E+03 -0.48830303809E+03  0.68222650584E+03  0.86895724722E+03  0.89041608218E+02 0.  0.
         11    1    3    3    0    0 -0.61179396423E+01 -0.32228527066E+02  0.59256082434E+02  0.67730277186E+02  0.00000000000E+00 0. -1.
        -11    1    3    3    0    0  0.21416944102E+03 -0.45607451102E+03  0.62297042340E+03  0.80122697003E+03  0.00000000000E+00 0.  1.
         22    1    1    2    0    0 -0.20805150137E+03  0.48830303809E+03  0.11880169409E+04  0.13011954258E+04  0.00000000000E+00 0.  1.
<mgrwt>
<rscale>  0 0.11007961E+04</rscale>
<asrwt>0</asrwt>
<pdfrwt beam="1">  1        2 0.31079968E+00 0.11007961E+04</pdfrwt>
<pdfrwt beam="2">  1       -2 0.23069942E-01 0.11007961E+04</pdfrwt>
<totfact> 0.10745586E+02</totfact>
</mgrwt>
</event>
<event>
 6    1  0.5026615E-004  0.1316963E+04  0.7818608E-02  0.9016220E-01
          1   -1    0    0  501    0  0.00000000000E+00  0.00000000000E+00  0.74670921588E+03  0.74670921588E+03  0.00000000000E+00 0.  1.
         -1   -1    0    0    0  501 -0.00000000000E+00 -0.00000000000E+00 -0.58067858665E+03  0.58067858665E+03  0.00000000000E+00 0. -1.
         23    2    1    2    0    0  0.37542215120E+02 -0.48492828386E+03 -0.35911639022E+03  0.61160553784E+03  0.92368250945E+02 0.  0.
         13    1    3    3    0    0  0.69015319070E+01 -0.26199343420E+03 -0.24723623968E+03  0.36029702874E+03  0.00000000000E+00 0.  1.
        -13    1    3    3    0    0  0.30640683213E+02 -0.22293484965E+03 -0.11188015055E+03  0.25130850910E+03  0.00000000000E+00 0. -1.
         22    1    1    2    0    0 -0.37542215120E+02  0.48492828386E+03  0.52514701945E+03  0.71578226469E+03  0.00000000000E+00 0.  1.
<mgrwt>
<rscale>  0 0.13169633E+04</rscale>
<asrwt>0</asrwt>
<pdfrwt beam="1">  1        1 0.11487834E+00 0.13169633E+04</pdfrwt>
<pdfrwt beam="2">  1       -1 0.89335167E-01 0.13169633E+04</pdfrwt>
<totfact> 0.29728336E+01</totfact>
</mgrwt>
</event>
<event>
 6    1  0.5026615E-004  0.8620603E+03  0.7818608E-02  0.9474291E-01
         -2   -1    0    0    0  501 -0.00000000000E+00  0.00000000000E+00  0.14596442060E+03  0.14596442060E+03  0.00000000000E+00 0. -1.
          2   -1    0    0  501    0  0.00000000000E+00 -0.00000000000E+00 -0.12728239029E+04  0.12728239029E+04  0.00000000000E+00 0.  1.
         23    2    1    2    0    0  0.39465045330E+03 -0.15962632305E+03 -0.52521082495E+03  0.68176006748E+03  0.87868285912E+02 0.  0.
         13    1    3    3    0    0  0.10917348535E+03 -0.34400170809E+02 -0.20547651535E+03  0.23520803561E+03  0.00000000000E+00 0.  1.
        -13    1    3    3    0    0  0.28547696795E+03 -0.12522615224E+03 -0.31973430960E+03  0.44655203187E+03  0.00000000000E+00 0. -1.
         22    1    1    2    0    0 -0.39465045330E+03  0.15962632305E+03 -0.60164865737E+03  0.73702825604E+03  0.00000000000E+00 0.  1.
<mgrwt>
<rscale>  0 0.86206033E+03</rscale>
<asrwt>0</asrwt>
<pdfrwt beam="1">  1        2 0.19581906E+00 0.86206033E+03</pdfrwt>
<pdfrwt beam="2">  1       -2 0.22456065E-01 0.86206033E+03</pdfrwt>
<totfact> 0.29930005E+02</totfact>
</mgrwt>
</event>
<event>
 6    1  0.5026615E-004  0.2273624E+04  0.7818608E-02  0.8488394E-01
          2   -1    0    0  501    0  0.00000000000E+00  0.00000000000E+00  0.17905408354E+04  0.17905408354E+04  0.00000000000E+00 0.  1.
         -2   -1    0    0    0  501 -0.00000000000E+00 -0.00000000000E+00 -0.72176029077E+03  0.72176029077E+03  0.00000000000E+00 0. -1.
         23    2    1    2    0    0 -0.79666491520E+03 -0.25246878760E+03 -0.31329965021E+03  0.89719706116E+03  0.91599235250E+02 0.  0.
         13    1    3    3    0    0 -0.22699894016E+03 -0.94289160066E+02 -0.13087754793E+03  0.27847423057E+03  0.00000000000E+00 0.  1.
        -13    1    3    3    0    0 -0.56966597504E+03 -0.15817962753E+03 -0.18242210228E+03  0.61872283058E+03  0.00000000000E+00 0. -1.
         22    1    1    2    0    0  0.79666491520E+03  0.25246878760E+03  0.13820801948E+04  0.16151040650E+04  0.00000000000E+00 0.  1.
<mgrwt>
<rscale>  0 0.22736238E+04</rscale>
<asrwt>0</asrwt>
<pdfrwt beam="1">  1        2 0.27546782E+00 0.22736238E+04</pdfrwt>
<pdfrwt beam="2">  1       -2 0.11104005E+00 0.22736238E+04</pdfrwt>
<totfact> 0.50961601E+00</totfact>
</mgrwt>
</event>
<event>
 6    1  0.5026615E-004  0.1976734E+04  0.7818608E-02  0.8617576E-01
         -2   -1    0    0    0  501 -0.00000000000E+00  0.00000000000E+00  0.48492393844E+03  0.48492393844E+03  0.00000000000E+00 0. -1.
          2   -1    0    0  501    0  0.00000000000E+00 -0.00000000000E+00 -0.20144792315E+04  0.20144792315E+04  0.00000000000E+00 0.  1.
         23    2    1    2    0    0  0.40602073851E+02 -0.86122743901E+03 -0.13718265728E+04  0.16229103980E+04  0.92567726194E+02 0.  0.
         13    1    3    3    0    0 -0.23008690784E+02 -0.37573357548E+03 -0.63620934318E+03  0.73923436604E+03  0.00000000000E+00 0.  1.
        -13    1    3    3    0    0  0.63610764636E+02 -0.48549386353E+03 -0.73561722959E+03  0.88367603191E+03  0.00000000000E+00 0. -1.
         22    1    1    2    0    0 -0.40602073851E+02  0.86122743901E+03 -0.15772872028E+03  0.87649277196E+03  0.00000000000E+00 0. -1.
<mgrwt>
<rscale>  0 0.19767339E+04</rscale>
<asrwt>0</asrwt>
<pdfrwt beam="1">  1        2 0.30991988E+00 0.19767339E+04</pdfrwt>
<pdfrwt beam="2">  1       -2 0.74603682E-01 0.19767339E+04</pdfrwt>
<totfact> 0.98622962E+00</totfact>
</mgrwt>
</event>
<event>
 6    1  0.5026615E-004  0.1336438E+04  0.7818608E-02  0.9001158E-01
          2   -1    0    0  501    0  0.00000000000E+00  0.00000000000E+00  0.13095636788E+04  0.13095636788E+04  0.00000000000E+00 0.  1.
         -2   -1    0    0    0  501 -0.00000000000E+00 -0.00000000000E+00 -0.34096589602E+03  0.34096589602E+03  0.00000000000E+00 0. -1.
         23    2    1    2    0    0 -0.42272365055E+03 -0.10856493236E+03  0.11065289633E+04  0.11928106220E+04  0.88933706079E+02 0.  0.
         11    1    3    3    0    0 -0.36208644335E+03 -0.12107091774E+03  0.98536608598E+03  0.10567455148E+04  0.00000000000E+00 0. -1.
        -11    1    3    3    0    0 -0.60637207203E+02  0.12505985382E+02  0.12116287731E+03  0.13606510723E+03  0.00000000000E+00 0.  1.
         22    1    1    2    0    0  0.42272365055E+03  0.10856493236E+03 -0.13793118046E+03  0.45771895287E+03  0.00000000000E+00 0. -1.
<mgrwt>
<rscale>  0 0.13364379E+04</rscale>
<asrwt>0</asrwt>
<pdfrwt beam="1">  1        2 0.20147133E+00 0.13364379E+04</pdfrwt>
<pdfrwt beam="2">  1       -2 0.52456292E-01 0.13364379E+04</pdfrwt>
<totfact> 0.54711462E+01</totfact>
</mgrwt>
</event>
<event>
 6    1  0.5026615E-004  0.1402258E+04  0.7818608E-02  0.8952185E-01
         -4   -1    0    0    0  501 -0.00000000000E+00  0.00000000000E+00  0.16123533008E+04  0.16123533008E+04  0.00000000000E+00 0. -1.
          4   -1    0    0  501    0  0.00000000000E+00 -0.00000000000E+00 -0.30488490042E+03  0.30488490042E+03  0.00000000000E+00 0.  1.
         23    2    1    2    0    0  0.32628909243E+03 -0.28362805264E+03 -0.94048789152E+02  0.45055491004E+03  0.85118200935E+02 0.  0.
         11    1    3    3    0    0  0.48168933050E+02 -0.44150055384E+02 -0.47102464688E+02  0.80548840348E+02  0.00000000000E+00 0.  1.
        -11    1    3    3    0    0  0.27812015938E+03 -0.23947799725E+03 -0.46946324463E+02  0.37000606969E+03  0.00000000000E+00 0. -1.
         22    1    1    2    0    0 -0.32628909243E+03  0.28362805264E+03  0.14015171895E+04  0.14666832911E+04  0.00000000000E+00 0. -1.
<mgrwt>
<rscale>  0 0.14022584E+04</rscale>
<asrwt>0</asrwt>
<pdfrwt beam="1">  1        4 0.46905370E-01 0.14022584E+04</pdfrwt>
<pdfrwt beam="2">  1       -4 0.24805435E+00 0.14022584E+04</pdfrwt>
<totfact> 0.55843108E-01</totfact>
</mgrwt>
</event>
<event>
 6    1  0.5026615E-004  0.1746694E+04  0.7818608E-02  0.8735172E-01
         -2   -1    0    0    0  501 -0.00000000000E+00  0.00000000000E+00  0.10394955346E+04  0.10394955346E+04  0.00000000000E+00 0. -1.
          2   -1    0    0  501    0  0.00000000000E+00 -0.00000000000E+00 -0.73375454675E+03  0.73375454675E+03  0.00000000000E+00 0.  1.
         23    2    1    2    0    0  0.10542594066E+03  0.79444735625E+03  0.50030208591E+03  0.94855907757E+03  0.84858209121E+02 0.  0.
         13    1    3    3    0    0 -0.81396410277E+01  0.21795413139E+03  0.14519870441E+03  0.26201702408E+03  0.00000000000E+00 0. -1.
        -13    1    3    3    0    0  0.11356558169E+03  0.57649322486E+03  0.35510338149E+03  0.68654205349E+03  0.00000000000E+00 0.  1.
         22    1    1    2    0    0 -0.10542594066E+03 -0.79444735625E+03 -0.19456109807E+03  0.82469100377E+03  0.00000000000E+00 0.  1.
<mgrwt>
<rscale>  0 0.17466935E+04</rscale>
<asrwt>0</asrwt>
<pdfrwt beam="1">  1        2 0.11288531E+00 0.17466935E+04</pdfrwt>
<pdfrwt beam="2">  1       -2 0.15992239E+00 0.17466935E+04</pdfrwt>
<totfact> 0.92197278E+00</totfact>
</mgrwt>
</event>
<event>
 6    1  0.5026615E-004  0.3123543E+04  0.7818608E-02  0.8209306E-01
         -2   -1    0    0    0  501 -0.00000000000E+00  0.00000000000E+00  0.10127779432E+04  0.10127779432E+04  0.00000000000E+00 0.  1.
          2   -1    0    0  501    0  0.00000000000E+00 -0.00000000000E+00 -0.24083571267E+04  0.24083571267E+04  0.00000000000E+00 0. -1.
         23    2    1    2    0    0  0.14400648503E+04 -0.58703832774E+03 -0.55628587017E+03  0.16539865088E+04  0.88411710319E+02 0.  0.
         11    1    3    3    0    0  0.33270341681E+03 -0.95956256709E+02 -0.12359256115E+03  0.36766056075E+03  0.00000000000E+00 0.  1.
        -11    1    3    3    0    0  0.11073614335E+04 -0.49108207103E+03 -0.43269330903E+03  0.12863259480E+04  0.00000000000E+00 0. -1.
         22    1    1    2    0    0 -0.14400648503E+04  0.58703832774E+03 -0.83929331331E+03  0.17671485611E+04  0.00000000000E+00 0.  1.
<mgrwt>
<rscale>  0 0.31235435E+04</rscale>
<asrwt>0</asrwt>
<pdfrwt beam="1">  1        2 0.37051648E+00 0.31235435E+04</pdfrwt>
<pdfrwt beam="2">  1       -2 0.15581199E+00 0.31235435E+04</pdfrwt>
<totfact> 0.90173484E-01</totfact>
</mgrwt>
</event>
<event>
 6    1  0.5026615E-004  0.2162308E+04  0.7818608E-02  0.8534282E-01
         -2   -1    0    0    0  501 -0.00000000000E+00  0.00000000000E+00  0.65559333981E+03  0.65559333981E+03  0.00000000000E+00 0. -1.
          2   -1    0    0  501    0  0.00000000000E+00 -0.00000000000E+00 -0.17829559688E+04  0.17829559688E+04  0.00000000000E+00 0.  1.
         23    2    1    2    0    0  0.85815668018E+03  0.31261331088E+03 -0.12108575952E+04  0.15214171594E+04  0.11989198103E+03 0.  0.
         13    1    3    3    0    0  0.51778949143E+03  0.14809640987E+03 -0.63591864371E+03  0.83332528191E+03  0.00000000000E+00 0.  1.
        -13    1    3    3    0    0  0.34036718874E+03  0.16451690101E+03 -0.57493895148E+03  0.68809187746E+03  0.00000000000E+00 0. -1.
         22    1    1    2    0    0 -0.85815668018E+03 -0.31261331088E+03  0.83494966165E+02  0.91713214928E+03  0.00000000000E+00 0. -1.
<mgrwt>
<rscale>  0 0.21623081E+04</rscale>
<asrwt>0</asrwt>
<pdfrwt beam="1">  1        2 0.27430091E+00 0.21623081E+04</pdfrwt>
<pdfrwt beam="2">  1       -2 0.10086052E+00 0.21623081E+04</pdfrwt>
<totfact> 0.65442886E+00</totfact>
</mgrwt>
</event>
<event>
 6    1  0.5026615E-004  0.2775492E+04  0.7818608E-02  0.8310918E-01
          2   -1    0    0  501    0  0.00000000000E+00  0.00000000000E+00  0.18372318334E+04  0.18372318334E+04  0.00000000000E+00 0.  1.
         -2   -1    0    0    0  501 -0.00000000000E+00 -0.00000000000E+00 -0.10482286786E+04  0.10482286786E+04  0.00000000000E+00 0. -1.
         23    2    1    2    0    0  0.37310553332E+03 -0.57263184077E+03  0.16487872155E+04  0.17871237717E+04  0.90537999143E+02 0.  0.
         13    1    3    3    0    0  0.31306878951E+02 -0.16945220390E+02  0.11417880694E+03  0.11959958661E+03  0.00000000000E+00 0. -1.
        -13    1    3    3    0    0  0.34179865436E+03 -0.55568662038E+03  0.15346084086E+04  0.16675241851E+04  0.00000000000E+00 0.  1.
         22    1    1    2    0    0 -0.37310553332E+03  0.57263184077E+03 -0.85978406069E+03  0.10983367403E+04  0.00000000000E+00 0. -1.
<mgrwt>
<rscale>  0 0.27754921E+04</rscale>
<asrwt>0</asrwt>
<pdfrwt beam="1">  1        2 0.28265105E+00 0.27754921E+04</pdfrwt>
<pdfrwt beam="2">  1       -2 0.16126595E+00 0.27754921E+04</pdfrwt>
<totfact> 0.17688024E+00</totfact>
</mgrwt>
</event>
<event>
 6    1  0.5026615E-004  0.6279302E+04  0.7818608E-02  0.7656704E-01
         -2   -1    0    0    0  501 -0.00000000000E+00  0.00000000000E+00  0.24019551817E+04  0.24019551817E+04  0.00000000000E+00 0. -1.
          2   -1    0    0  501    0  0.00000000000E+00 -0.00000000000E+00 -0.41039107310E+04  0.41039107310E+04  0.00000000000E+00 0.  1.
         23    2    1    2    0    0 -0.15887799688E+04  0.70973721363E+03 -0.35579870237E+04  0.39616958051E+04  0.88392812837E+02 0.  0.
         11    1    3    3    0    0 -0.11719444380E+04  0.54910433931E+03 -0.25736894502E+04  0.28807718978E+04  0.00000000000E+00 0. -1.
        -11    1    3    3    0    0 -0.41683553086E+03  0.16063287433E+03 -0.98429757353E+03  0.10809239073E+04  0.00000000000E+00 0.  1.
         22    1    1    2    0    0  0.15887799688E+04 -0.70973721363E+03  0.18560314745E+04  0.25441701075E+04  0.00000000000E+00 0. -1.
<mgrwt>
<rscale>  0 0.62793024E+04</rscale>
<asrwt>0</asrwt>
<pdfrwt beam="1">  1        2 0.63137088E+00 0.62793024E+04</pdfrwt>
<pdfrwt beam="2">  1       -2 0.36953156E+00 0.62793024E+04</pdfrwt>
<totfact> 0.21497614E-03</totfact>
</mgrwt>
</event>
<event>
 6    1  0.5026615E-004  0.3507751E+04  0.7818608E-02  0.8111955E-01
         -2   -1    0    0    0  501 -0.00000000000E+00  0.00000000000E+00  0.22054531782E+04  0.22054531782E+04  0.00000000000E+00 0. -1.
          2   -1    0    0  501    0  0.00000000000E+00 -0.00000000000E+00 -0.13947608852E+04  0.13947608852E+04  0.00000000000E+00 0.  1.
         23    2    1    2    0    0  0.72723661120E+03 -0.70062092897E+03 -0.10642082835E+04  0.14706613060E+04  0.10277466448E+03 0.  0.
         13    1    3    3    0    0  0.55310999947E+03 -0.47085018765E+03 -0.74397111387E+03  0.10397709310E+04  0.00000000000E+00 0.  1.
        -13    1    3    3    0    0  0.17412661173E+03 -0.22977074132E+03 -0.32023716963E+03  0.43089037503E+03  0.00000000000E+00 0. -1.
         22    1    1    2    0    0 -0.72723661120E+03  0.70062092897E+03  0.18749005765E+04  0.21295527574E+04  0.00000000000E+00 0. -1.
<mgrwt>
<rscale>  0 0.35077513E+04</rscale>
<asrwt>0</asrwt>
<pdfrwt beam="1">  1        2 0.21457860E+00 0.35077513E+04</pdfrwt>
<pdfrwt beam="2">  1       -2 0.33930049E+00 0.35077513E+04</pdfrwt>
<totfact> 0.21725934E-01</totfact>
</mgrwt>
</event>
<event>
 6    1  0.5026615E-004  0.1017937E+04  0.7818608E-02  0.9289088E-01
          2   -1    0    0  501    0  0.00000000000E+00  0.00000000000E+00  0.70244564562E+03  0.70244564562E+03  0.00000000000E+00 0.  1.
         -2   -1    0    0    0  501 -0.00000000000E+00 -0.00000000000E+00 -0.36878136907E+03  0.36878136907E+03  0.00000000000E+00 0. -1.
         23    2    1    2    0    0  0.10644677729E+03  0.31412071183E+03 -0.23261553245E+03  0.41496825469E+03  0.89921790863E+02 0.  0.
         11    1    3    3    0    0  0.58581318009E+02  0.27208511973E+03 -0.17290313762E+03  0.32765466301E+03  0.00000000000E+00 0.  1.
        -11    1    3    3    0    0  0.47865459283E+02  0.42035592101E+02 -0.59712394831E+02  0.87313591680E+02  0.00000000000E+00 0. -1.
         22    1    1    2    0    0 -0.10644677729E+03 -0.31412071183E+03  0.56627980900E+03  0.65625876000E+03  0.00000000000E+00 0.  1.
<mgrwt>
<rscale>  0 0.10179369E+04</rscale>
<asrwt>0</asrwt>
<pdfrwt beam="1">  1        2 0.10806856E+00 0.10179369E+04</pdfrwt>
<pdfrwt beam="2">  1       -2 0.56735595E-01 0.10179369E+04</pdfrwt>
<totfact> 0.11859980E+02</totfact>
</mgrwt>
</event>
<event>
 6    1  0.5026615E-004  0.1962353E+04  0.7818608E-02  0.8624427E-01
         -2   -1    0    0    0  501 -0.00000000000E+00  0.00000000000E+00  0.41545842487E+03  0.41545842487E+03  0.00000000000E+00 0. -1.
          2   -1    0    0  501    0  0.00000000000E+00 -0.00000000000E+00 -0.23172175333E+04  0.23172175333E+04  0.00000000000E+00 0.  1.
         23    2    1    2    0    0  0.47595089176E+03 -0.69814329646E+03 -0.26406700566E+03  0.88986052053E+03  0.90482311775E+02 0.  0.
         13    1    3    3    0    0  0.32212127454E+03 -0.49892085505E+03 -0.14447425205E+03  0.61119305021E+03  0.00000000000E+00 0.  1.
        -13    1    3    3    0    0  0.15382961723E+03 -0.19922244141E+03 -0.11959275361E+03  0.27866747032E+03  0.00000000000E+00 0. -1.
         22    1    1    2    0    0 -0.47595089176E+03  0.69814329646E+03 -0.16376921028E+04  0.18428154377E+04  0.00000000000E+00 0.  1.
<mgrwt>
<rscale>  0 0.19623532E+04</rscale>
<asrwt>0</asrwt>
<pdfrwt beam="1">  1        2 0.35649500E+00 0.19623532E+04</pdfrwt>
<pdfrwt beam="2">  1       -2 0.63916682E-01 0.19623532E+04</pdfrwt>
<totfact> 0.93518064E+00</totfact>
</mgrwt>
</event>
<event>
 6    1  0.5189486E-004  0.2542231E+04  0.7818608E-02  0.8388093E-01
         -2   -1    0    0    0  501 -0.00000000000E+00  0.00000000000E+00  0.58897752858E+03  0.58897752858E+03  0.00000000000E+00 0.  1.
          2   -1    0    0  501    0  0.00000000000E+00 -0.00000000000E+00 -0.27432868820E+04  0.27432868820E+04  0.00000000000E+00 0. -1.
         23    2    1    2    0    0  0.97194340880E+03  0.44658504389E+03 -0.19747027586E+04  0.22476581593E+04  0.91673469065E+02 0.  0.
         11    1    3    3    0    0  0.49893265555E+03  0.18526977190E+03 -0.93284075264E+03  0.10739881531E+04  0.00000000000E+00 0.  1.
        -11    1    3    3    0    0  0.47301075326E+03  0.26131527199E+03 -0.10418620060E+04  0.11736700063E+04  0.00000000000E+00 0. -1.
         22    1    1    2    0    0 -0.97194340880E+03 -0.44658504389E+03 -0.17960659478E+03  0.10846062512E+04  0.00000000000E+00 0.  1.
<mgrwt>
<rscale>  0 0.25422308E+04</rscale>
<asrwt>0</asrwt>
<pdfrwt beam="1">  1        2 0.42204413E+00 0.25422308E+04</pdfrwt>
<pdfrwt beam="2">  1       -2 0.90611928E-01 0.25422308E+04</pdfrwt>
<totfact> 0.23130402E+00</totfact>
</mgrwt>
</event>
<event>
 6    1  0.5026615E-004  0.3353613E+04  0.7818608E-02  0.8149386E-01
         -1   -1    0    0    0  501 -0.00000000000E+00  0.00000000000E+00  0.15341844047E+04  0.15341844047E+04  0.00000000000E+00 0. -1.
          1   -1    0    0  501    0  0.00000000000E+00 -0.00000000000E+00 -0.18326866780E+04  0.18326866780E+04  0.00000000000E+00 0.  1.
         23    2    1    2    0    0  0.82508150747E+03  0.10469839400E+04  0.86983603779E+03  0.15943166339E+04  0.91082005855E+02 0.  0.
         11    1    3    3    0    0  0.47936164602E+03  0.54721272186E+03  0.44397021540E+03  0.85225518643E+03  0.00000000000E+00 0.  1.
        -11    1    3    3    0    0  0.34571986145E+03  0.49977121817E+03  0.42586582239E+03  0.74206144745E+03  0.00000000000E+00 0. -1.
         22    1    1    2    0    0 -0.82508150747E+03 -0.10469839400E+04 -0.11683383111E+04  0.17725544488E+04  0.00000000000E+00 0.  1.
<mgrwt>
<rscale>  0 0.33536126E+04</rscale>
<asrwt>0</asrwt>
<pdfrwt beam="1">  1        1 0.28195180E+00 0.33536126E+04</pdfrwt>
<pdfrwt beam="2">  1       -1 0.23602837E+00 0.33536126E+04</pdfrwt>
<totfact> 0.27529669E-01</totfact>
</mgrwt>
</event>
<event>
 6    1  0.5026615E-004  0.3956180E+04  0.7818608E-02  0.8013445E-01
          1   -1    0    0  501    0  0.00000000000E+00  0.00000000000E+00  0.17848271433E+04  0.17848271433E+04  0.00000000000E+00 0.  1.
         -1   -1    0    0    0  501 -0.00000000000E+00 -0.00000000000E+00 -0.21922797913E+04  0.21922797913E+04  0.00000000000E+00 0. -1.
         23    2    1    2    0    0 -0.43724865709E+03 -0.17633462018E+04 -0.98773525033E+03  0.20699351767E+04  0.91839510426E+02 0.  0.
         13    1    3    3    0    0 -0.25128966423E+02 -0.12866838165E+03 -0.98330563685E+02  0.16387775061E+03  0.00000000000E+00 0. -1.
        -13    1    3    3    0    0 -0.41211969067E+03 -0.16346778201E+04 -0.88940468664E+03  0.19060574261E+04  0.00000000000E+00 0.  1.
         22    1    1    2    0    0  0.43724865709E+03  0.17633462018E+04  0.58028260240E+03  0.19071717579E+04  0.00000000000E+00 0.  1.
<mgrwt>
<rscale>  0 0.39561802E+04</rscale>
<asrwt>0</asrwt>
<pdfrwt beam="1">  1        1 0.27458879E+00 0.39561802E+04</pdfrwt>
<pdfrwt beam="2">  1       -1 0.33727381E+00 0.39561802E+04</pdfrwt>
<totfact> 0.61778594E-02</totfact>
</mgrwt>
</event>
<event>
 6    1  0.5026615E-004  0.2078681E+04  0.7818608E-02  0.8570693E-01
          2   -1    0    0  501    0  0.00000000000E+00  0.00000000000E+00  0.18570868771E+04  0.18570868771E+04  0.00000000000E+00 0.  1.
         -2   -1    0    0    0  501 -0.00000000000E+00 -0.00000000000E+00 -0.58167909998E+03  0.58167909998E+03  0.00000000000E+00 0. -1.
         23    2    1    2    0    0 -0.95595623383E+02  0.88090077909E+01  0.18505195609E+04  0.18556967825E+04  0.99858806465E+02 0.  0.
         11    1    3    3    0    0 -0.54527340860E+02  0.42786470548E+02  0.59107753426E+03  0.59512735148E+03  0.00000000000E+00 0. -1.
        -11    1    3    3    0    0 -0.41068282523E+02 -0.33977462757E+02  0.12594420267E+04  0.12605694310E+04  0.00000000000E+00 0.  1.
         22    1    1    2    0    0  0.95595623383E+02 -0.88090077909E+01 -0.57511178381E+03  0.58306919461E+03  0.00000000000E+00 0. -1.
<mgrwt>
<rscale>  0 0.20786810E+04</rscale>
<asrwt>0</asrwt>
<pdfrwt beam="1">  1        2 0.28570567E+00 0.20786810E+04</pdfrwt>
<pdfrwt beam="2">  1       -2 0.89489093E-01 0.20786810E+04</pdfrwt>
<totfact> 0.79289257E+00</totfact>
</mgrwt>
</event>
<event>
 6    1  0.5026615E-004  0.2105084E+04  0.7818608E-02  0.8559007E-01
          2   -1    0    0  501    0  0.00000000000E+00  0.00000000000E+00  0.31899056552E+04  0.31899056552E+04  0.00000000000E+00 0.  1.
         -2   -1    0    0    0  501 -0.00000000000E+00 -0.00000000000E+00 -0.34729706547E+03  0.34729706547E+03  0.00000000000E+00 0. -1.
         23    2    1    2    0    0  0.83366666883E+03 -0.48631292391E+03  0.72522558744E+03  0.12102280425E+04  0.84849203825E+02 0.  0.
         11    1    3    3    0    0  0.51433475025E+03 -0.34709000621E+03  0.46714498122E+03  0.77668278029E+03  0.00000000000E+00 0.  1.
        -11    1    3    3    0    0  0.31933191858E+03 -0.13922291770E+03  0.25808060622E+03  0.43354526216E+03  0.00000000000E+00 0. -1.
         22    1    1    2    0    0 -0.83366666883E+03  0.48631292391E+03  0.21173830023E+04  0.23269746782E+04  0.00000000000E+00 0.  1.
<mgrwt>
<rscale>  0 0.21050842E+04</rscale>
<asrwt>0</asrwt>
<pdfrwt beam="1">  1        2 0.49075470E+00 0.21050842E+04</pdfrwt>
<pdfrwt beam="2">  1       -2 0.53430320E-01 0.21050842E+04</pdfrwt>
<totfact> 0.40146549E+00</totfact>
</mgrwt>
</event>
<event>
 6    1  0.5026615E-004  0.2442233E+04  0.7818608E-02  0.8423859E-01
          2   -1    0    0  501    0  0.00000000000E+00  0.00000000000E+00  0.15064420826E+04  0.15064420826E+04  0.00000000000E+00 0.  1.
         -2   -1    0    0    0  501 -0.00000000000E+00 -0.00000000000E+00 -0.98983221534E+03  0.98983221534E+03  0.00000000000E+00 0. -1.
         23    2    1    2    0    0 -0.57546732729E+02 -0.79447448606E+03  0.12024450182E+04  0.14451457665E+04  0.89838350099E+02 0.  0.
         13    1    3    3    0    0 -0.14077968902E+02 -0.23995262427E+03  0.43999646628E+03  0.50137046327E+03  0.00000000000E+00 0. -1.
        -13    1    3    3    0    0 -0.43468763827E+02 -0.55452186179E+03  0.76244855192E+03  0.94377530322E+03  0.00000000000E+00 0.  1.
         22    1    1    2    0    0  0.57546732729E+02  0.79447448606E+03 -0.68583515092E+03  0.10511285315E+04  0.00000000000E+00 0. -1.
<mgrwt>
<rscale>  0 0.24422325E+04</rscale>
<asrwt>0</asrwt>
<pdfrwt beam="1">  1        2 0.23176032E+00 0.24422325E+04</pdfrwt>
<pdfrwt beam="2">  1       -2 0.15228188E+00 0.24422325E+04</pdfrwt>
<totfact> 0.32472702E+00</totfact>
</mgrwt>
</event>
<event>
 6    1  0.5026615E-004  0.2494188E+04  0.7818608E-02  0.8405059E-01
         -2   -1    0    0    0  501 -0.00000000000E+00  0.00000000000E+00  0.69796461663E+03  0.69796461663E+03  0.00000000000E+00 0. -1.
          2   -1    0    0  501    0  0.00000000000E+00 -0.00000000000E+00 -0.22282556354E+04  0.22282556354E+04  0.00000000000E+00 0.  1.
         23    2    1    2    0    0  0.20815609140E+03 -0.18674789539E+03 -0.21897813344E+04  0.22098884774E+04  0.10129686687E+03 0.  0.
         13    1    3    3    0    0  0.24394544620E+02 -0.81452775660E+02 -0.56511803157E+03  0.57147881683E+03  0.00000000000E+00 0. -1.
        -13    1    3    3    0    0  0.18376154678E+03 -0.10529511973E+03 -0.16246633028E+04  0.16384096606E+04  0.00000000000E+00 0.  1.
         22    1    1    2    0    0 -0.20815609140E+03  0.18674789539E+03  0.65949031567E+03  0.71633177458E+03  0.00000000000E+00 0. -1.
<mgrwt>
<rscale>  0 0.24941881E+04</rscale>
<asrwt>0</asrwt>
<pdfrwt beam="1">  1        2 0.34280856E+00 0.24941881E+04</pdfrwt>
<pdfrwt beam="2">  1       -2 0.10737917E+00 0.24941881E+04</pdfrwt>
<totfact> 0.30932003E+00</totfact>
</mgrwt>
</event>
<event>
 6    1  0.5026615E-004  0.2330671E+04  0.7818608E-02  0.8465925E-01
         -2   -1    0    0    0  501 -0.00000000000E+00  0.00000000000E+00  0.11367091593E+04  0.11367091593E+04  0.00000000000E+00 0. -1.
          2   -1    0    0  501    0  0.00000000000E+00 -0.00000000000E+00 -0.11946826183E+04  0.11946826183E+04  0.00000000000E+00 0.  1.
         23    2    1    2    0    0  0.88252586987E+03 -0.33978854035E+03  0.64910819046E+03  0.11505985602E+04  0.90705240818E+02 0.  0.
         13    1    3    3    0    0  0.54164586924E+03 -0.20614409388E+03  0.45058298104E+03  0.73409853420E+03  0.00000000000E+00 0.  1.
        -13    1    3    3    0    0  0.34088000063E+03 -0.13364444647E+03  0.19852520942E+03  0.41650002602E+03  0.00000000000E+00 0. -1.
         22    1    1    2    0    0 -0.88252586987E+03  0.33978854035E+03 -0.70708164946E+03  0.11807932174E+04  0.00000000000E+00 0.  1.
<mgrwt>
<rscale>  0 0.23306709E+04</rscale>
<asrwt>0</asrwt>
<pdfrwt beam="1">  1        2 0.18379733E+00 0.23306709E+04</pdfrwt>
<pdfrwt beam="2">  1       -2 0.17487833E+00 0.23306709E+04</pdfrwt>
<totfact> 0.33969831E+00</totfact>
</mgrwt>
</event>
<event>
 6    1  0.5026615E-004  0.1461375E+04  0.7818608E-02  0.8910552E-01
          2   -1    0    0  501    0  0.00000000000E+00  0.00000000000E+00  0.14106687667E+04  0.14106687667E+04  0.00000000000E+00 0. -1.
         -2   -1    0    0    0  501 -0.00000000000E+00 -0.00000000000E+00 -0.37847605593E+03  0.37847605593E+03  0.00000000000E+00 0.  1.
         23    2    1    2    0    0  0.47872683101E+03  0.17303813293E+03  0.11548782627E+04  0.12655292014E+04  0.93267270240E+02 0.  0.
         11    1    3    3    0    0  0.16692671009E+03  0.10462841559E+03  0.48481179033E+03  0.52331071453E+03  0.00000000000E+00 0. -1.
        -11    1    3    3    0    0  0.31180012091E+03  0.68409717335E+02  0.67006647241E+03  0.74221848689E+03  0.00000000000E+00 0.  1.
         22    1    1    2    0    0 -0.47872683101E+03 -0.17303813293E+03 -0.12268555194E+03  0.52361562126E+03  0.00000000000E+00 0.  1.
<mgrwt>
<rscale>  0 0.14613752E+04</rscale>
<asrwt>0</asrwt>
<pdfrwt beam="1">  1        2 0.21702596E+00 0.14613752E+04</pdfrwt>
<pdfrwt beam="2">  1       -2 0.58227086E-01 0.14613752E+04</pdfrwt>
<totfact> 0.38143248E+01</totfact>
</mgrwt>
</event>
<event>
 6    1  0.5026615E-004  0.2365776E+04  0.7818608E-02  0.8452429E-01
         -2   -1    0    0    0  501 -0.00000000000E+00  0.00000000000E+00  0.10374750161E+04  0.10374750161E+04  0.00000000000E+00 0. -1.
          2   -1    0    0  501    0  0.00000000000E+00 -0.00000000000E+00 -0.13486822708E+04  0.13486822708E+04  0.00000000000E+00 0.  1.
         23    2    1    2    0    0 -0.11017723792E+03  0.38928446861E+03 -0.12751892620E+04  0.13407182731E+04  0.87956880330E+02 0.  0.
         13    1    3    3    0    0 -0.13099316547E+02  0.29826275987E+02 -0.45948844366E+02  0.56324906851E+02  0.00000000000E+00 0.  1.
        -13    1    3    3    0    0 -0.97077921369E+02  0.35945819262E+03 -0.12292404176E+04  0.12843933663E+04  0.00000000000E+00 0. -1.
         22    1    1    2    0    0  0.11017723792E+03 -0.38928446861E+03  0.96398200721E+03  0.10454390138E+04  0.00000000000E+00 0. -1.
<mgrwt>
<rscale>  0 0.23657761E+04</rscale>
<asrwt>0</asrwt>
<pdfrwt beam="1">  1        2 0.20748958E+00 0.23657761E+04</pdfrwt>
<pdfrwt beam="2">  1       -2 0.15961154E+00 0.23657761E+04</pdfrwt>
<totfact> 0.35420883E+00</totfact>
</mgrwt>
</event>
<event>
 6    1  0.5026615E-004  0.5191022E+03  0.7818608E-02  0.1008910E+00
         -2   -1    0    0    0  501 -0.00000000000E+00  0.00000000000E+00  0.74332099816E+02  0.74332099816E+02  0.00000000000E+00 0. -1.
          2   -1    0    0  501    0  0.00000000000E+00 -0.00000000000E+00 -0.90629464958E+03  0.90629464958E+03  0.00000000000E+00 0.  1.
         23    2    1    2    0    0 -0.19862063953E+03  0.13542168114E+03 -0.27467900284E+03  0.37370489129E+03  0.80109930746E+02 0.  0.
         11    1    3    3    0    0 -0.81804217522E+02  0.39663582866E+02 -0.52316081594E+02  0.10489090620E+03  0.00000000000E+00 0. -1.
        -11    1    3    3    0    0 -0.11681642201E+03  0.95758098278E+02 -0.22236292124E+03  0.26881398509E+03  0.00000000000E+00 0.  1.
         22    1    1    2    0    0  0.19862063953E+03 -0.13542168114E+03 -0.55728354692E+03  0.60692185810E+03  0.00000000000E+00 0. -1.
<mgrwt>
<rscale>  0 0.51910224E+03</rscale>
<asrwt>0</asrwt>
<pdfrwt beam="1">  1        2 0.13942995E+00 0.51910224E+03</pdfrwt>
<pdfrwt beam="2">  1       -2 0.11435707E-01 0.51910224E+03</pdfrwt>
<totfact> 0.16081271E+03</totfact>
</mgrwt>
</event>
<event>
 6    1  0.5026615E-004  0.1013681E+04  0.7818608E-02  0.9293666E-01
         -2   -1    0    0    0  501 -0.00000000000E+00  0.00000000000E+00  0.28310442841E+03  0.28310442841E+03  0.00000000000E+00 0. -1.
          2   -1    0    0  501    0  0.00000000000E+00 -0.00000000000E+00 -0.90739384080E+03  0.90739384080E+03  0.00000000000E+00 0.  1.
         23    2    1    2    0    0  0.19425993601E+03 -0.46106386431E+03 -0.25603857956E+03  0.56926925702E+03  0.90525814275E+02 0.  0.
         13    1    3    3    0    0  0.19364018970E+03 -0.37312428213E+03 -0.20702396046E+03  0.46859062430E+03  0.00000000000E+00 0.  1.
        -13    1    3    3    0    0  0.61974631498E+00 -0.87939582184E+02 -0.49014619099E+02  0.10067863272E+03  0.00000000000E+00 0. -1.
         22    1    1    2    0    0 -0.19425993601E+03  0.46106386431E+03 -0.36825083283E+03  0.62122901220E+03  0.00000000000E+00 0.  1.
<mgrwt>
<rscale>  0 0.10136808E+04</rscale>
<asrwt>0</asrwt>
<pdfrwt beam="1">  1        2 0.13959905E+00 0.10136808E+04</pdfrwt>
<pdfrwt beam="2">  1       -2 0.43554527E-01 0.10136808E+04</pdfrwt>
<totfact> 0.14447660E+02</totfact>
</mgrwt>
</event>
<event>
 6    1  0.5026615E-004  0.3282544E+04  0.7818608E-02  0.8167351E-01
          2   -1    0    0  501    0  0.00000000000E+00  0.00000000000E+00  0.19622545698E+04  0.19622545698E+04  0.00000000000E+00 0.  1.
         -2   -1    0    0    0  501 -0.00000000000E+00 -0.00000000000E+00 -0.13727956476E+04  0.13727956476E+04  0.00000000000E+00 0. -1.
         23    2    1    2    0    0 -0.12825028529E+04  0.10221881599E+04  0.29506658094E+03  0.16688122233E+04  0.90486173336E+02 0.  0.
         13    1    3    3    0    0 -0.69689670320E+03  0.50984040997E+03  0.18338344980E+03  0.88274104256E+03  0.00000000000E+00 0. -1.
        -13    1    3    3    0    0 -0.58560614972E+03  0.51234774995E+03  0.11168313114E+03  0.78607118078E+03  0.00000000000E+00 0.  1.
         22    1    1    2    0    0  0.12825028529E+04 -0.10221881599E+04  0.29439234124E+03  0.16662379940E+04  0.00000000000E+00 0.  1.
<mgrwt>
<rscale>  0 0.32825445E+04</rscale>
<asrwt>0</asrwt>
<pdfrwt beam="1">  1        2 0.30188532E+00 0.32825445E+04</pdfrwt>
<pdfrwt beam="2">  1       -2 0.21119933E+00 0.32825445E+04</pdfrwt>
<totfact> 0.65980511E-01</totfact>
</mgrwt>
</event>
<event>
 6    1  0.5026615E-004  0.1003187E+04  0.7818608E-02  0.9305057E-01
          2   -1    0    0  501    0  0.00000000000E+00  0.00000000000E+00  0.11855988469E+04  0.11855988469E+04  0.00000000000E+00 0. -1.
         -2   -1    0    0    0  501 -0.00000000000E+00 -0.00000000000E+00 -0.21220990204E+03  0.21220990204E+03  0.00000000000E+00 0.  1.
         23    2    1    2    0    0  0.79049544832E+02  0.48235447450E+03  0.36323193424E+03  0.61601194208E+03  0.92836442883E+02 0.  0.
         11    1    3    3    0    0  0.46858045058E+02  0.10667720241E+03  0.54232368774E+02  0.12851790429E+03  0.00000000000E+00 0.  1.
        -11    1    3    3    0    0  0.32191499774E+02  0.37567727209E+03  0.30899956547E+03  0.48749403779E+03  0.00000000000E+00 0. -1.
         22    1    1    2    0    0 -0.79049544832E+02 -0.48235447450E+03  0.61015701060E+03  0.78179680685E+03  0.00000000000E+00 0.  1.
<mgrwt>
<rscale>  0 0.10031866E+04</rscale>
<asrwt>0</asrwt>
<pdfrwt beam="1">  1        2 0.18239982E+00 0.10031866E+04</pdfrwt>
<pdfrwt beam="2">  1       -2 0.32647678E-01 0.10031866E+04</pdfrwt>
<totfact> 0.16845652E+02</totfact>
</mgrwt>
</event>
<event>
 6    1  0.5026615E-004  0.2087305E+04  0.7818608E-02  0.8566856E-01
          1   -1    0    0  501    0  0.00000000000E+00  0.00000000000E+00  0.97872342724E+03  0.97872342724E+03  0.00000000000E+00 0.  1.
         -1   -1    0    0    0  501 -0.00000000000E+00 -0.00000000000E+00 -0.11128887334E+04  0.11128887334E+04  0.00000000000E+00 0. -1.
         23    2    1    2    0    0  0.49467883862E+03  0.86819725482E+03 -0.36293354992E+03  0.10665226348E+04  0.85300306500E+02 0.  0.
         11    1    3    3    0    0  0.25910567288E+03  0.50985014852E+03 -0.24155958570E+03  0.62083327642E+03  0.00000000000E+00 0. -1.
        -11    1    3    3    0    0  0.23557316574E+03  0.35834710630E+03 -0.12137396422E+03  0.44568935841E+03  0.00000000000E+00 0.  1.
         22    1    1    2    0    0 -0.49467883862E+03 -0.86819725482E+03  0.22876824374E+03  0.10250895258E+04  0.00000000000E+00 0.  1.
<mgrwt>
<rscale>  0 0.20873047E+04</rscale>
<asrwt>0</asrwt>
<pdfrwt beam="1">  1        1 0.15057283E+00 0.20873047E+04</pdfrwt>
<pdfrwt beam="2">  1       -1 0.17121365E+00 0.20873047E+04</pdfrwt>
<totfact> 0.34902343E+00</totfact>
</mgrwt>
</event>
<event>
 6    1  0.5026615E-004  0.1431098E+04  0.7818608E-02  0.8931611E-01
         -2   -1    0    0    0  501 -0.00000000000E+00  0.00000000000E+00  0.16589114935E+03  0.16589114935E+03  0.00000000000E+00 0. -1.
          2   -1    0    0  501    0  0.00000000000E+00 -0.00000000000E+00 -0.30864218888E+04  0.30864218888E+04  0.00000000000E+00 0.  1.
         23    2    1    2    0    0 -0.44938115327E+03 -0.43609468349E+03 -0.69354368831E+03  0.93896193643E+03  0.92329175211E+02 0.  0.
         11    1    3    3    0    0 -0.27254858768E+03 -0.20352133784E+03 -0.35183174081E+03  0.48937638014E+03  0.00000000000E+00 0. -1.
        -11    1    3    3    0    0 -0.17683256559E+03 -0.23257334565E+03 -0.34171194749E+03  0.44958555629E+03  0.00000000000E+00 0.  1.
         22    1    1    2    0    0  0.44938115327E+03  0.43609468349E+03 -0.22269870512E+04  0.23133511018E+04  0.00000000000E+00 0.  1.
<mgrwt>
<rscale>  0 0.14310976E+04</rscale>
<asrwt>0</asrwt>
<pdfrwt beam="1">  1        2 0.47483411E+00 0.14310976E+04</pdfrwt>
<pdfrwt beam="2">  1       -2 0.25521717E-01 0.14310976E+04</pdfrwt>
<totfact> 0.20800388E+01</totfact>
</mgrwt>
</event>
<event>
 6    1  0.5026615E-004  0.2355987E+04  0.7818608E-02  0.8456168E-01
         -2   -1    0    0    0  501 -0.00000000000E+00  0.00000000000E+00  0.54144901852E+03  0.54144901852E+03  0.00000000000E+00 0. -1.
          2   -1    0    0  501    0  0.00000000000E+00 -0.00000000000E+00 -0.25628795082E+04  0.25628795082E+04  0.00000000000E+00 0.  1.
         23    2    1    2    0    0 -0.55269651399E+03 -0.13000345121E+03  0.34510627918E+03  0.67063367890E+03  0.90977213867E+02 0.  0.
         13    1    3    3    0    0 -0.39669645243E+03 -0.13291260398E+03  0.26510138879E+03  0.49529040169E+03  0.00000000000E+00 0.  1.
        -13    1    3    3    0    0 -0.15600006155E+03  0.29091527733E+01  0.80004890387E+02  0.17534327720E+03  0.00000000000E+00 0. -1.
         22    1    1    2    0    0  0.55269651399E+03  0.13000345121E+03 -0.23665367688E+04  0.24336948478E+04  0.00000000000E+00 0.  1.
<mgrwt>
<rscale>  0 0.23559869E+04</rscale>
<asrwt>0</asrwt>
<pdfrwt beam="1">  1        2 0.39428915E+00 0.23559869E+04</pdfrwt>
<pdfrwt beam="2">  1       -2 0.83299849E-01 0.23559869E+04</pdfrwt>
<totfact> 0.36427405E+00</totfact>
</mgrwt>
</event>
<event>
 6    1  0.5026615E-004  0.5016306E+04  0.7818608E-02  0.7825997E-01
         -2   -1    0    0    0  501 -0.00000000000E+00  0.00000000000E+00  0.20714757556E+04  0.20714757556E+04  0.00000000000E+00 0. -1.
          2   -1    0    0  501    0  0.00000000000E+00 -0.00000000000E+00 -0.30368843851E+04  0.30368843851E+04  0.00000000000E+00 0.  1.
         23    2    1    2    0    0  0.15963501553E+04 -0.17162162362E+04  0.42402620045E+03  0.23836104028E+04  0.89823974428E+02 0.  0.
         11    1    3    3    0    0  0.24213300742E+03 -0.21633418866E+03  0.66829582381E+02  0.33150424967E+03  0.00000000000E+00 0. -1.
        -11    1    3    3    0    0  0.13542171478E+04 -0.14998820475E+04  0.35719661807E+03  0.20521061532E+04  0.00000000000E+00 0.  1.
         22    1    1    2    0    0 -0.15963501553E+04  0.17162162362E+04 -0.13894348300E+04  0.27247497379E+04  0.00000000000E+00 0. -1.
<mgrwt>
<rscale>  0 0.50163064E+04</rscale>
<asrwt>0</asrwt>
<pdfrwt beam="1">  1        2 0.46721298E+00 0.50163064E+04</pdfrwt>
<pdfrwt beam="2">  1       -2 0.31868858E+00 0.50163064E+04</pdfrwt>
<totfact> 0.29258937E-02</totfact>
</mgrwt>
</event>
<event>
 6    1  0.5026615E-004  0.1691342E+04  0.7818608E-02  0.8766318E-01
          2   -1    0    0  501    0  0.00000000000E+00  0.00000000000E+00  0.18835080217E+04  0.18835080217E+04  0.00000000000E+00 0.  1.
         -2   -1    0    0    0  501 -0.00000000000E+00 -0.00000000000E+00 -0.37969540158E+03  0.37969540158E+03  0.00000000000E+00 0. -1.
         23    2    1    2    0    0 -0.17620415559E+03 -0.10198175719E+03  0.18490672677E+04  0.18623930504E+04  0.89498216199E+02 0.  0.
         11    1    3    3    0    0 -0.55795655724E+02 -0.81027017627E+02  0.94358983409E+03  0.94870454188E+03  0.00000000000E+00 0. -1.
        -11    1    3    3    0    0 -0.12040849986E+03 -0.20954739561E+02  0.90547743359E+03  0.91368850857E+03  0.00000000000E+00 0.  1.
         22    1    1    2    0    0  0.17620415559E+03  0.10198175719E+03 -0.34525464760E+03  0.40081037279E+03  0.00000000000E+00 0. -1.
<mgrwt>
<rscale>  0 0.16913419E+04</rscale>
<asrwt>0</asrwt>
<pdfrwt beam="1">  1        2 0.28977046E+00 0.16913419E+04</pdfrwt>
<pdfrwt beam="2">  1       -2 0.58414678E-01 0.16913419E+04</pdfrwt>
<totfact> 0.20237343E+01</totfact>
</mgrwt>
</event>
<event>
 6    1  0.5026615E-004  0.3560802E+04  0.7818608E-02  0.8099530E-01
         -2   -1    0    0    0  501 -0.00000000000E+00  0.00000000000E+00  0.10290737605E+04  0.10290737605E+04  0.00000000000E+00 0. -1.
          2   -1    0    0  501    0  0.00000000000E+00 -0.00000000000E+00 -0.30802717723E+04  0.30802717723E+04  0.00000000000E+00 0.  1.
         23    2    1    2    0    0  0.57138717468E+03  0.83307574204E+03  0.66405130379E+03  0.12122647019E+04  0.90128120191E+02 0.  0.
         13    1    3    3    0    0  0.46556471408E+03  0.61059572112E+03  0.50108421648E+03  0.91687677997E+03  0.00000000000E+00 0.  1.
        -13    1    3    3    0    0  0.10582246060E+03  0.22248002092E+03  0.16296708731E+03  0.29538792193E+03  0.00000000000E+00 0. -1.
         22    1    1    2    0    0 -0.57138717468E+03 -0.83307574204E+03 -0.27152493155E+04  0.28970808309E+04  0.00000000000E+00 0.  1.
<mgrwt>
<rscale>  0 0.35608015E+04</rscale>
<asrwt>0</asrwt>
<pdfrwt beam="1">  1        2 0.47388797E+00 0.35608015E+04</pdfrwt>
<pdfrwt beam="2">  1       -2 0.15831904E+00 0.35608015E+04</pdfrwt>
<totfact> 0.32808396E-01</totfact>
</mgrwt>
</event>
<event>
 6    1  0.5026615E-004  0.1270081E+04  0.7818608E-02  0.9053633E-01
          2   -1    0    0  501    0  0.00000000000E+00  0.00000000000E+00  0.17642389928E+04  0.17642389928E+04  0.00000000000E+00 0.  1.
         -2   -1    0    0    0  501 -0.00000000000E+00 -0.00000000000E+00 -0.22858383851E+03  0.22858383851E+03  0.00000000000E+00 0. -1.
         23    2    1    2    0    0  0.11186524520E+03  0.28864667645E+03  0.16358072918E+04  0.16674596688E+04  0.93410462236E+02 0.  0.
         11    1    3    3    0    0  0.98097577425E+02  0.17104822102E+03  0.11885653521E+04  0.12048104518E+04  0.00000000000E+00 0. -1.
        -11    1    3    3    0    0  0.13767667777E+02  0.11759845543E+03  0.44724193964E+03  0.46264921697E+03  0.00000000000E+00 0.  1.
         22    1    1    2    0    0 -0.11186524520E+03 -0.28864667645E+03 -0.10015213742E+03  0.32536316255E+03  0.00000000000E+00 0. -1.
<mgrwt>
<rscale>  0 0.12700811E+04</rscale>
<asrwt>0</asrwt>
<pdfrwt beam="1">  1        2 0.27142137E+00 0.12700811E+04</pdfrwt>
<pdfrwt beam="2">  1       -2 0.35166746E-01 0.12700811E+04</pdfrwt>
<totfact> 0.67346696E+01</totfact>
</mgrwt>
</event>
<event>
 6    1  0.5026615E-004  0.2047705E+04  0.7818608E-02  0.8584636E-01
         -2   -1    0    0    0  501 -0.00000000000E+00  0.00000000000E+00  0.63299897162E+03  0.63299897162E+03  0.00000000000E+00 0. -1.
          2   -1    0    0  501    0  0.00000000000E+00 -0.00000000000E+00 -0.16560433182E+04  0.16560433182E+04  0.00000000000E+00 0.  1.
         23    2    1    2    0    0  0.78786233233E+03  0.13476215399E+03 -0.12239258499E+04  0.14648813400E+04  0.94841769644E+02 0.  0.
         11    1    3    3    0    0  0.24648092130E+03  0.99211955875E+00 -0.40505653693E+03  0.47415675359E+03  0.00000000000E+00 0.  1.
        -11    1    3    3    0    0  0.54138141104E+03  0.13377003443E+03 -0.81886931299E+03  0.99072458640E+03  0.00000000000E+00 0. -1.
         22    1    1    2    0    0 -0.78786233233E+03 -0.13476215399E+03  0.20088150334E+03  0.82416094984E+03  0.00000000000E+00 0. -1.
<mgrwt>
<rscale>  0 0.20477048E+04</rscale>
<asrwt>0</asrwt>
<pdfrwt beam="1">  1        2 0.25477590E+00 0.20477048E+04</pdfrwt>
<pdfrwt beam="2">  1       -2 0.97384457E-01 0.20477048E+04</pdfrwt>
<totfact> 0.84445323E+00</totfact>
</mgrwt>
</event>
<event>
 6    1  0.5026615E-004  0.3121515E+04  0.7818608E-02  0.8209858E-01
         -2   -1    0    0    0  501 -0.00000000000E+00  0.00000000000E+00  0.21394826682E+04  0.21394826682E+04  0.00000000000E+00 0. -1.
          2   -1    0    0  501    0  0.00000000000E+00 -0.00000000000E+00 -0.11385762475E+04  0.11385762475E+04  0.00000000000E+00 0.  1.
         23    2    1    2    0    0 -0.18327779338E+03 -0.13385426496E+04 -0.31682979947E+03  0.13908080261E+04  0.93159375798E+02 0.  0.
         13    1    3    3    0    0 -0.16080099761E+03 -0.88368107739E+03 -0.19012289981E+03  0.91809363597E+03  0.00000000000E+00 0. -1.
        -13    1    3    3    0    0 -0.22476795765E+02 -0.45486157219E+03 -0.12670689966E+03  0.47271439012E+03  0.00000000000E+00 0.  1.
         22    1    1    2    0    0  0.18327779338E+03  0.13385426496E+04  0.13177362202E+04  0.18872508896E+04  0.00000000000E+00 0.  1.
<mgrwt>
<rscale>  0 0.31215151E+04</rscale>
<asrwt>0</asrwt>
<pdfrwt beam="1">  1        2 0.17516558E+00 0.31215151E+04</pdfrwt>
<pdfrwt beam="2">  1       -2 0.32915118E+00 0.31215151E+04</pdfrwt>
<totfact> 0.36730630E-01</totfact>
</mgrwt>
</event>
<event>
 6    1  0.5026615E-004  0.4230423E+04  0.7818608E-02  0.7959610E-01
         -2   -1    0    0    0  501 -0.00000000000E+00  0.00000000000E+00  0.13478245681E+04  0.13478245681E+04  0.00000000000E+00 0. -1.
          2   -1    0    0  501    0  0.00000000000E+00 -0.00000000000E+00 -0.33195120598E+04  0.33195120598E+04  0.00000000000E+00 0.  1.
         23    2    1    2    0    0 -0.18528538173E+04  0.74914035114E+03 -0.22506293280E+03  0.20130992828E+04  0.87389157446E+02 0.  0.
         13    1    3    3    0    0 -0.10444077043E+04  0.37640761585E+03 -0.13379736545E+03  0.11182002867E+04  0.00000000000E+00 0. -1.
        -13    1    3    3    0    0 -0.80844611299E+03  0.37273273529E+03 -0.91265567355E+02  0.89489899617E+03  0.00000000000E+00 0.  1.
         22    1    1    2    0    0  0.18528538173E+04 -0.74914035114E+03 -0.17466245590E+04  0.26542373451E+04  0.00000000000E+00 0. -1.
<mgrwt>
<rscale>  0 0.42304231E+04</rscale>
<asrwt>0</asrwt>
<pdfrwt beam="1">  1        2 0.51069417E+00 0.42304231E+04</pdfrwt>
<pdfrwt beam="2">  1       -2 0.20735762E+00 0.42304231E+04</pdfrwt>
<totfact> 0.99549062E-02</totfact>
</mgrwt>
</event>
<event>
 6    1  0.5026615E-004  0.2692989E+04  0.7818608E-02  0.8337283E-01
         -2   -1    0    0    0  501 -0.00000000000E+00  0.00000000000E+00  0.21212848202E+04  0.21212848202E+04  0.00000000000E+00 0. -1.
          2   -1    0    0  501    0  0.00000000000E+00 -0.00000000000E+00 -0.85469310375E+03  0.85469310375E+03  0.00000000000E+00 0.  1.
         23    2    1    2    0    0 -0.69608678884E+03 -0.21534730485E+03 -0.61535726292E+03  0.95789882732E+03  0.89410978335E+02 0.  0.
         13    1    3    3    0    0 -0.34814987444E+03 -0.10358910990E+03 -0.36486669426E+03  0.51484632983E+03  0.00000000000E+00 0.  1.
        -13    1    3    3    0    0 -0.34793691440E+03 -0.11175819494E+03 -0.25049056866E+03  0.44305249748E+03  0.00000000000E+00 0. -1.
         22    1    1    2    0    0  0.69608678884E+03  0.21534730485E+03  0.18819489794E+04  0.20180790966E+04  0.00000000000E+00 0. -1.
<mgrwt>
<rscale>  0 0.26929891E+04</rscale>
<asrwt>0</asrwt>
<pdfrwt beam="1">  1        2 0.13149125E+00 0.26929891E+04</pdfrwt>
<pdfrwt beam="2">  1       -2 0.32635151E+00 0.26929891E+04</pdfrwt>
<totfact> 0.60480064E-01</totfact>
</mgrwt>
</event>
<event>
 6    1  0.5026615E-004  0.1625961E+04  0.7818608E-02  0.8804756E-01
          2   -1    0    0  501    0  0.00000000000E+00  0.00000000000E+00  0.12630175133E+04  0.12630175133E+04  0.00000000000E+00 0.  1.
         -2   -1    0    0    0  501 -0.00000000000E+00 -0.00000000000E+00 -0.52330036093E+03  0.52330036093E+03  0.00000000000E+00 0. -1.
         23    2    1    2    0    0 -0.38440464302E+03  0.13881517932E+03 -0.39774550814E+03  0.57765833257E+03  0.91929735974E+02 0.  0.
         11    1    3    3    0    0 -0.16127934792E+03  0.79336355170E+02 -0.23169647204E+03  0.29323802699E+03  0.00000000000E+00 0.  1.
        -11    1    3    3    0    0 -0.22312529510E+03  0.59478824145E+02 -0.16604903610E+03  0.28442030557E+03  0.00000000000E+00 0. -1.
         22    1    1    2    0    0  0.38440464302E+03 -0.13881517932E+03  0.11374626605E+04  0.12086595416E+04  0.00000000000E+00 0.  1.
<mgrwt>
<rscale>  0 0.16259613E+04</rscale>
<asrwt>0</asrwt>
<pdfrwt beam="1">  1        2 0.19431039E+00 0.16259613E+04</pdfrwt>
<pdfrwt beam="2">  1       -2 0.80507748E-01 0.16259613E+04</pdfrwt>
<totfact> 0.22665927E+01</totfact>
</mgrwt>
</event>
<event>
 6    1  0.5026615E-004  0.2911624E+04  0.7818608E-02  0.8269427E-01
         -2   -1    0    0    0  501 -0.00000000000E+00  0.00000000000E+00  0.84700926228E+03  0.84700926228E+03  0.00000000000E+00 0.  1.
          2   -1    0    0  501    0  0.00000000000E+00 -0.00000000000E+00 -0.25022017542E+04  0.25022017542E+04  0.00000000000E+00 0. -1.
         23    2    1    2    0    0 -0.10596603753E+04  0.78677730368E+03 -0.12550622809E+03  0.13288549334E+04  0.90581368761E+02 0.  0.
         11    1    3    3    0    0 -0.11450342034E+03  0.81924488967E+02  0.14464505423E+02  0.14153401386E+03  0.00000000000E+00 0. -1.
        -11    1    3    3    0    0 -0.94515695492E+03  0.70485281471E+03 -0.13997073351E+03  0.11873209196E+04  0.00000000000E+00 0.  1.
         22    1    1    2    0    0  0.10596603753E+04 -0.78677730368E+03 -0.15296862638E+04  0.20203560830E+04  0.00000000000E+00 0. -1.
<mgrwt>
<rscale>  0 0.29116236E+04</rscale>
<asrwt>0</asrwt>
<pdfrwt beam="1">  1        2 0.38495412E+00 0.29116236E+04</pdfrwt>
<pdfrwt beam="2">  1       -2 0.13030912E+00 0.29116236E+04</pdfrwt>
<totfact> 0.12916639E+00</totfact>
</mgrwt>
</event>
<event>
 6    1  0.5026615E-004  0.8782606E+03  0.7818608E-02  0.9453172E-01
         -2   -1    0    0    0  501 -0.00000000000E+00  0.00000000000E+00  0.19667994290E+03  0.19667994290E+03  0.00000000000E+00 0. -1.
          2   -1    0    0  501    0  0.00000000000E+00 -0.00000000000E+00 -0.98045292829E+03  0.98045292829E+03  0.00000000000E+00 0.  1.
         23    2    1    2    0    0 -0.20831910393E+03  0.23241899592E+03  0.94077420737E+01  0.32475319924E+03  0.89222732967E+02 0.  0.
         13    1    3    3    0    0 -0.55631212532E+02  0.14530395054E+02  0.11725913820E+02  0.58681012628E+02  0.00000000000E+00 0. -1.
        -13    1    3    3    0    0 -0.15268789139E+03  0.21788860087E+03 -0.23181717464E+01  0.26607218661E+03  0.00000000000E+00 0.  1.
         22    1    1    2    0    0  0.20831910393E+03 -0.23241899592E+03 -0.79318072747E+03  0.85237967195E+03  0.00000000000E+00 0.  1.
<mgrwt>
<rscale>  0 0.87826061E+03</rscale>
<asrwt>0</asrwt>
<pdfrwt beam="1">  1        2 0.15083891E+00 0.87826061E+03</pdfrwt>
<pdfrwt beam="2">  1       -2 0.30258453E-01 0.87826061E+03</pdfrwt>
<totfact> 0.26219421E+02</totfact>
</mgrwt>
</event>
<event>
 6    1  0.5026615E-004  0.1409015E+04  0.7818608E-02  0.8947319E-01
         -2   -1    0    0    0  501 -0.00000000000E+00  0.00000000000E+00  0.23339345210E+03  0.23339345210E+03  0.00000000000E+00 0. -1.
          2   -1    0    0  501    0  0.00000000000E+00 -0.00000000000E+00 -0.21265843737E+04  0.21265843737E+04  0.00000000000E+00 0.  1.
         23    2    1    2    0    0  0.64594031828E+03  0.26145164078E+03 -0.81386095701E+03  0.10752408770E+04  0.90429148523E+02 0.  0.
         11    1    3    3    0    0  0.62145890248E+03  0.26862415422E+03 -0.78829807111E+03  0.10391265335E+04  0.00000000000E+00 0. -1.
        -11    1    3    3    0    0  0.24481415802E+02 -0.71725134357E+01 -0.25562885899E+02  0.36114343468E+02  0.00000000000E+00 0.  1.
         22    1    1    2    0    0 -0.64594031828E+03 -0.26145164078E+03 -0.10793299646E+04  0.12847369489E+04  0.00000000000E+00 0.  1.
<mgrwt>
<rscale>  0 0.14090151E+04</rscale>
<asrwt>0</asrwt>
<pdfrwt beam="1">  1        2 0.32716684E+00 0.14090151E+04</pdfrwt>
<pdfrwt beam="2">  1       -2 0.35906683E-01 0.14090151E+04</pdfrwt>
<totfact> 0.40327272E+01</totfact>
</mgrwt>
</event>
<event>
 6    1  0.5026615E-004  0.3759005E+04  0.7818608E-02  0.8055010E-01
          2   -1    0    0  501    0  0.00000000000E+00  0.00000000000E+00  0.21332277185E+04  0.21332277185E+04  0.00000000000E+00 0.  1.
         -2   -1    0    0    0  501 -0.00000000000E+00 -0.00000000000E+00 -0.16559550470E+04  0.16559550470E+04  0.00000000000E+00 0. -1.
         23    2    1    2    0    0  0.78423777705E+03 -0.16714077852E+04 -0.11074527327E+03  0.18515558720E+04  0.85800677256E+02 0.  0.
         11    1    3    3    0    0  0.52912927352E+03 -0.12132420509E+04 -0.66039172882E+02  0.13252528945E+04  0.00000000000E+00 0. -1.
        -11    1    3    3    0    0  0.25510850353E+03 -0.45816573428E+03 -0.44706100385E+02  0.52630297744E+03  0.00000000000E+00 0.  1.
         22    1    1    2    0    0 -0.78423777705E+03  0.16714077852E+04  0.58801794472E+03  0.19376268935E+04  0.00000000000E+00 0. -1.
<mgrwt>
<rscale>  0 0.37590048E+04</rscale>
<asrwt>0</asrwt>
<pdfrwt beam="1">  1        2 0.32818888E+00 0.37590048E+04</pdfrwt>
<pdfrwt beam="2">  1       -2 0.25476231E+00 0.37590048E+04</pdfrwt>
<totfact> 0.27209047E-01</totfact>
</mgrwt>
</event>
<event>
 6    1  0.5026615E-004  0.8033039E+03  0.7818608E-02  0.9555247E-01
         -1   -1    0    0    0  501 -0.00000000000E+00  0.00000000000E+00  0.70089202528E+03  0.70089202528E+03  0.00000000000E+00 0. -1.
          1   -1    0    0  501    0  0.00000000000E+00 -0.00000000000E+00 -0.23016996751E+03  0.23016996751E+03  0.00000000000E+00 0.  1.
         23    2    1    2    0    0 -0.59047477306E+02 -0.19663104933E+03 -0.15435470785E+03  0.27313240914E+03  0.92873908854E+02 0.  0.
         11    1    3    3    0    0  0.10775713358E+01 -0.12416321634E+03 -0.53649777563E+02  0.13526257459E+03  0.00000000000E+00 0.  1.
        -11    1    3    3    0    0 -0.60125048642E+02 -0.72467832990E+02 -0.10070493029E+03  0.13786983454E+03  0.00000000000E+00 0. -1.
         22    1    1    2    0    0  0.59047477306E+02  0.19663104933E+03  0.62507676562E+03  0.65792958366E+03  0.00000000000E+00 0. -1.
<mgrwt>
<rscale>  0 0.80330391E+03</rscale>
<asrwt>0</asrwt>
<pdfrwt beam="1">  1        1 0.35410764E-01 0.80330391E+03</pdfrwt>
<pdfrwt beam="2">  1       -1 0.10782954E+00 0.80330391E+03</pdfrwt>
<totfact> 0.10033602E+02</totfact>
</mgrwt>
</event>
<event>
 6    1  0.5026615E-004  0.4027772E+04  0.7818608E-02  0.7998967E-01
          2   -1    0    0  501    0  0.00000000000E+00  0.00000000000E+00  0.17038701814E+04  0.17038701814E+04  0.00000000000E+00 0. -1.
         -2   -1    0    0    0  501 -0.00000000000E+00 -0.00000000000E+00 -0.23803088887E+04  0.23803088887E+04  0.00000000000E+00 0.  1.
         23    2    1    2    0    0 -0.17325081839E+04 -0.10224819198E+04 -0.40511881448E+03  0.20542361232E+04  0.93332270715E+02 0.  0.
         11    1    3    3    0    0 -0.13529430747E+04 -0.78560092979E+03 -0.35276179090E+03  0.16037657763E+04  0.00000000000E+00 0.  1.
        -11    1    3    3    0    0 -0.37956510918E+03 -0.23688098999E+03 -0.52357023579E+02  0.45047034691E+03  0.00000000000E+00 0. -1.
         22    1    1    2    0    0  0.17325081839E+04  0.10224819198E+04 -0.27131989276E+03  0.20299429469E+04  0.00000000000E+00 0. -1.
<mgrwt>
<rscale>  0 0.40277723E+04</rscale>
<asrwt>0</asrwt>
<pdfrwt beam="1">  1        2 0.26213387E+00 0.40277723E+04</pdfrwt>
<pdfrwt beam="2">  1       -2 0.36620137E+00 0.40277723E+04</pdfrwt>
<totfact> 0.94274765E-02</totfact>
</mgrwt>
</event>
<event>
 6    1  0.5026615E-004  0.1144742E+04  0.7818608E-02  0.9162648E-01
         -2   -1    0    0    0  501 -0.00000000000E+00  0.00000000000E+00  0.48958907238E+03  0.48958907238E+03  0.00000000000E+00 0. -1.
          2   -1    0    0  501    0  0.00000000000E+00 -0.00000000000E+00 -0.66914949980E+03  0.66914949980E+03  0.00000000000E+00 0.  1.
         23    2    1    2    0    0 -0.34622240727E+03  0.24171082746E+03 -0.47599182585E+03  0.64282612478E+03  0.91450144965E+02 0.  0.
         11    1    3    3    0    0 -0.93547916545E+02  0.79198179365E+02 -0.20169121230E+03  0.23601463816E+03  0.00000000000E+00 0. -1.
        -11    1    3    3    0    0 -0.25267449072E+03  0.16251264810E+03 -0.27430061355E+03  0.40681148662E+03  0.00000000000E+00 0.  1.
         22    1    1    2    0    0  0.34622240727E+03 -0.24171082746E+03  0.29643139843E+03  0.51591244740E+03  0.00000000000E+00 0.  1.
<mgrwt>
<rscale>  0 0.11447415E+04</rscale>
<asrwt>0</asrwt>
<pdfrwt beam="1">  1        2 0.10294608E+00 0.11447415E+04</pdfrwt>
<pdfrwt beam="2">  1       -2 0.75321396E-01 0.11447415E+04</pdfrwt>
<totfact> 0.67959848E+01</totfact>
</mgrwt>
</event>
<event>
 6    1  0.5026615E-004  0.8818821E+03  0.7818608E-02  0.9448517E-01
         -2   -1    0    0    0  501 -0.00000000000E+00  0.00000000000E+00  0.59938711081E+03  0.59938711081E+03  0.00000000000E+00 0. -1.
          2   -1    0    0  501    0  0.00000000000E+00 -0.00000000000E+00 -0.32437969115E+03  0.32437969115E+03  0.00000000000E+00 0.  1.
         23    2    1    2    0    0 -0.19500283067E+03  0.38967417912E+03  0.16238201896E+03  0.47370397220E+03  0.90307604088E+02 0.  0.
         13    1    3    3    0    0 -0.92797366049E+02  0.13487888781E+03  0.10109675660E+03  0.19241678647E+03  0.00000000000E+00 0. -1.
        -13    1    3    3    0    0 -0.10220546462E+03  0.25479529131E+03  0.61285262368E+02  0.28128718573E+03  0.00000000000E+00 0.  1.
         22    1    1    2    0    0  0.19500283067E+03 -0.38967417912E+03  0.11262540070E+03  0.45006282975E+03  0.00000000000E+00 0. -1.
<mgrwt>
<rscale>  0 0.88188209E+03</rscale>
<asrwt>0</asrwt>
<pdfrwt beam="1">  1        2 0.49904568E-01 0.88188209E+03</pdfrwt>
<pdfrwt beam="2">  1       -2 0.92213401E-01 0.88188209E+03</pdfrwt>
<totfact> 0.10095545E+02</totfact>
</mgrwt>
</event>
<event>
 6    1  0.5026615E-004  0.1355083E+04  0.7818608E-02  0.8986989E-01
          2   -1    0    0  501    0  0.00000000000E+00  0.00000000000E+00  0.18023045347E+04  0.18023045347E+04  0.00000000000E+00 0.  1.
         -2   -1    0    0    0  501 -0.00000000000E+00 -0.00000000000E+00 -0.25470856534E+03  0.25470856534E+03  0.00000000000E+00 0. -1.
         23    2    1    2    0    0  0.53843434054E+03 -0.13263155760E+03  0.13584005434E+04  0.14710970835E+04  0.10663922271E+03 0.  0.
         11    1    3    3    0    0  0.26733001442E+03 -0.62832796091E+02  0.81159274130E+03  0.85679406779E+03  0.00000000000E+00 0. -1.
        -11    1    3    3    0    0  0.27110432612E+03 -0.69798761510E+02  0.54680780208E+03  0.61430301575E+03  0.00000000000E+00 0.  1.
         22    1    1    2    0    0 -0.53843434054E+03  0.13263155760E+03  0.18919542596E+03  0.58591601646E+03  0.00000000000E+00 0. -1.
<mgrwt>
<rscale>  0 0.13550829E+04</rscale>
<asrwt>0</asrwt>
<pdfrwt beam="1">  1        2 0.27727761E+00 0.13550829E+04</pdfrwt>
<pdfrwt beam="2">  1       -2 0.39185934E-01 0.13550829E+04</pdfrwt>
<totfact> 0.51726676E+01</totfact>
</mgrwt>
</event>
<event>
 6    1  0.5026615E-004  0.3203634E+04  0.7818608E-02  0.8187858E-01
         -2   -1    0    0    0  501 -0.00000000000E+00  0.00000000000E+00  0.12814275808E+04  0.12814275808E+04  0.00000000000E+00 0. -1.
          2   -1    0    0  501    0  0.00000000000E+00 -0.00000000000E+00 -0.20023114806E+04  0.20023114806E+04  0.00000000000E+00 0.  1.
         23    2    1    2    0    0 -0.13173441835E+04 -0.83302705234E+03 -0.73361816544E+03  0.17250563069E+04  0.91070751817E+02 0.  0.
         11    1    3    3    0    0 -0.63062333333E+03 -0.43729222496E+03 -0.39606830066E+03  0.86358576722E+03  0.00000000000E+00 0.  1.
        -11    1    3    3    0    0 -0.68672085012E+03 -0.39573482737E+03 -0.33754986477E+03  0.86147053972E+03  0.00000000000E+00 0. -1.
         22    1    1    2    0    0  0.13173441835E+04  0.83302705234E+03  0.12734265632E+02  0.15586827545E+04  0.00000000000E+00 0. -1.
<mgrwt>
<rscale>  0 0.32036337E+04</rscale>
<asrwt>0</asrwt>
<pdfrwt beam="1">  1        2 0.30804792E+00 0.32036337E+04</pdfrwt>
<pdfrwt beam="2">  1       -2 0.19714271E+00 0.32036337E+04</pdfrwt>
<totfact> 0.77894895E-01</totfact>
</mgrwt>
</event>
<event>
 6    1  0.5026615E-004  0.8061968E+04  0.7818608E-02  0.7476841E-01
         -2   -1    0    0    0  501 -0.00000000000E+00  0.00000000000E+00  0.43127536663E+04  0.43127536663E+04  0.00000000000E+00 0. -1.
          2   -1    0    0  501    0  0.00000000000E+00 -0.00000000000E+00 -0.37676238876E+04  0.37676238876E+04  0.00000000000E+00 0.  1.
         23    2    1    2    0    0 -0.20070017834E+04 -0.80538870281E+03 -0.31363396377E+04  0.38107260241E+04  0.91100967860E+02 0.  0.
         11    1    3    3    0    0 -0.12949707073E+04 -0.54993748361E+03 -0.20974974590E+04  0.25256436722E+04  0.00000000000E+00 0. -1.
        -11    1    3    3    0    0 -0.71203107616E+03 -0.25545121920E+03 -0.10388421787E+04  0.12850823519E+04  0.00000000000E+00 0.  1.
         22    1    1    2    0    0  0.20070017834E+04  0.80538870281E+03  0.36814694165E+04  0.42696515298E+04  0.00000000000E+00 0.  1.
<mgrwt>
<rscale>  0 0.80619684E+04</rscale>
<asrwt>0</asrwt>
<pdfrwt beam="1">  1        2 0.57963445E+00 0.80619684E+04</pdfrwt>
<pdfrwt beam="2">  1       -2 0.66350056E+00 0.80619684E+04</pdfrwt>
<totfact> 0.93699245E-05</totfact>
</mgrwt>
</event>
<event>
 6    1  0.5026615E-004  0.2653657E+04  0.7818608E-02  0.8350200E-01
          2   -1    0    0  501    0  0.00000000000E+00  0.00000000000E+00  0.91540811882E+03  0.91540811882E+03  0.00000000000E+00 0.  1.
         -2   -1    0    0    0  501 -0.00000000000E+00 -0.00000000000E+00 -0.19231567543E+04  0.19231567543E+04  0.00000000000E+00 0. -1.
         23    2    1    2    0    0 -0.31087339162E+03 -0.14897280854E+03  0.86436025831E+03  0.93498223149E+03  0.90763173969E+02 0.  0.
         11    1    3    3    0    0 -0.21722015635E+03 -0.12211097750E+03  0.51231438033E+03  0.56970317837E+03  0.00000000000E+00 0. -1.
        -11    1    3    3    0    0 -0.93653235264E+02 -0.26861831033E+02  0.35204587798E+03  0.36527905311E+03  0.00000000000E+00 0.  1.
         22    1    1    2    0    0  0.31087339162E+03  0.14897280854E+03 -0.18721088938E+04  0.19035826416E+04  0.00000000000E+00 0. -1.
<mgrwt>
<rscale>  0 0.26536566E+04</rscale>
<asrwt>0</asrwt>
<pdfrwt beam="1">  1        2 0.14083202E+00 0.26536566E+04</pdfrwt>
<pdfrwt beam="2">  1       -2 0.29587027E+00 0.26536566E+04</pdfrwt>
<totfact> 0.84934797E-01</totfact>
</mgrwt>
</event>
<event>
 6    1  0.5026615E-004  0.4770585E+04  0.7818608E-02  0.7864905E-01
         -2   -1    0    0    0  501 -0.00000000000E+00  0.00000000000E+00  0.18636908085E+04  0.18636908085E+04  0.00000000000E+00 0. -1.
          2   -1    0    0  501    0  0.00000000000E+00 -0.00000000000E+00 -0.30528775839E+04  0.30528775839E+04  0.00000000000E+00 0.  1.
         23    2    1    2    0    0 -0.88255475020E+03 -0.22133406553E+04 -0.50331688598E+03  0.24370125352E+04  0.89008232335E+02 0.  0.
         13    1    3    3    0    0 -0.68895530115E+03 -0.17469108985E+04 -0.43293238405E+03  0.19271189749E+04  0.00000000000E+00 0.  1.
        -13    1    3    3    0    0 -0.19359944904E+03 -0.46642975679E+03 -0.70384501926E+02  0.50989356026E+03  0.00000000000E+00 0. -1.
         22    1    1    2    0    0  0.88255475020E+03  0.22133406553E+04 -0.68586988944E+03  0.24795558572E+04  0.00000000000E+00 0. -1.
<mgrwt>
<rscale>  0 0.47705848E+04</rscale>
<asrwt>0</asrwt>
<pdfrwt beam="1">  1        2 0.46967347E+00 0.47705848E+04</pdfrwt>
<pdfrwt beam="2">  1       -2 0.28672167E+00 0.47705848E+04</pdfrwt>
<totfact> 0.45778774E-02</totfact>
</mgrwt>
</event>
<event>
 6    1  0.5026615E-004  0.2102279E+04  0.7818608E-02  0.8560240E-01
          4   -1    0    0  501    0  0.00000000000E+00  0.00000000000E+00  0.11588447403E+04  0.11588447403E+04  0.00000000000E+00 0.  1.
         -4   -1    0    0    0  501 -0.00000000000E+00 -0.00000000000E+00 -0.95344450403E+03  0.95344450403E+03  0.00000000000E+00 0. -1.
         23    2    1    2    0    0 -0.93918251489E+03  0.42667185780E+03  0.29509462968E+03  0.10768387362E+04  0.91586859359E+02 0.  0.
         13    1    3    3    0    0 -0.47464753324E+03  0.16856384668E+03  0.16033343369E+03  0.52859328522E+03  0.00000000000E+00 0.  1.
        -13    1    3    3    0    0 -0.46453498166E+03  0.25810801112E+03  0.13476119599E+03  0.54824545099E+03  0.00000000000E+00 0. -1.
         22    1    1    2    0    0  0.93918251489E+03 -0.42667185780E+03 -0.89694393431E+02  0.10354505081E+04  0.00000000000E+00 0. -1.
<mgrwt>
<rscale>  0 0.21022789E+04</rscale>
<asrwt>0</asrwt>
<pdfrwt beam="1">  1        4 0.17828380E+00 0.21022789E+04</pdfrwt>
<pdfrwt beam="2">  1       -4 0.14668377E+00 0.21022789E+04</pdfrwt>
<totfact> 0.10761970E-01</totfact>
</mgrwt>
</event>
<event>
 6    1  0.5026615E-004  0.5193935E+04  0.7818608E-02  0.7799268E-01
         -2   -1    0    0    0  501 -0.00000000000E+00  0.00000000000E+00  0.21346592819E+04  0.21346592819E+04  0.00000000000E+00 0. -1.
          2   -1    0    0  501    0  0.00000000000E+00 -0.00000000000E+00 -0.31593992336E+04  0.31593992336E+04  0.00000000000E+00 0.  1.
         23    2    1    2    0    0  0.81984626949E+03  0.22666609903E+04 -0.14955687850E+04  0.28381310449E+04  0.91443353205E+02 0.  0.
         13    1    3    3    0    0  0.48679394114E+03  0.12123168050E+04 -0.81422091910E+03  0.15393622322E+04  0.00000000000E+00 0. -1.
        -13    1    3    3    0    0  0.33305232835E+03  0.10543441853E+04 -0.68134786587E+03  0.12987688127E+04  0.00000000000E+00 0.  1.
         22    1    1    2    0    0 -0.81984626949E+03 -0.22666609903E+04  0.47082883331E+03  0.24559274706E+04  0.00000000000E+00 0. -1.
<mgrwt>
<rscale>  0 0.51939353E+04</rscale>
<asrwt>0</asrwt>
<pdfrwt beam="1">  1        2 0.48606142E+00 0.51939353E+04</pdfrwt>
<pdfrwt beam="2">  1       -2 0.32840912E+00 0.51939353E+04</pdfrwt>
<totfact> 0.20963841E-02</totfact>
</mgrwt>
</event>
<event>
 6    1  0.5026615E-004  0.3507955E+04  0.7818608E-02  0.8111907E-01
         -2   -1    0    0    0  501 -0.00000000000E+00  0.00000000000E+00  0.13815301574E+04  0.13815301574E+04  0.00000000000E+00 0. -1.
          2   -1    0    0  501    0  0.00000000000E+00 -0.00000000000E+00 -0.22268336088E+04  0.22268336088E+04  0.00000000000E+00 0.  1.
         23    2    1    2    0    0 -0.17117561528E+04  0.22468640585E+03 -0.11182799686E+03  0.17325761049E+04  0.93388173466E+02 0.  0.
         13    1    3    3    0    0 -0.66384904673E+03  0.11307042722E+03 -0.81299159424E+02  0.67829936730E+03  0.00000000000E+00 0. -1.
        -13    1    3    3    0    0 -0.10479071060E+04  0.11161597862E+03 -0.30528837435E+02  0.10542767376E+04  0.00000000000E+00 0.  1.
         22    1    1    2    0    0  0.17117561528E+04 -0.22468640585E+03 -0.73347545454E+03  0.18757876612E+04  0.00000000000E+00 0. -1.
<mgrwt>
<rscale>  0 0.35079554E+04</rscale>
<asrwt>0</asrwt>
<pdfrwt beam="1">  1        2 0.34258979E+00 0.35079554E+04</pdfrwt>
<pdfrwt beam="2">  1       -2 0.21254310E+00 0.35079554E+04</pdfrwt>
<totfact> 0.45162507E-01</totfact>
</mgrwt>
</event>
<event>
 6    1  0.5026615E-004  0.7402508E+03  0.7818608E-02  0.9650771E-01
          2   -1    0    0  501    0  0.00000000000E+00  0.00000000000E+00  0.11252845764E+04  0.11252845764E+04  0.00000000000E+00 0.  1.
         -2   -1    0    0    0  501 -0.00000000000E+00 -0.00000000000E+00 -0.12174060613E+03  0.12174060613E+03  0.00000000000E+00 0. -1.
         23    2    1    2    0    0  0.28444481189E+03 -0.16140936610E+03  0.23750035349E+03  0.41408781556E+03  0.90002592219E+02 0.  0.
         13    1    3    3    0    0  0.24048205901E+03 -0.12212380475E+03  0.23035897251E+03  0.35469860531E+03  0.00000000000E+00 0. -1.
        -13    1    3    3    0    0  0.43962752884E+02 -0.39285561352E+02  0.71413809848E+01  0.59389210251E+02  0.00000000000E+00 0.  1.
         22    1    1    2    0    0 -0.28444481189E+03  0.16140936610E+03  0.76604361679E+03  0.83293736698E+03  0.00000000000E+00 0.  1.
<mgrwt>
<rscale>  0 0.74025084E+03</rscale>
<asrwt>0</asrwt>
<pdfrwt beam="1">  1        2 0.17312070E+00 0.74025084E+03</pdfrwt>
<pdfrwt beam="2">  1       -2 0.18729325E-01 0.74025084E+03</pdfrwt>
<totfact> 0.50677064E+02</totfact>
</mgrwt>
</event>
<event>
 6    1  0.5026615E-004  0.1395971E+04  0.7818608E-02  0.8956740E-01
         -2   -1    0    0    0  501 -0.00000000000E+00  0.00000000000E+00  0.28845593500E+03  0.28845593500E+03  0.00000000000E+00 0. -1.
          2   -1    0    0  501    0  0.00000000000E+00 -0.00000000000E+00 -0.16889359254E+04  0.16889359254E+04  0.00000000000E+00 0.  1.
         23    2    1    2    0    0  0.33823846280E+03 -0.57703393961E+03 -0.43554753724E+03  0.80331006412E+03  0.90730241629E+02 0.  0.
         13    1    3    3    0    0  0.29178089483E+03 -0.46763279438E+03 -0.39346576602E+03  0.67722361891E+03  0.00000000000E+00 0.  1.
        -13    1    3    3    0    0  0.46457567964E+02 -0.10940114523E+03 -0.42081771215E+02  0.12608644522E+03  0.00000000000E+00 0. -1.
         22    1    1    2    0    0 -0.33823846280E+03  0.57703393961E+03 -0.96493245318E+03  0.11740817963E+04  0.00000000000E+00 0. -1.
<mgrwt>
<rscale>  0 0.13959708E+04</rscale>
<asrwt>0</asrwt>
<pdfrwt beam="1">  1        2 0.25983630E+00 0.13959708E+04</pdfrwt>
<pdfrwt beam="2">  1       -2 0.44377835E-01 0.13959708E+04</pdfrwt>
<totfact> 0.46627671E+01</totfact>
</mgrwt>
</event>
<event>
 6    1  0.5026615E-004  0.3341692E+04  0.7818608E-02  0.8152367E-01
          2   -1    0    0  501    0  0.00000000000E+00  0.00000000000E+00  0.44514469141E+04  0.44514469141E+04  0.00000000000E+00 0.  1.
         -2   -1    0    0    0  501 -0.00000000000E+00 -0.00000000000E+00 -0.62715016078E+03  0.62715016078E+03  0.00000000000E+00 0. -1.
         23    2    1    2    0    0 -0.10442177978E+03  0.16485945492E+04  0.15468439151E+04  0.22651366919E+04  0.96696637573E+02 0.  0.
         11    1    3    3    0    0 -0.37251398230E+02  0.11833795375E+04  0.11371271408E+04  0.16415946305E+04  0.00000000000E+00 0. -1.
        -11    1    3    3    0    0 -0.67170381548E+02  0.46521501175E+03  0.40971677425E+03  0.62354206146E+03  0.00000000000E+00 0.  1.
         22    1    1    2    0    0  0.10442177978E+03 -0.16485945492E+04  0.22774528382E+04  0.28134603829E+04  0.00000000000E+00 0.  1.
<mgrwt>
<rscale>  0 0.33416916E+04</rscale>
<asrwt>0</asrwt>
<pdfrwt beam="1">  1        2 0.68483797E+00 0.33416916E+04</pdfrwt>
<pdfrwt beam="2">  1       -2 0.96484643E-01 0.33416916E+04</pdfrwt>
<totfact> 0.10224035E-01</totfact>
</mgrwt>
</event>
<event>
 6    1  0.5026615E-004  0.1753182E+04  0.7818608E-02  0.8731601E-01
         -2   -1    0    0    0  501 -0.00000000000E+00  0.00000000000E+00  0.26826525599E+03  0.26826525599E+03  0.00000000000E+00 0. -1.
          2   -1    0    0  501    0  0.00000000000E+00 -0.00000000000E+00 -0.28643724395E+04  0.28643724395E+04  0.00000000000E+00 0.  1.
         23    2    1    2    0    0  0.36530461233E+03 -0.28252521793E+02 -0.27198002986E+04  0.27459263672E+04  0.92478565046E+02 0.  0.
         13    1    3    3    0    0  0.15510981998E+03  0.10342013751E+02 -0.86530487794E+03  0.87915786141E+03  0.00000000000E+00 0. -1.
        -13    1    3    3    0    0  0.21019479235E+03 -0.38594535544E+02 -0.18544954206E+04  0.18667685058E+04  0.00000000000E+00 0.  1.
         22    1    1    2    0    0 -0.36530461233E+03  0.28252521793E+02  0.12369311502E+03  0.38671132836E+03  0.00000000000E+00 0. -1.
<mgrwt>
<rscale>  0 0.17531818E+04</rscale>
<asrwt>0</asrwt>
<pdfrwt beam="1">  1        2 0.44067270E+00 0.17531818E+04</pdfrwt>
<pdfrwt beam="2">  1       -2 0.41271577E-01 0.17531818E+04</pdfrwt>
<totfact> 0.11171807E+01</totfact>
</mgrwt>
</event>
<event>
 6    1  0.5026615E-004  0.2856652E+04  0.7818608E-02  0.8285893E-01
         -2   -1    0    0    0  501 -0.00000000000E+00  0.00000000000E+00  0.80104603797E+03  0.80104603797E+03  0.00000000000E+00 0. -1.
          2   -1    0    0  501    0  0.00000000000E+00 -0.00000000000E+00 -0.25468143137E+04  0.25468143137E+04  0.00000000000E+00 0.  1.
         23    2    1    2    0    0  0.76414547574E+03 -0.10038084231E+04 -0.92383875518E+02  0.12681417089E+04  0.89994194404E+02 0.  0.
         11    1    3    3    0    0  0.41032818810E+03 -0.46719115154E+03 -0.56910754381E+02  0.62440021460E+03  0.00000000000E+00 0. -1.
        -11    1    3    3    0    0  0.35381728763E+03 -0.53661727152E+03 -0.35473121137E+02  0.64374149427E+03  0.00000000000E+00 0.  1.
         22    1    1    2    0    0 -0.76414547574E+03  0.10038084231E+04 -0.16533844002E+04  0.20797186428E+04  0.00000000000E+00 0.  1.
<mgrwt>
<rscale>  0 0.28566522E+04</rscale>
<asrwt>0</asrwt>
<pdfrwt beam="1">  1        2 0.39181758E+00 0.28566522E+04</pdfrwt>
<pdfrwt beam="2">  1       -2 0.12323785E+00 0.28566522E+04</pdfrwt>
<totfact> 0.14066622E+00</totfact>
</mgrwt>
</event>
<event>
 6    1  0.5854451E-004  0.4893804E+04  0.7818608E-02  0.7845101E-01
         -2   -1    0    0    0  501 -0.00000000000E+00  0.00000000000E+00  0.29655894310E+04  0.29655894310E+04  0.00000000000E+00 0. -1.
          2   -1    0    0  501    0  0.00000000000E+00 -0.00000000000E+00 -0.20189339057E+04  0.20189339057E+04  0.00000000000E+00 0.  1.
         23    2    1    2    0    0  0.37202334912E+03 -0.11338455082E+04 -0.17012281770E+04  0.20801653854E+04  0.94359478586E+02 0.  0.
         11    1    3    3    0    0  0.51702606885E+02 -0.28167989469E+03 -0.38821689489E+03  0.48242002458E+03  0.00000000000E+00 0.  1.
        -11    1    3    3    0    0  0.32032074224E+03 -0.85216561354E+03 -0.13130112822E+04  0.15977453608E+04  0.00000000000E+00 0. -1.
         22    1    1    2    0    0 -0.37202334912E+03  0.11338455082E+04  0.26478837023E+04  0.29043579514E+04  0.00000000000E+00 0. -1.
<mgrwt>
<rscale>  0 0.48938039E+04</rscale>
<asrwt>0</asrwt>
<pdfrwt beam="1">  1        2 0.31060522E+00 0.48938039E+04</pdfrwt>
<pdfrwt beam="2">  1       -2 0.45624453E+00 0.48938039E+04</pdfrwt>
<totfact> 0.15154318E-02</totfact>
</mgrwt>
</event>
<event>
 6    1  0.5026615E-004  0.2498974E+04  0.7818608E-02  0.8403351E-01
         -2   -1    0    0    0  501 -0.00000000000E+00  0.00000000000E+00  0.59150809725E+03  0.59150809725E+03  0.00000000000E+00 0. -1.
          2   -1    0    0  501    0  0.00000000000E+00 -0.00000000000E+00 -0.26393860380E+04  0.26393860380E+04  0.00000000000E+00 0.  1.
         23    2    1    2    0    0 -0.85643029313E+03 -0.73515218527E+03 -0.33770376348E+03  0.11818413543E+04  0.93720714792E+02 0.  0.
         11    1    3    3    0    0 -0.76254435500E+03 -0.61822689604E+03 -0.30909357700E+03  0.10291827960E+04  0.00000000000E+00 0.  1.
        -11    1    3    3    0    0 -0.93885938132E+02 -0.11692528923E+03 -0.28610186479E+02  0.15265855827E+03  0.00000000000E+00 0. -1.
         22    1    1    2    0    0  0.85643029313E+03  0.73515218527E+03 -0.17101741772E+04  0.20490527809E+04  0.00000000000E+00 0.  1.
<mgrwt>
<rscale>  0 0.24989744E+04</rscale>
<asrwt>0</asrwt>
<pdfrwt beam="1">  1        2 0.40605939E+00 0.24989744E+04</pdfrwt>
<pdfrwt beam="2">  1       -2 0.91001246E-01 0.24989744E+04</pdfrwt>
<totfact> 0.26502787E+00</totfact>
</mgrwt>
</event>
<event>
 6    1  0.5026615E-004  0.1297951E+04  0.7818608E-02  0.9031192E-01
         -2   -1    0    0    0  501 -0.00000000000E+00  0.00000000000E+00  0.45375974793E+03  0.45375974793E+03  0.00000000000E+00 0. -1.
          2   -1    0    0  501    0  0.00000000000E+00 -0.00000000000E+00 -0.92817613979E+03  0.92817613979E+03  0.00000000000E+00 0.  1.
         23    2    1    2    0    0  0.82240095659E+02  0.21958320555E+03  0.40203309941E+03  0.47466309069E+03  0.93242796777E+02 0.  0.
         13    1    3    3    0    0  0.68832213316E+02  0.58244936727E+02  0.15456234576E+03  0.17894095387E+03  0.00000000000E+00 0. -1.
        -13    1    3    3    0    0  0.13407882343E+02  0.16133826883E+03  0.24747075364E+03  0.29572213682E+03  0.00000000000E+00 0.  1.
         22    1    1    2    0    0 -0.82240095659E+02 -0.21958320555E+03 -0.87644949127E+03  0.90727279703E+03  0.00000000000E+00 0.  1.
<mgrwt>
<rscale>  0 0.12979506E+04</rscale>
<asrwt>0</asrwt>
<pdfrwt beam="1">  1        2 0.14279633E+00 0.12979506E+04</pdfrwt>
<pdfrwt beam="2">  1       -2 0.69809193E-01 0.12979506E+04</pdfrwt>
<totfact> 0.51474449E+01</totfact>
</mgrwt>
</event>
<event>
 6    1  0.5026615E-004  0.1200462E+04  0.7818608E-02  0.9112452E-01
          2   -1    0    0  501    0  0.00000000000E+00  0.00000000000E+00  0.32811776292E+04  0.32811776292E+04  0.00000000000E+00 0.  1.
         -2   -1    0    0    0  501 -0.00000000000E+00 -0.00000000000E+00 -0.10980121234E+03  0.10980121234E+03  0.00000000000E+00 0. -1.
         23    2    1    2    0    0  0.52335060117E+03 -0.24900067036E+03  0.19976709942E+04  0.20819786106E+04  0.89712585897E+02 0.  0.
         11    1    3    3    0    0  0.23507127965E+03 -0.13961740419E+03  0.10715099176E+04  0.11058413221E+04  0.00000000000E+00 0. -1.
        -11    1    3    3    0    0  0.28827932151E+03 -0.10938326617E+03  0.92616107662E+03  0.97613728849E+03  0.00000000000E+00 0.  1.
         22    1    1    2    0    0 -0.52335060117E+03  0.24900067036E+03  0.11737054227E+04  0.13090002310E+04  0.00000000000E+00 0.  1.
<mgrwt>
<rscale>  0 0.12004620E+04</rscale>
<asrwt>0</asrwt>
<pdfrwt beam="1">  1        2 0.50479648E+00 0.12004620E+04</pdfrwt>
<pdfrwt beam="2">  1       -2 0.16892497E-01 0.12004620E+04</pdfrwt>
<totfact> 0.33102272E+01</totfact>
</mgrwt>
</event>
<event>
 6    1  0.5026615E-004  0.1487476E+04  0.7818608E-02  0.8892824E-01
          2   -1    0    0  501    0  0.00000000000E+00  0.00000000000E+00  0.13344014869E+04  0.13344014869E+04  0.00000000000E+00 0.  1.
         -2   -1    0    0    0  501 -0.00000000000E+00 -0.00000000000E+00 -0.41452752661E+03  0.41452752661E+03  0.00000000000E+00 0. -1.
         23    2    1    2    0    0  0.23616436143E+03  0.49038428727E+03  0.10528678852E+04  0.11886275421E+04  0.89745726410E+02 0.  0.
         13    1    3    3    0    0  0.17263388719E+03  0.43247490359E+03  0.89221903415E+03  0.10064252611E+04  0.00000000000E+00 0. -1.
        -13    1    3    3    0    0  0.63530474242E+02  0.57909383688E+02  0.16064885102E+03  0.18220228102E+03  0.00000000000E+00 0.  1.
         22    1    1    2    0    0 -0.23616436143E+03 -0.49038428727E+03 -0.13299392488E+03  0.56030147142E+03  0.00000000000E+00 0. -1.
<mgrwt>
<rscale>  0 0.14874759E+04</rscale>
<asrwt>0</asrwt>
<pdfrwt beam="1">  1        2 0.20529253E+00 0.14874759E+04</pdfrwt>
<pdfrwt beam="2">  1       -2 0.63773466E-01 0.14874759E+04</pdfrwt>
<totfact> 0.34721702E+01</totfact>
</mgrwt>
</event>
<event>
 6    1  0.5026615E-004  0.3862927E+04  0.7818608E-02  0.8032784E-01
         -2   -1    0    0    0  501 -0.00000000000E+00  0.00000000000E+00  0.27482646283E+04  0.27482646283E+04  0.00000000000E+00 0. -1.
          2   -1    0    0  501    0  0.00000000000E+00 -0.00000000000E+00 -0.13574209698E+04  0.13574209698E+04  0.00000000000E+00 0.  1.
         23    2    1    2    0    0  0.10278036550E+04 -0.14541156986E+04  0.14877981533E+04  0.23223648216E+04  0.94879930367E+02 0.  0.
         13    1    3    3    0    0  0.53683204110E+03 -0.81743487218E+03  0.85982150129E+03  0.13021833299E+04  0.00000000000E+00 0. -1.
        -13    1    3    3    0    0  0.49097161391E+03 -0.63668082645E+03  0.62797665201E+03  0.10201814916E+04  0.00000000000E+00 0.  1.
         22    1    1    2    0    0 -0.10278036550E+04  0.14541156986E+04 -0.96954494791E+02  0.17833207766E+04  0.00000000000E+00 0.  1.
<mgrwt>
<rscale>  0 0.38629274E+04</rscale>
<asrwt>0</asrwt>
<pdfrwt beam="1">  1        2 0.20883400E+00 0.38629274E+04</pdfrwt>
<pdfrwt beam="2">  1       -2 0.42280994E+00 0.38629274E+04</pdfrwt>
<totfact> 0.64121078E-02</totfact>
</mgrwt>
</event>
<event>
 6    1  0.5026615E-004  0.9116932E+03  0.7818608E-02  0.9411081E-01
          2   -1    0    0  501    0  0.00000000000E+00  0.00000000000E+00  0.14788035940E+03  0.14788035940E+03  0.00000000000E+00 0.  1.
         -2   -1    0    0    0  501 -0.00000000000E+00 -0.00000000000E+00 -0.14051636831E+04  0.14051636831E+04  0.00000000000E+00 0. -1.
         23    2    1    2    0    0 -0.24049625678E+02  0.26831995552E+03 -0.18723397286E+02  0.28552494034E+03  0.92735877233E+02 0.  0.
         13    1    3    3    0    0  0.28065649473E+02  0.83146192309E+02  0.18259027643E+02  0.89634603063E+02  0.00000000000E+00 0.  1.
        -13    1    3    3    0    0 -0.52115275151E+02  0.18517376321E+03 -0.36982424929E+02  0.19589033728E+03  0.00000000000E+00 0. -1.
         22    1    1    2    0    0  0.24049625678E+02 -0.26831995552E+03 -0.12385599264E+04  0.12675191021E+04  0.00000000000E+00 0. -1.
<mgrwt>
<rscale>  0 0.91169317E+03</rscale>
<asrwt>0</asrwt>
<pdfrwt beam="1">  1        2 0.22750824E-01 0.91169317E+03</pdfrwt>
<pdfrwt beam="2">  1       -2 0.21617904E+00 0.91169317E+03</pdfrwt>
<totfact> 0.25757316E+01</totfact>
</mgrwt>
</event>
<event>
 6    1  0.5026615E-004  0.3027554E+04  0.7818608E-02  0.8235906E-01
         -2   -1    0    0    0  501 -0.00000000000E+00  0.00000000000E+00  0.17674023575E+04  0.17674023575E+04  0.00000000000E+00 0. -1.
          2   -1    0    0  501    0  0.00000000000E+00 -0.00000000000E+00 -0.12965474229E+04  0.12965474229E+04  0.00000000000E+00 0.  1.
         23    2    1    2    0    0  0.53488850220E+02 -0.12264243793E+04 -0.65829985590E+03  0.13960264141E+04  0.92483691825E+02 0.  0.
         11    1    3    3    0    0  0.32171700655E+02 -0.41718783735E+03 -0.17771859189E+03  0.45460379217E+03  0.00000000000E+00 0. -1.
        -11    1    3    3    0    0  0.21317149565E+02 -0.80923654195E+03 -0.48058126401E+03  0.94142262190E+03  0.00000000000E+00 0.  1.
         22    1    1    2    0    0 -0.53488850220E+02  0.12264243793E+04  0.11291547905E+04  0.16679233664E+04  0.00000000000E+00 0. -1.
<mgrwt>
<rscale>  0 0.30275541E+04</rscale>
<asrwt>0</asrwt>
<pdfrwt beam="1">  1        2 0.19946883E+00 0.30275541E+04</pdfrwt>
<pdfrwt beam="2">  1       -2 0.27190805E+00 0.30275541E+04</pdfrwt>
<totfact> 0.66928238E-01</totfact>
</mgrwt>
</event>
<event>
 6    1  0.5026615E-004  0.4682315E+04  0.7818608E-02  0.7879474E-01
         -2   -1    0    0    0  501 -0.00000000000E+00  0.00000000000E+00  0.16841913667E+04  0.16841913667E+04  0.00000000000E+00 0. -1.
          2   -1    0    0  501    0  0.00000000000E+00 -0.00000000000E+00 -0.32543916824E+04  0.32543916824E+04  0.00000000000E+00 0.  1.
         23    2    1    2    0    0  0.20371794427E+04 -0.73687827944E+03  0.14829081023E+03  0.21733884031E+04  0.92397543167E+02 0.  0.
         11    1    3    3    0    0  0.57933484071E+03 -0.16937606245E+03  0.58279229643E+02  0.60639391224E+03  0.00000000000E+00 0. -1.
        -11    1    3    3    0    0  0.14578446020E+04 -0.56750221699E+03  0.90011580588E+02  0.15669944909E+04  0.00000000000E+00 0.  1.
         22    1    1    2    0    0 -0.20371794427E+04  0.73687827944E+03 -0.17184911259E+04  0.27651946460E+04  0.00000000000E+00 0. -1.
<mgrwt>
<rscale>  0 0.46823150E+04</rscale>
<asrwt>0</asrwt>
<pdfrwt beam="1">  1        2 0.50067563E+00 0.46823150E+04</pdfrwt>
<pdfrwt beam="2">  1       -2 0.25910637E+00 0.46823150E+04</pdfrwt>
<totfact> 0.50326682E-02</totfact>
</mgrwt>
</event>
<event>
 6    1  0.5026615E-004  0.2650163E+04  0.7818608E-02  0.8351359E-01
          2   -1    0    0  501    0  0.00000000000E+00  0.00000000000E+00  0.22835202415E+04  0.22835202415E+04  0.00000000000E+00 0.  1.
         -2   -1    0    0    0  501 -0.00000000000E+00 -0.00000000000E+00 -0.76891846347E+03  0.76891846347E+03  0.00000000000E+00 0. -1.
         23    2    1    2    0    0  0.74615112784E+03  0.23525538135E+03 -0.47128586664E+03  0.91799818406E+03  0.92323874476E+02 0.  0.
         11    1    3    3    0    0  0.67600880953E+02  0.49751230558E+02 -0.59497886338E+02  0.10288373305E+03  0.00000000000E+00 0. -1.
        -11    1    3    3    0    0  0.67855024689E+03  0.18550415079E+03 -0.41178798030E+03  0.81511445101E+03  0.00000000000E+00 0.  1.
         22    1    1    2    0    0 -0.74615112784E+03 -0.23525538135E+03  0.19858876447E+04  0.21344405209E+04  0.00000000000E+00 0.  1.
<mgrwt>
<rscale>  0 0.26501629E+04</rscale>
<asrwt>0</asrwt>
<pdfrwt beam="1">  1        2 0.35131080E+00 0.26501629E+04</pdfrwt>
<pdfrwt beam="2">  1       -2 0.11829515E+00 0.26501629E+04</pdfrwt>
<totfact> 0.22448585E+00</totfact>
</mgrwt>
</event>
<event>
 6    1  0.5026615E-004  0.3673054E+04  0.7818608E-02  0.8073960E-01
         -2   -1    0    0    0  501 -0.00000000000E+00  0.00000000000E+00  0.11579644865E+04  0.11579644865E+04  0.00000000000E+00 0. -1.
          2   -1    0    0  501    0  0.00000000000E+00 -0.00000000000E+00 -0.29127243783E+04  0.29127243783E+04  0.00000000000E+00 0.  1.
         23    2    1    2    0    0  0.18332864655E+04  0.32831268754E+02 -0.78736418630E+03  0.19975579938E+04  0.90985821505E+02 0.  0.
         11    1    3    3    0    0  0.14251179459E+04  0.26257706302E+02 -0.65273288175E+03  0.15677087873E+04  0.00000000000E+00 0. -1.
        -11    1    3    3    0    0  0.40816851960E+03  0.65735624520E+01 -0.13463130455E+03  0.42984920644E+03  0.00000000000E+00 0.  1.
         22    1    1    2    0    0 -0.18332864655E+04 -0.32831268754E+02 -0.96739570551E+03  0.20731308709E+04  0.00000000000E+00 0. -1.
<mgrwt>
<rscale>  0 0.36730540E+04</rscale>
<asrwt>0</asrwt>
<pdfrwt beam="1">  1        2 0.44811144E+00 0.36730540E+04</pdfrwt>
<pdfrwt beam="2">  1       -2 0.17814838E+00 0.36730540E+04</pdfrwt>
<totfact> 0.29840311E-01</totfact>
</mgrwt>
</event>
<event>
 6    1  0.5026615E-004  0.9124372E+03  0.7818608E-02  0.9410166E-01
          1   -1    0    0  501    0  0.00000000000E+00  0.00000000000E+00  0.13876238046E+04  0.13876238046E+04  0.00000000000E+00 0.  1.
         -1   -1    0    0    0  501 -0.00000000000E+00 -0.00000000000E+00 -0.14999413207E+03  0.14999413207E+03  0.00000000000E+00 0. -1.
         23    2    1    2    0    0  0.24101395274E+03 -0.33943296814E+03  0.92110777406E+03  0.10146565830E+04  0.88238226693E+02 0.  0.
         11    1    3    3    0    0  0.16348420108E+03 -0.15898348630E+03  0.45829380885E+03  0.51189456742E+03  0.00000000000E+00 0.  1.
        -11    1    3    3    0    0  0.77529751657E+02 -0.18044948184E+03  0.46281396521E+03  0.50276201555E+03  0.00000000000E+00 0. -1.
         22    1    1    2    0    0 -0.24101395274E+03  0.33943296814E+03  0.31652189851E+03  0.52296135374E+03  0.00000000000E+00 0.  1.
<mgrwt>
<rscale>  0 0.91243724E+03</rscale>
<asrwt>0</asrwt>
<pdfrwt beam="1">  1        1 0.21348058E+00 0.91243724E+03</pdfrwt>
<pdfrwt beam="2">  1       -1 0.23076021E-01 0.91243724E+03</pdfrwt>
<totfact> 0.12679869E+02</totfact>
</mgrwt>
</event>
<event>
 6    1  0.5026615E-004  0.2859433E+04  0.7818608E-02  0.8285051E-01
          2   -1    0    0  501    0  0.00000000000E+00  0.00000000000E+00  0.32929575402E+04  0.32929575402E+04  0.00000000000E+00 0.  1.
         -2   -1    0    0    0  501 -0.00000000000E+00 -0.00000000000E+00 -0.62074571653E+03  0.62074571653E+03  0.00000000000E+00 0. -1.
         23    2    1    2    0    0 -0.79860248324E+03 -0.11841075428E+04  0.13261817777E+04  0.19511351729E+04  0.91070061201E+02 0.  0.
         11    1    3    3    0    0 -0.12722501202E+03 -0.17837580030E+03  0.24936711851E+03  0.33194591368E+03  0.00000000000E+00 0.  1.
        -11    1    3    3    0    0 -0.67137747122E+03 -0.10057317425E+04  0.10768146592E+04  0.16191892592E+04  0.00000000000E+00 0. -1.
         22    1    1    2    0    0  0.79860248324E+03  0.11841075428E+04  0.13460300460E+04  0.19625680839E+04  0.00000000000E+00 0.  1.
<mgrwt>
<rscale>  0 0.28594330E+04</rscale>
<asrwt>0</asrwt>
<pdfrwt beam="1">  1        2 0.50660884E+00 0.28594330E+04</pdfrwt>
<pdfrwt beam="2">  1       -2 0.95499343E-01 0.28594330E+04</pdfrwt>
<totfact> 0.89721716E-01</totfact>
</mgrwt>
</event>
<event>
 6    1  0.5026615E-004  0.1308560E+04  0.7818608E-02  0.9022804E-01
         -2   -1    0    0    0  501 -0.00000000000E+00  0.00000000000E+00  0.28154481699E+03  0.28154481699E+03  0.00000000000E+00 0. -1.
          2   -1    0    0  501    0  0.00000000000E+00 -0.00000000000E+00 -0.15204770578E+04  0.15204770578E+04  0.00000000000E+00 0.  1.
         23    2    1    2    0    0  0.51182323386E+03  0.37197820766E+02 -0.67991826826E+02  0.52356649673E+03  0.78436518251E+02 0.  0.
         13    1    3    3    0    0  0.10998254495E+03 -0.19309131803E+02 -0.32105725321E+02  0.11618855522E+03  0.00000000000E+00 0. -1.
        -13    1    3    3    0    0  0.40184068891E+03  0.56506952569E+02 -0.35886101506E+02  0.40737794151E+03  0.00000000000E+00 0.  1.
         22    1    1    2    0    0 -0.51182323386E+03 -0.37197820766E+02 -0.11709404140E+04  0.12784553781E+04  0.00000000000E+00 0.  1.
<mgrwt>
<rscale>  0 0.13085602E+04</rscale>
<asrwt>0</asrwt>
<pdfrwt beam="1">  1        2 0.23391955E+00 0.13085602E+04</pdfrwt>
<pdfrwt beam="2">  1       -2 0.43314587E-01 0.13085602E+04</pdfrwt>
<totfact> 0.61172264E+01</totfact>
</mgrwt>
</event>
<event>
 6    1  0.5026615E-004  0.2447915E+04  0.7818608E-02  0.8421779E-01
          2   -1    0    0  501    0  0.00000000000E+00  0.00000000000E+00  0.18264506115E+04  0.18264506115E+04  0.00000000000E+00 0.  1.
         -2   -1    0    0    0  501 -0.00000000000E+00 -0.00000000000E+00 -0.82020972434E+03  0.82020972434E+03  0.00000000000E+00 0. -1.
         23    2    1    2    0    0  0.25892859437E+03 -0.11424302898E+04  0.12666053500E+03  0.11817874472E+04  0.91584360881E+02 0.  0.
         13    1    3    3    0    0  0.20270902644E+03 -0.69660504253E+03  0.86583626517E+02  0.73064783519E+03  0.00000000000E+00 0.  1.
        -13    1    3    3    0    0  0.56219567936E+02 -0.44582524727E+03  0.40076908487E+02  0.45113961200E+03  0.00000000000E+00 0. -1.
         22    1    1    2    0    0 -0.25892859437E+03  0.11424302898E+04  0.87958035219E+03  0.14648728887E+04  0.00000000000E+00 0.  1.
<mgrwt>
<rscale>  0 0.24479155E+04</rscale>
<asrwt>0</asrwt>
<pdfrwt beam="1">  1        2 0.28099240E+00 0.24479155E+04</pdfrwt>
<pdfrwt beam="2">  1       -2 0.12618611E+00 0.24479155E+04</pdfrwt>
<totfact> 0.34988545E+00</totfact>
</mgrwt>
</event>
<event>
 6    1  0.5026615E-004  0.1543209E+04  0.7818608E-02  0.8856217E-01
          2   -1    0    0  501    0  0.00000000000E+00  0.00000000000E+00  0.11885064381E+04  0.11885064381E+04  0.00000000000E+00 0.  1.
         -2   -1    0    0    0  501 -0.00000000000E+00 -0.00000000000E+00 -0.50094284570E+03  0.50094284570E+03  0.00000000000E+00 0. -1.
         23    2    1    2    0    0 -0.29387575490E+03  0.28594110468E+03 -0.36705496022E+03  0.55792572409E+03  0.91795942806E+02 0.  0.
         11    1    3    3    0    0 -0.12580235048E+03  0.85183398440E+02 -0.89349503164E+02  0.17625486226E+03  0.00000000000E+00 0.  1.
        -11    1    3    3    0    0 -0.16807340442E+03  0.20075770624E+03 -0.27770545706E+03  0.38167086182E+03  0.00000000000E+00 0. -1.
         22    1    1    2    0    0  0.29387575490E+03 -0.28594110468E+03  0.10546185526E+04  0.11315235597E+04  0.00000000000E+00 0.  1.
<mgrwt>
<rscale>  0 0.15432094E+04</rscale>
<asrwt>0</asrwt>
<pdfrwt beam="1">  1        2 0.18284714E+00 0.15432094E+04</pdfrwt>
<pdfrwt beam="2">  1       -2 0.77068130E-01 0.15432094E+04</pdfrwt>
<totfact> 0.27858428E+01</totfact>
</mgrwt>
</event>
<event>
 6    1  0.5026615E-004  0.1457477E+04  0.7818608E-02  0.8913233E-01
          1   -1    0    0  501    0  0.00000000000E+00  0.00000000000E+00  0.10987848046E+04  0.10987848046E+04  0.00000000000E+00 0.  1.
         -1   -1    0    0    0  501 -0.00000000000E+00 -0.00000000000E+00 -0.48331532547E+03  0.48331532547E+03  0.00000000000E+00 0. -1.
         23    2    1    2    0    0  0.32525650668E+03  0.54632710512E+03 -0.71314517016E+02  0.64618487842E+03  0.90576132755E+02 0.  0.
         11    1    3    3    0    0  0.26160870990E+03  0.41879025674E+03 -0.18352287807E+02  0.49412670713E+03  0.00000000000E+00 0. -1.
        -11    1    3    3    0    0  0.63647796787E+02  0.12753684838E+03 -0.52962229209E+02  0.15205817128E+03  0.00000000000E+00 0.  1.
         22    1    1    2    0    0 -0.32525650668E+03 -0.54632710512E+03  0.68678399614E+03  0.93591525166E+03  0.00000000000E+00 0.  1.
<mgrwt>
<rscale>  0 0.14574766E+04</rscale>
<asrwt>0</asrwt>
<pdfrwt beam="1">  1        1 0.16904381E+00 0.14574766E+04</pdfrwt>
<pdfrwt beam="2">  1       -1 0.74356205E-01 0.14574766E+04</pdfrwt>
<totfact> 0.22454083E+01</totfact>
</mgrwt>
</event>
<event>
 6    1  0.5026615E-004  0.4559363E+04  0.7818608E-02  0.7900326E-01
          2   -1    0    0  501    0  0.00000000000E+00  0.00000000000E+00  0.45067387613E+04  0.45067387613E+04  0.00000000000E+00 0.  1.
         -2   -1    0    0    0  501 -0.00000000000E+00 -0.00000000000E+00 -0.11531503980E+04  0.11531503980E+04  0.00000000000E+00 0. -1.
         23    2    1    2    0    0 -0.10802604585E+04 -0.17662504649E+04  0.49563201388E+03  0.21307932611E+04  0.89584960667E+02 0.  0.
         13    1    3    3    0    0 -0.36678776776E+03 -0.52149385661E+03  0.14569960829E+03  0.65400113526E+03  0.00000000000E+00 0. -1.
        -13    1    3    3    0    0 -0.71347269078E+03 -0.12447566083E+04  0.34993240559E+03  0.14767921258E+04  0.00000000000E+00 0.  1.
         22    1    1    2    0    0  0.10802604585E+04  0.17662504649E+04  0.28579563494E+04  0.35290958982E+04  0.00000000000E+00 0.  1.
<mgrwt>
<rscale>  0 0.45593629E+04</rscale>
<asrwt>0</asrwt>
<pdfrwt beam="1">  1        2 0.69334441E+00 0.45593629E+04</pdfrwt>
<pdfrwt beam="2">  1       -2 0.17740776E+00 0.45593629E+04</pdfrwt>
<totfact> 0.17123838E-02</totfact>
</mgrwt>
</event>
<event>
 6    1  0.5026615E-004  0.3400458E+04  0.7818608E-02  0.8137794E-01
         -2   -1    0    0    0  501 -0.00000000000E+00  0.00000000000E+00  0.16569574522E+04  0.16569574522E+04  0.00000000000E+00 0. -1.
          2   -1    0    0  501    0  0.00000000000E+00 -0.00000000000E+00 -0.17446301962E+04  0.17446301962E+04  0.00000000000E+00 0.  1.
         23    2    1    2    0    0  0.10650659164E+04 -0.31743129774E+02  0.12798775185E+04  0.16679306025E+04  0.92374236982E+02 0.  0.
         13    1    3    3    0    0  0.55036519958E+03 -0.15557683923E+02  0.58920134384E+03  0.80641311870E+03  0.00000000000E+00 0.  1.
        -13    1    3    3    0    0  0.51470071684E+03 -0.16185445850E+02  0.69067617466E+03  0.86151748375E+03  0.00000000000E+00 0. -1.
         22    1    1    2    0    0 -0.10650659164E+04  0.31743129774E+02 -0.13675502625E+04  0.17336570460E+04  0.00000000000E+00 0.  1.
<mgrwt>
<rscale>  0 0.34004576E+04</rscale>
<asrwt>0</asrwt>
<pdfrwt beam="1">  1        2 0.26840464E+00 0.34004576E+04</pdfrwt>
<pdfrwt beam="2">  1       -2 0.25491653E+00 0.34004576E+04</pdfrwt>
<totfact> 0.45994010E-01</totfact>
</mgrwt>
</event>
<event>
 6    1  0.5026615E-004  0.3702337E+04  0.7818608E-02  0.8067444E-01
          2   -1    0    0  501    0  0.00000000000E+00  0.00000000000E+00  0.27604706169E+04  0.27604706169E+04  0.00000000000E+00 0.  1.
         -2   -1    0    0    0  501 -0.00000000000E+00 -0.00000000000E+00 -0.12413915213E+04  0.12413915213E+04  0.00000000000E+00 0. -1.
         23    2    1    2    0    0 -0.41637364848E+03 -0.75279318408E+03  0.25304771200E+04  0.26740855920E+04  0.85759578064E+02 0.  0.
         13    1    3    3    0    0 -0.21869776051E+03 -0.48058008939E+03  0.15241982429E+04  0.16130611323E+04  0.00000000000E+00 0. -1.
        -13    1    3    3    0    0 -0.19767588797E+03 -0.27221309469E+03  0.10062788771E+04  0.10610244597E+04  0.00000000000E+00 0.  1.
         22    1    1    2    0    0  0.41637364848E+03  0.75279318408E+03 -0.10113980243E+04  0.13277765463E+04  0.00000000000E+00 0. -1.
<mgrwt>
<rscale>  0 0.37023370E+04</rscale>
<asrwt>0</asrwt>
<pdfrwt beam="1">  1        2 0.42468779E+00 0.37023370E+04</pdfrwt>
<pdfrwt beam="2">  1       -2 0.19098331E+00 0.37023370E+04</pdfrwt>
<totfact> 0.30135241E-01</totfact>
</mgrwt>
</event>
<event>
 6    1  0.5026615E-004  0.4083937E+04  0.7818608E-02  0.7987825E-01
          2   -1    0    0  501    0  0.00000000000E+00  0.00000000000E+00  0.37693291596E+04  0.37693291596E+04  0.00000000000E+00 0.  1.
         -2   -1    0    0    0  501 -0.00000000000E+00 -0.00000000000E+00 -0.11062007892E+04  0.11062007892E+04  0.00000000000E+00 0. -1.
         23    2    1    2    0    0 -0.19777279043E+04  0.14006908231E+03  0.75408888350E+03  0.21231748165E+04  0.90522075216E+02 0.  0.
         13    1    3    3    0    0 -0.16952692093E+04  0.13723326026E+03  0.67476345225E+03  0.18297749523E+04  0.00000000000E+00 0. -1.
        -13    1    3    3    0    0 -0.28245869502E+03  0.28358220430E+01  0.79325431250E+02  0.29339986421E+03  0.00000000000E+00 0.  1.
         22    1    1    2    0    0  0.19777279043E+04 -0.14006908231E+03  0.19090394870E+04  0.27523551323E+04  0.00000000000E+00 0.  1.
<mgrwt>
<rscale>  0 0.40839368E+04</rscale>
<asrwt>0</asrwt>
<pdfrwt beam="1">  1        2 0.57989679E+00 0.40839368E+04</pdfrwt>
<pdfrwt beam="2">  1       -2 0.17018474E+00 0.40839368E+04</pdfrwt>
<totfact> 0.86025828E-02</totfact>
</mgrwt>
</event>
<event>
 6    1  0.5026615E-004  0.1855118E+04  0.7818608E-02  0.8677525E-01
          1   -1    0    0  501    0  0.00000000000E+00  0.00000000000E+00  0.14845764260E+04  0.14845764260E+04  0.00000000000E+00 0. -1.
         -1   -1    0    0    0  501 -0.00000000000E+00 -0.00000000000E+00 -0.57953613249E+03  0.57953613249E+03  0.00000000000E+00 0.  1.
         23    2    1    2    0    0 -0.59646361034E+02 -0.80938047497E+03  0.94825191750E+03  0.12513877059E+04  0.90194510652E+02 0.  0.
         11    1    3    3    0    0 -0.23737246726E+02 -0.18847947507E+03  0.28141940333E+03  0.33953622778E+03  0.00000000000E+00 0. -1.
        -11    1    3    3    0    0 -0.35909114308E+02 -0.62090099991E+03  0.66683251417E+03  0.91185147811E+03  0.00000000000E+00 0.  1.
         22    1    1    2    0    0  0.59646361034E+02  0.80938047497E+03 -0.43211623954E+02  0.81272485264E+03  0.00000000000E+00 0.  1.
<mgrwt>
<rscale>  0 0.18551180E+04</rscale>
<asrwt>0</asrwt>
<pdfrwt beam="1">  1        1 0.22839637E+00 0.18551180E+04</pdfrwt>
<pdfrwt beam="2">  1       -1 0.89159405E-01 0.18551180E+04</pdfrwt>
<totfact> 0.77656405E+00</totfact>
</mgrwt>
</event>
<event>
 6    1  0.5026615E-004  0.3504246E+04  0.7818608E-02  0.8112784E-01
          1   -1    0    0  501    0  0.00000000000E+00  0.00000000000E+00  0.25270380486E+04  0.25270380486E+04  0.00000000000E+00 0.  1.
         -1   -1    0    0    0  501 -0.00000000000E+00 -0.00000000000E+00 -0.12148352136E+04  0.12148352136E+04  0.00000000000E+00 0. -1.
         23    2    1    2    0    0  0.32350462979E+03  0.15765011623E+04 -0.80031536432E+02  0.16138864894E+04  0.90627773801E+02 0.  0.
         13    1    3    3    0    0  0.12559895244E+03  0.77540424248E+03 -0.70280567548E+02  0.78864833373E+03  0.00000000000E+00 0.  1.
        -13    1    3    3    0    0  0.19790567735E+03  0.80109691986E+03 -0.97509688849E+01  0.82523815564E+03  0.00000000000E+00 0. -1.
         22    1    1    2    0    0 -0.32350462979E+03 -0.15765011623E+04  0.13922343714E+04  0.21279867728E+04  0.00000000000E+00 0. -1.
<mgrwt>
<rscale>  0 0.35042459E+04</rscale>
<asrwt>0</asrwt>
<pdfrwt beam="1">  1        1 0.38877508E+00 0.35042459E+04</pdfrwt>
<pdfrwt beam="2">  1       -1 0.18689773E+00 0.35042459E+04</pdfrwt>
<totfact> 0.19657936E-01</totfact>
</mgrwt>
</event>
<event>
 6    1  0.5026615E-004  0.1137569E+04  0.7818608E-02  0.9169329E-01
         -2   -1    0    0    0  501 -0.00000000000E+00  0.00000000000E+00  0.92437419019E+03  0.92437419019E+03  0.00000000000E+00 0. -1.
          2   -1    0    0  501    0  0.00000000000E+00 -0.00000000000E+00 -0.34998346507E+03  0.34998346507E+03  0.00000000000E+00 0.  1.
         23    2    1    2    0    0 -0.10073123059E+03  0.28474269225E+03 -0.24600415898E+03  0.40013059811E+03  0.91439967753E+02 0.  0.
         13    1    3    3    0    0 -0.45460023692E+02  0.16135159103E+03 -0.79167814765E+02  0.18538741214E+03  0.00000000000E+00 0.  1.
        -13    1    3    3    0    0 -0.55271206901E+02  0.12339110121E+03 -0.16683634422E+03  0.21474318598E+03  0.00000000000E+00 0. -1.
         22    1    1    2    0    0  0.10073123059E+03 -0.28474269225E+03  0.82039488410E+03  0.87422705716E+03  0.00000000000E+00 0. -1.
<mgrwt>
<rscale>  0 0.11375688E+04</rscale>
<asrwt>0</asrwt>
<pdfrwt beam="1">  1        2 0.53843610E-01 0.11375688E+04</pdfrwt>
<pdfrwt beam="2">  1       -2 0.14221141E+00 0.11375688E+04</pdfrwt>
<totfact> 0.31533725E+01</totfact>
</mgrwt>
</event>
<event>
 6    1  0.5026615E-004  0.2078174E+04  0.7818608E-02  0.8570919E-01
          2   -1    0    0  501    0  0.00000000000E+00  0.00000000000E+00  0.11334848453E+04  0.11334848453E+04  0.00000000000E+00 0.  1.
         -2   -1    0    0    0  501 -0.00000000000E+00 -0.00000000000E+00 -0.95255098647E+03  0.95255098647E+03  0.00000000000E+00 0. -1.
         23    2    1    2    0    0  0.72313301867E+03  0.30188368042E+03  0.77260035057E+03  0.11041374885E+04  0.90294919895E+02 0.  0.
         11    1    3    3    0    0  0.48612030641E+03  0.17080314425E+03  0.46217083486E+03  0.69216222591E+03  0.00000000000E+00 0.  1.
        -11    1    3    3    0    0  0.23701271226E+03  0.13108053617E+03  0.31042951572E+03  0.41197526256E+03  0.00000000000E+00 0. -1.
         22    1    1    2    0    0 -0.72313301867E+03 -0.30188368042E+03 -0.59166649172E+03  0.98189834332E+03  0.00000000000E+00 0. -1.
<mgrwt>
<rscale>  0 0.20781743E+04</rscale>
<asrwt>0</asrwt>
<pdfrwt beam="1">  1        2 0.17438228E+00 0.20781743E+04</pdfrwt>
<pdfrwt beam="2">  1       -2 0.14654631E+00 0.20781743E+04</pdfrwt>
<totfact> 0.61128022E+00</totfact>
</mgrwt>
</event>
<event>
 6    1  0.6924335E-004  0.3500306E+04  0.7818608E-02  0.8113718E-01
         -2   -1    0    0    0  501 -0.00000000000E+00  0.00000000000E+00  0.19631615148E+04  0.19631615148E+04  0.00000000000E+00 0. -1.
          2   -1    0    0  501    0  0.00000000000E+00 -0.00000000000E+00 -0.15602561912E+04  0.15602561912E+04  0.00000000000E+00 0.  1.
         23    2    1    2    0    0  0.35441857949E+02 -0.10225793792E+04 -0.12267011367E+04  0.15992186707E+04  0.76026086183E+02 0.  0.
         11    1    3    3    0    0 -0.15856716072E+02 -0.32355935948E+03 -0.42371765070E+03  0.53336548639E+03  0.00000000000E+00 0.  1.
        -11    1    3    3    0    0  0.51298574022E+02 -0.69902001967E+03 -0.80298348603E+03  0.10658531843E+04  0.00000000000E+00 0. -1.
         22    1    1    2    0    0 -0.35441857949E+02  0.10225793792E+04  0.16296064604E+04  0.19241990354E+04  0.00000000000E+00 0. -1.
<mgrwt>
<rscale>  0 0.35003056E+04</rscale>
<asrwt>0</asrwt>
<pdfrwt beam="1">  1        2 0.24003941E+00 0.35003056E+04</pdfrwt>
<pdfrwt beam="2">  1       -2 0.30202485E+00 0.35003056E+04</pdfrwt>
<totfact> 0.29792449E-01</totfact>
</mgrwt>
</event>
<event>
 6    1  0.5026615E-004  0.5260599E+04  0.7818608E-02  0.7789518E-01
         -2   -1    0    0    0  501 -0.00000000000E+00  0.00000000000E+00  0.16501890616E+04  0.16501890616E+04  0.00000000000E+00 0. -1.
          2   -1    0    0  501    0  0.00000000000E+00 -0.00000000000E+00 -0.41925351831E+04  0.41925351831E+04  0.00000000000E+00 0.  1.
         23    2    1    2    0    0  0.10653919936E+04 -0.91835532977E+03 -0.37390941539E+04  0.39959317646E+04  0.90603332119E+02 0.  0.
         11    1    3    3    0    0  0.34378056938E+03 -0.24167371037E+03 -0.11190029225E+04  0.11953069910E+04  0.00000000000E+00 0.  1.
        -11    1    3    3    0    0  0.72161142425E+03 -0.67668161939E+03 -0.26200912314E+04  0.28006247736E+04  0.00000000000E+00 0. -1.
         22    1    1    2    0    0 -0.10653919936E+04  0.91835532977E+03  0.11967480323E+04  0.18467924801E+04  0.00000000000E+00 0. -1.
<mgrwt>
<rscale>  0 0.52605991E+04</rscale>
<asrwt>0</asrwt>
<pdfrwt beam="1">  1        2 0.64500541E+00 0.52605991E+04</pdfrwt>
<pdfrwt beam="2">  1       -2 0.25387524E+00 0.52605991E+04</pdfrwt>
<totfact> 0.10171988E-02</totfact>
</mgrwt>
</event>
<event>
 6    1  0.5026615E-004  0.1661722E+04  0.7818608E-02  0.8783502E-01
          2   -1    0    0  501    0  0.00000000000E+00  0.00000000000E+00  0.71865077993E+03  0.71865077993E+03  0.00000000000E+00 0.  1.
         -2   -1    0    0    0  501 -0.00000000000E+00 -0.00000000000E+00 -0.96059130565E+03  0.96059130565E+03  0.00000000000E+00 0. -1.
         23    2    1    2    0    0  0.34598505100E+03 -0.28593919324E+03  0.58190895116E+03  0.74105509019E+03  0.95277182587E+02 0.  0.
         11    1    3    3    0    0  0.30154201384E+03 -0.21321030097E+03  0.42958532423E+03  0.56650663663E+03  0.00000000000E+00 0.  1.
        -11    1    3    3    0    0  0.44443037163E+02 -0.72728892274E+02  0.15232362692E+03  0.17454845357E+03  0.00000000000E+00 0. -1.
         22    1    1    2    0    0 -0.34598505100E+03  0.28593919324E+03 -0.82384947688E+03  0.93818699538E+03  0.00000000000E+00 0. -1.
<mgrwt>
<rscale>  0 0.16617216E+04</rscale>
<asrwt>0</asrwt>
<pdfrwt beam="1">  1        2 0.11056166E+00 0.16617216E+04</pdfrwt>
<pdfrwt beam="2">  1       -2 0.14778328E+00 0.16617216E+04</pdfrwt>
<totfact> 0.11779919E+01</totfact>
</mgrwt>
</event>
<event>
 6    1  0.5026615E-004  0.1317619E+04  0.7818608E-02  0.9015709E-01
          2   -1    0    0  501    0  0.00000000000E+00  0.00000000000E+00  0.11033880083E+04  0.11033880083E+04  0.00000000000E+00 0.  1.
         -2   -1    0    0    0  501 -0.00000000000E+00 -0.00000000000E+00 -0.39336083624E+03  0.39336083624E+03  0.00000000000E+00 0. -1.
         23    2    1    2    0    0  0.37819746732E+03  0.43150815038E+03 -0.36358763008E+01  0.58102642224E+03  0.91355763984E+02 0.  0.
         11    1    3    3    0    0  0.18492655408E+02  0.64607839394E+02 -0.54415892579E+00  0.67204518629E+02  0.00000000000E+00 0. -1.
        -11    1    3    3    0    0  0.35970481191E+03  0.36690031098E+03 -0.30917173750E+01  0.51382190361E+03  0.00000000000E+00 0.  1.
         22    1    1    2    0    0 -0.37819746732E+03 -0.43150815038E+03  0.71366304840E+03  0.91572242234E+03  0.00000000000E+00 0.  1.
<mgrwt>
<rscale>  0 0.13176185E+04</rscale>
<asrwt>0</asrwt>
<pdfrwt beam="1">  1        2 0.16975200E+00 0.13176185E+04</pdfrwt>
<pdfrwt beam="2">  1       -2 0.60517052E-01 0.13176185E+04</pdfrwt>
<totfact> 0.53986010E+01</totfact>
</mgrwt>
</event>
<event>
 6    1  0.5026615E-004  0.1924002E+04  0.7818608E-02  0.8643000E-01
          2   -1    0    0  501    0  0.00000000000E+00  0.00000000000E+00  0.38655832178E+04  0.38655832178E+04  0.00000000000E+00 0.  1.
         -2   -1    0    0    0  501 -0.00000000000E+00 -0.00000000000E+00 -0.23940653556E+03  0.23940653556E+03  0.00000000000E+00 0. -1.
         23    2    1    2    0    0 -0.71629747420E+03  0.25936786196E+03  0.30629639920E+04  0.31575921105E+04  0.91026152026E+02 0.  0.
         13    1    3    3    0    0 -0.46702432513E+03  0.12739955200E+03  0.20152980616E+04  0.20726236135E+04  0.00000000000E+00 0. -1.
        -13    1    3    3    0    0 -0.24927314907E+03  0.13196830996E+03  0.10476659304E+04  0.10849684969E+04  0.00000000000E+00 0.  1.
         22    1    1    2    0    0  0.71629747420E+03 -0.25936786196E+03  0.56321269026E+03  0.94739764293E+03  0.00000000000E+00 0. -1.
<mgrwt>
<rscale>  0 0.19240020E+04</rscale>
<asrwt>0</asrwt>
<pdfrwt beam="1">  1        2 0.59470506E+00 0.19240020E+04</pdfrwt>
<pdfrwt beam="2">  1       -2 0.36831778E-01 0.19240020E+04</pdfrwt>
<totfact> 0.28682859E+00</totfact>
</mgrwt>
</event>
<event>
 6    1  0.5026615E-004  0.2972725E+04  0.7818608E-02  0.8251562E-01
         -2   -1    0    0    0  501 -0.00000000000E+00  0.00000000000E+00  0.90831684243E+03  0.90831684243E+03  0.00000000000E+00 0. -1.
          2   -1    0    0  501    0  0.00000000000E+00 -0.00000000000E+00 -0.24322725170E+04  0.24322725170E+04  0.00000000000E+00 0.  1.
         23    2    1    2    0    0  0.26036480471E+03  0.13668401245E+04 -0.17969335107E+03  0.14058844848E+04  0.90441841754E+02 0.  0.
         11    1    3    3    0    0  0.12800584911E+03  0.52621671630E+03 -0.10486204895E+03  0.55162086548E+03  0.00000000000E+00 0. -1.
        -11    1    3    3    0    0  0.13235895561E+03  0.84062340820E+03 -0.74831302118E+02  0.85426361934E+03  0.00000000000E+00 0.  1.
         22    1    1    2    0    0 -0.26036480471E+03 -0.13668401245E+04 -0.13442623235E+04  0.19347048746E+04  0.00000000000E+00 0.  1.
<mgrwt>
<rscale>  0 0.29727254E+04</rscale>
<asrwt>0</asrwt>
<pdfrwt beam="1">  1        2 0.37419577E+00 0.29727254E+04</pdfrwt>
<pdfrwt beam="2">  1       -2 0.13974105E+00 0.29727254E+04</pdfrwt>
<totfact> 0.11792656E+00</totfact>
</mgrwt>
</event>
<event>
 6    1  0.5026615E-004  0.1915660E+04  0.7818608E-02  0.8647100E-01
          2   -1    0    0  501    0  0.00000000000E+00  0.00000000000E+00  0.55721107920E+03  0.55721107920E+03  0.00000000000E+00 0.  1.
         -2   -1    0    0    0  501 -0.00000000000E+00 -0.00000000000E+00 -0.16464826388E+04  0.16464826388E+04  0.00000000000E+00 0. -1.
         23    2    1    2    0    0 -0.35661302951E+03 -0.50802537955E+03 -0.13817228756E+04  0.15175520335E+04  0.92430678734E+02 0.  0.
         11    1    3    3    0    0 -0.11725302281E+03 -0.10037225310E+03 -0.31551087790E+03  0.35124062211E+03  0.00000000000E+00 0. -1.
        -11    1    3    3    0    0 -0.23936000670E+03 -0.40765312645E+03 -0.10662119977E+04  0.11663114114E+04  0.00000000000E+00 0.  1.
         22    1    1    2    0    0  0.35661302951E+03  0.50802537955E+03  0.29245131594E+03  0.68614168455E+03  0.00000000000E+00 0.  1.
<mgrwt>
<rscale>  0 0.19156601E+04</rscale>
<asrwt>0</asrwt>
<pdfrwt beam="1">  1        2 0.85724783E-01 0.19156601E+04</pdfrwt>
<pdfrwt beam="2">  1       -2 0.25330502E+00 0.19156601E+04</pdfrwt>
<totfact> 0.31090694E+00</totfact>
</mgrwt>
</event>
<event>
 6    1  0.5026615E-004  0.1426295E+04  0.7818608E-02  0.8935002E-01
         -2   -1    0    0    0  501 -0.00000000000E+00  0.00000000000E+00  0.16701618594E+04  0.16701618594E+04  0.00000000000E+00 0. -1.
          2   -1    0    0  501    0  0.00000000000E+00 -0.00000000000E+00 -0.30450886214E+03  0.30450886214E+03  0.00000000000E+00 0.  1.
         23    2    1    2    0    0  0.68779386020E+03  0.17511554355E+03  0.64817743348E+03  0.96546458187E+03  0.90895686662E+02 0.  0.
         11    1    3    3    0    0  0.53319544617E+03  0.16935532434E+03  0.48231848971E+03  0.73865400236E+03  0.00000000000E+00 0. -1.
        -11    1    3    3    0    0  0.15459841403E+03  0.57602192099E+01  0.16585894378E+03  0.22681057951E+03  0.00000000000E+00 0.  1.
         22    1    1    2    0    0 -0.68779386020E+03 -0.17511554355E+03  0.71747556378E+03  0.10092061397E+04  0.00000000000E+00 0. -1.
<mgrwt>
<rscale>  0 0.14262946E+04</rscale>
<asrwt>0</asrwt>
<pdfrwt beam="1">  1        2 0.46847518E-01 0.14262946E+04</pdfrwt>
<pdfrwt beam="2">  1       -2 0.25694797E+00 0.14262946E+04</pdfrwt>
<totfact> 0.61184081E+00</totfact>
</mgrwt>
</event>
<event>
 6    1  0.5026615E-004  0.1766532E+04  0.7818608E-02  0.8724303E-01
         -2   -1    0    0    0  501 -0.00000000000E+00  0.00000000000E+00  0.37171645743E+03  0.37171645743E+03  0.00000000000E+00 0. -1.
          2   -1    0    0  501    0  0.00000000000E+00 -0.00000000000E+00 -0.20988000725E+04  0.20988000725E+04  0.00000000000E+00 0.  1.
         23    2    1    2    0    0 -0.35817394179E+03  0.80268714119E+03 -0.94747109577E+03  0.12956161514E+04  0.91238781444E+02 0.  0.
         13    1    3    3    0    0 -0.32410646431E+03  0.74804076904E+03 -0.90712469614E+03  0.12196250271E+04  0.00000000000E+00 0.  1.
        -13    1    3    3    0    0 -0.34067477479E+02  0.54646372146E+02 -0.40346399627E+02  0.75991124307E+02  0.00000000000E+00 0. -1.
         22    1    1    2    0    0  0.35817394179E+03 -0.80268714119E+03 -0.77961251930E+03  0.11749003785E+04  0.00000000000E+00 0. -1.
<mgrwt>
<rscale>  0 0.17665317E+04</rscale>
<asrwt>0</asrwt>
<pdfrwt beam="1">  1        2 0.32289232E+00 0.17665317E+04</pdfrwt>
<pdfrwt beam="2">  1       -2 0.57187147E-01 0.17665317E+04</pdfrwt>
<totfact> 0.15966121E+01</totfact>
</mgrwt>
</event>
<event>
 6    1  0.5918990E-004  0.2114901E+04  0.7818608E-02  0.8554708E-01
          2   -1    0    0  501    0  0.00000000000E+00  0.00000000000E+00  0.19933549040E+04  0.19933549040E+04  0.00000000000E+00 0.  1.
         -2   -1    0    0    0  501 -0.00000000000E+00 -0.00000000000E+00 -0.56096475684E+03  0.56096475684E+03  0.00000000000E+00 0. -1.
         23    2    1    2    0    0 -0.32684363923E+03  0.10237868965E+03 -0.48829695694E+03  0.60333347112E+03  0.90935134162E+02 0.  0.
         13    1    3    3    0    0 -0.18481142326E+03  0.61214659121E+02 -0.19878143132E+03  0.27823830451E+03  0.00000000000E+00 0.  1.
        -13    1    3    3    0    0 -0.14203221597E+03  0.41164030527E+02 -0.28951552562E+03  0.32509516661E+03  0.00000000000E+00 0. -1.
         22    1    1    2    0    0  0.32684363923E+03 -0.10237868965E+03  0.19206871041E+04  0.19509861897E+04  0.00000000000E+00 0.  1.
<mgrwt>
<rscale>  0 0.21149013E+04</rscale>
<asrwt>0</asrwt>
<pdfrwt beam="1">  1        2 0.30666998E+00 0.21149013E+04</pdfrwt>
<pdfrwt beam="2">  1       -2 0.86302271E-01 0.21149013E+04</pdfrwt>
<totfact> 0.72174138E+00</totfact>
</mgrwt>
</event>
<event>
 6    1  0.5026615E-004  0.2149702E+04  0.7818608E-02  0.8539660E-01
          1   -1    0    0  501    0  0.00000000000E+00  0.00000000000E+00  0.10279805395E+04  0.10279805395E+04  0.00000000000E+00 0.  1.
         -1   -1    0    0    0  501 -0.00000000000E+00 -0.00000000000E+00 -0.11238580950E+04  0.11238580950E+04  0.00000000000E+00 0. -1.
         23    2    1    2    0    0 -0.82840720293E+03 -0.41791647190E+03  0.49122265013E+03  0.10538407644E+04  0.91476737094E+02 0.  0.
         11    1    3    3    0    0 -0.63572144532E+03 -0.34173382547E+03  0.34316114959E+03  0.79917666264E+03  0.00000000000E+00 0.  1.
        -11    1    3    3    0    0 -0.19268575761E+03 -0.76182646426E+02  0.14806150054E+03  0.25466410180E+03  0.00000000000E+00 0. -1.
         22    1    1    2    0    0  0.82840720293E+03  0.41791647190E+03 -0.58710020556E+03  0.10979978701E+04  0.00000000000E+00 0. -1.
<mgrwt>
<rscale>  0 0.21497016E+04</rscale>
<asrwt>0</asrwt>
<pdfrwt beam="1">  1        1 0.15815085E+00 0.21497016E+04</pdfrwt>
<pdfrwt beam="2">  1       -1 0.17290125E+00 0.21497016E+04</pdfrwt>
<totfact> 0.30877567E+00</totfact>
</mgrwt>
</event>
<event>
 6    1  0.5026615E-004  0.2505396E+04  0.7818608E-02  0.8401066E-01
         -2   -1    0    0    0  501 -0.00000000000E+00  0.00000000000E+00  0.67638222530E+03  0.67638222530E+03  0.00000000000E+00 0. -1.
          2   -1    0    0  501    0  0.00000000000E+00 -0.00000000000E+00 -0.23200669171E+04  0.23200669171E+04  0.00000000000E+00 0.  1.
         23    2    1    2    0    0  0.10871672285E+04 -0.56151647044E+03 -0.51121254083E+03  0.13291979610E+04  0.90529709182E+02 0.  0.
         13    1    3    3    0    0  0.73988914498E+03 -0.41781878235E+03 -0.38364117974E+03  0.93230308191E+03  0.00000000000E+00 0. -1.
        -13    1    3    3    0    0  0.34727808350E+03 -0.14369768809E+03 -0.12757136109E+03  0.39689487905E+03  0.00000000000E+00 0.  1.
         22    1    1    2    0    0 -0.10871672285E+04  0.56151647044E+03 -0.11324721509E+04  0.16672511814E+04  0.00000000000E+00 0. -1.
<mgrwt>
<rscale>  0 0.25053958E+04</rscale>
<asrwt>0</asrwt>
<pdfrwt beam="1">  1        2 0.35693337E+00 0.25053958E+04</pdfrwt>
<pdfrwt beam="2">  1       -2 0.10405880E+00 0.25053958E+04</pdfrwt>
<totfact> 0.29566953E+00</totfact>
</mgrwt>
</event>
<event>
 6    1  0.5026615E-004  0.4973755E+03  0.7818608E-02  0.1014466E+00
         -2   -1    0    0    0  501 -0.00000000000E+00  0.00000000000E+00  0.24236081734E+02  0.24236081734E+02  0.00000000000E+00 0. -1.
          2   -1    0    0  501    0  0.00000000000E+00 -0.00000000000E+00 -0.25517982795E+04  0.25517982795E+04  0.00000000000E+00 0.  1.
         23    2    1    2    0    0 -0.72906954694E+02 -0.18467924565E+03 -0.20170878834E+04  0.20283064420E+04  0.77211694258E+02 0.  0.
         11    1    3    3    0    0 -0.31399204381E+02 -0.14959362180E+03 -0.16710619677E+04  0.16780382182E+04  0.00000000000E+00 0. -1.
        -11    1    3    3    0    0 -0.41507750313E+02 -0.35085623848E+02 -0.34602591564E+03  0.35026822384E+03  0.00000000000E+00 0.  1.
         22    1    1    2    0    0  0.72906954694E+02  0.18467924565E+03 -0.51047431438E+03  0.54772791919E+03  0.00000000000E+00 0. -1.
<mgrwt>
<rscale>  0 0.49737548E+03</rscale>
<asrwt>0</asrwt>
<pdfrwt beam="1">  1        2 0.39258445E+00 0.49737548E+03</pdfrwt>
<pdfrwt beam="2">  1       -2 0.37286270E-02 0.49737548E+03</pdfrwt>
<totfact> 0.11186252E+03</totfact>
</mgrwt>
</event>
<event>
 6    1  0.5026615E-004  0.5420615E+04  0.7818608E-02  0.7766708E-01
         -2   -1    0    0    0  501 -0.00000000000E+00  0.00000000000E+00  0.15700293855E+04  0.15700293855E+04  0.00000000000E+00 0. -1.
          2   -1    0    0  501    0  0.00000000000E+00 -0.00000000000E+00 -0.46787450676E+04  0.46787450676E+04  0.00000000000E+00 0.  1.
         23    2    1    2    0    0 -0.58123674607E+03  0.20800205833E+04  0.33133812157E+03  0.21869655021E+04  0.93334744876E+02 0.  0.
         11    1    3    3    0    0 -0.38007662895E+03  0.14720341957E+04  0.26358923720E+03  0.15429913166E+04  0.00000000000E+00 0. -1.
        -11    1    3    3    0    0 -0.20116011712E+03  0.60798638766E+03  0.67748884365E+02  0.64397418554E+03  0.00000000000E+00 0.  1.
         22    1    1    2    0    0  0.58123674607E+03 -0.20800205833E+04 -0.34400538037E+04  0.40618089510E+04  0.00000000000E+00 0.  1.
<mgrwt>
<rscale>  0 0.54206152E+04</rscale>
<asrwt>0</asrwt>
<pdfrwt beam="1">  1        2 0.71980693E+00 0.54206152E+04</pdfrwt>
<pdfrwt beam="2">  1       -2 0.24154298E+00 0.54206152E+04</pdfrwt>
<totfact> 0.40717996E-03</totfact>
</mgrwt>
</event>
<event>
 6    1  0.5026615E-004  0.3709149E+04  0.7818608E-02  0.8065937E-01
         -2   -1    0    0    0  501 -0.00000000000E+00  0.00000000000E+00  0.12316839180E+04  0.12316839180E+04  0.00000000000E+00 0.  1.
          2   -1    0    0  501    0  0.00000000000E+00 -0.00000000000E+00 -0.27924751178E+04  0.27924751178E+04  0.00000000000E+00 0. -1.
         23    2    1    2    0    0 -0.17443972193E+04 -0.54495162801E+03 -0.44618380694E+03  0.18835414670E+04  0.93565661158E+02 0.  0.
         13    1    3    3    0    0 -0.24835659240E+03 -0.62153764077E+02 -0.92637362533E+02  0.27226047880E+03  0.00000000000E+00 0. -1.
        -13    1    3    3    0    0 -0.14960406269E+04 -0.48279786393E+03 -0.35354644441E+03  0.16112809882E+04  0.00000000000E+00 0.  1.
         22    1    1    2    0    0  0.17443972193E+04  0.54495162801E+03 -0.11146073929E+04  0.21406175688E+04  0.00000000000E+00 0. -1.
<mgrwt>
<rscale>  0 0.37091491E+04</rscale>
<asrwt>0</asrwt>
<pdfrwt beam="1">  1        2 0.42961155E+00 0.37091491E+04</pdfrwt>
<pdfrwt beam="2">  1       -2 0.18948983E+00 0.37091491E+04</pdfrwt>
<totfact> 0.29480228E-01</totfact>
</mgrwt>
</event>
<event>
 6    1  0.5026615E-004  0.1392106E+04  0.7818608E-02  0.8959552E-01
         -2   -1    0    0    0  501 -0.00000000000E+00  0.00000000000E+00  0.56582414163E+03  0.56582414163E+03  0.00000000000E+00 0. -1.
          2   -1    0    0  501    0  0.00000000000E+00 -0.00000000000E+00 -0.85625554002E+03  0.85625554002E+03  0.00000000000E+00 0.  1.
         23    2    1    2    0    0  0.28390101162E+03  0.36247205609E+03 -0.67503825721E+03  0.82215617678E+03  0.90985462978E+02 0.  0.
         11    1    3    3    0    0  0.17234726039E+03  0.17605443780E+03 -0.29442670188E+03  0.38390861675E+03  0.00000000000E+00 0.  1.
        -11    1    3    3    0    0  0.11155375123E+03  0.18641761828E+03 -0.38061155533E+03  0.43824756003E+03  0.00000000000E+00 0. -1.
         22    1    1    2    0    0 -0.28390101162E+03 -0.36247205609E+03  0.38460685882E+03  0.59992350487E+03  0.00000000000E+00 0. -1.
<mgrwt>
<rscale>  0 0.13921064E+04</rscale>
<asrwt>0</asrwt>
<pdfrwt beam="1">  1        2 0.13173162E+00 0.13921064E+04</pdfrwt>
<pdfrwt beam="2">  1       -2 0.87049869E-01 0.13921064E+04</pdfrwt>
<totfact> 0.34927248E+01</totfact>
</mgrwt>
</event>
<event>
 6    1  0.5026615E-004  0.4371599E+04  0.7818608E-02  0.7933510E-01
         -2   -1    0    0    0  501 -0.00000000000E+00  0.00000000000E+00  0.14091664999E+04  0.14091664999E+04  0.00000000000E+00 0. -1.
          2   -1    0    0  501    0  0.00000000000E+00 -0.00000000000E+00 -0.33904584472E+04  0.33904584472E+04  0.00000000000E+00 0.  1.
         23    2    1    2    0    0  0.19896952266E+04 -0.90136975434E+03 -0.10361461092E+04  0.24195713375E+04  0.96809962731E+02 0.  0.
         11    1    3    3    0    0  0.15366180234E+04 -0.65387525618E+03 -0.80739834969E+03  0.18548961954E+04  0.00000000000E+00 0. -1.
        -11    1    3    3    0    0  0.45307720323E+03 -0.24749449815E+03 -0.22874775951E+03  0.56467514217E+03  0.00000000000E+00 0.  1.
         22    1    1    2    0    0 -0.19896952266E+04  0.90136975434E+03 -0.94514583808E+03  0.23800536095E+04  0.00000000000E+00 0. -1.
<mgrwt>
<rscale>  0 0.43715995E+04</rscale>
<asrwt>0</asrwt>
<pdfrwt beam="1">  1        2 0.52160899E+00 0.43715995E+04</pdfrwt>
<pdfrwt beam="2">  1       -2 0.21679485E+00 0.43715995E+04</pdfrwt>
<totfact> 0.76632884E-02</totfact>
</mgrwt>
</event>
<event>
 6    1  0.5026615E-004  0.1741078E+04  0.7818608E-02  0.8738277E-01
          1   -1    0    0  501    0  0.00000000000E+00  0.00000000000E+00  0.13368081205E+04  0.13368081205E+04  0.00000000000E+00 0.  1.
         -1   -1    0    0    0  501 -0.00000000000E+00 -0.00000000000E+00 -0.56690119927E+03  0.56690119927E+03  0.00000000000E+00 0. -1.
         23    2    1    2    0    0 -0.31010983247E+03  0.52933614106E+02  0.12708083474E+04  0.13122092653E+04  0.89270513105E+02 0.  0.
         13    1    3    3    0    0 -0.94204563744E+02  0.19958139422E+02  0.24163377742E+03  0.26011480071E+03  0.00000000000E+00 0. -1.
        -13    1    3    3    0    0 -0.21590526872E+03  0.32975474684E+02  0.10291745700E+04  0.10520944646E+04  0.00000000000E+00 0.  1.
         22    1    1    2    0    0  0.31010983247E+03 -0.52933614106E+02 -0.50090142615E+03  0.59150005445E+03  0.00000000000E+00 0. -1.
<mgrwt>
<rscale>  0 0.17410780E+04</rscale>
<asrwt>0</asrwt>
<pdfrwt beam="1">  1        1 0.20566279E+00 0.17410780E+04</pdfrwt>
<pdfrwt beam="2">  1       -1 0.87215570E-01 0.17410780E+04</pdfrwt>
<totfact> 0.10452717E+01</totfact>
</mgrwt>
</event>
<event>
 6    1  0.5026615E-004  0.3187704E+04  0.7818608E-02  0.8192072E-01
         -2   -1    0    0    0  501 -0.00000000000E+00  0.00000000000E+00  0.14185383008E+04  0.14185383008E+04  0.00000000000E+00 0. -1.
          2   -1    0    0  501    0  0.00000000000E+00 -0.00000000000E+00 -0.17908328291E+04  0.17908328291E+04  0.00000000000E+00 0.  1.
         23    2    1    2    0    0 -0.16525140645E+03 -0.47818149809E+03  0.13339744595E+04  0.14296746864E+04  0.92283682084E+02 0.  0.
         11    1    3    3    0    0 -0.11406272391E+03 -0.34957783499E+03  0.84623499938E+03  0.92267472160E+03  0.00000000000E+00 0. -1.
        -11    1    3    3    0    0 -0.51188682534E+02 -0.12860366310E+03  0.48773946013E+03  0.50699996484E+03  0.00000000000E+00 0.  1.
         22    1    1    2    0    0  0.16525140645E+03  0.47818149809E+03 -0.17062689877E+04  0.17796964435E+04  0.00000000000E+00 0.  1.
<mgrwt>
<rscale>  0 0.31877045E+04</rscale>
<asrwt>0</asrwt>
<pdfrwt beam="1">  1        2 0.27551274E+00 0.31877045E+04</pdfrwt>
<pdfrwt beam="2">  1       -2 0.21823666E+00 0.31877045E+04</pdfrwt>
<totfact> 0.74639432E-01</totfact>
</mgrwt>
</event>
<event>
 6    1  0.5026615E-004  0.1988176E+04  0.7818608E-02  0.8612169E-01
          2   -1    0    0  501    0  0.00000000000E+00  0.00000000000E+00  0.26643863476E+04  0.26643863476E+04  0.00000000000E+00 0.  1.
         -2   -1    0    0    0  501 -0.00000000000E+00 -0.00000000000E+00 -0.37089612745E+03  0.37089612745E+03  0.00000000000E+00 0. -1.
         23    2    1    2    0    0 -0.53081523698E+03  0.71940530957E+02  0.24238151805E+04  0.24839886776E+04  0.91539420112E+02 0.  0.
         11    1    3    3    0    0 -0.91195281864E+02  0.47136831281E+02  0.49943022053E+03  0.50987155782E+03  0.00000000000E+00 0. -1.
        -11    1    3    3    0    0 -0.43961995512E+03  0.24803699676E+02  0.19243849600E+04  0.19741171198E+04  0.00000000000E+00 0.  1.
         22    1    1    2    0    0  0.53081523698E+03 -0.71940530957E+02 -0.13032496035E+03  0.55129379744E+03  0.00000000000E+00 0. -1.
<mgrwt>
<rscale>  0 0.19881756E+04</rscale>
<asrwt>0</asrwt>
<pdfrwt beam="1">  1        2 0.40990558E+00 0.19881756E+04</pdfrwt>
<pdfrwt beam="2">  1       -2 0.57060944E-01 0.19881756E+04</pdfrwt>
<totfact> 0.74728034E+00</totfact>
</mgrwt>
</event>
<event>
 6    1  0.5026615E-004  0.2897898E+04  0.7818608E-02  0.8273503E-01
         -2   -1    0    0    0  501 -0.00000000000E+00  0.00000000000E+00  0.17963021375E+04  0.17963021375E+04  0.00000000000E+00 0. -1.
          2   -1    0    0  501    0  0.00000000000E+00 -0.00000000000E+00 -0.11687637732E+04  0.11687637732E+04  0.00000000000E+00 0.  1.
         23    2    1    2    0    0  0.97205486983E+02 -0.13871303664E+04  0.72623431272E+03  0.15710356205E+04  0.84599549350E+02 0.  0.
         13    1    3    3    0    0  0.10304291285E+03 -0.10459270039E+04  0.52425984393E+03  0.11744911763E+04  0.00000000000E+00 0. -1.
        -13    1    3    3    0    0 -0.58374258707E+01 -0.34120336249E+03  0.20197446879E+03  0.39654444412E+03  0.00000000000E+00 0.  1.
         22    1    1    2    0    0 -0.97205486983E+02  0.13871303664E+04 -0.98695948386E+02  0.13940302903E+04  0.00000000000E+00 0.  1.
<mgrwt>
<rscale>  0 0.28978978E+04</rscale>
<asrwt>0</asrwt>
<pdfrwt beam="1">  1        2 0.17980981E+00 0.28978978E+04</pdfrwt>
<pdfrwt beam="2">  1       -2 0.27635417E+00 0.28978978E+04</pdfrwt>
<totfact> 0.75672626E-01</totfact>
</mgrwt>
</event>
<event>
 6    1  0.5026615E-004  0.5484438E+03  0.7818608E-02  0.1001855E+00
          2   -1    0    0  501    0  0.00000000000E+00  0.00000000000E+00  0.67560036207E+03  0.67560036207E+03  0.00000000000E+00 0.  1.
         -2   -1    0    0    0  501 -0.00000000000E+00 -0.00000000000E+00 -0.11130492339E+03  0.11130492339E+03  0.00000000000E+00 0. -1.
         23    2    1    2    0    0  0.15468459551E+03 -0.88481698788E+02  0.57485593184E+03  0.60838957432E+03  0.89006722617E+02 0.  0.
         13    1    3    3    0    0  0.10430960859E+03 -0.31038589917E+02  0.22054860398E+03  0.24593815325E+03  0.00000000000E+00 0. -1.
        -13    1    3    3    0    0  0.50374986918E+02 -0.57443108871E+02  0.35430732785E+03  0.36245142107E+03  0.00000000000E+00 0.  1.
         22    1    1    2    0    0 -0.15468459551E+03  0.88481698788E+02 -0.10560493154E+02  0.17851571114E+03  0.00000000000E+00 0. -1.
<mgrwt>
<rscale>  0 0.54844379E+03</rscale>
<asrwt>0</asrwt>
<pdfrwt beam="1">  1        2 0.10393851E+00 0.54844379E+03</pdfrwt>
<pdfrwt beam="2">  1       -2 0.17123835E-01 0.54844379E+03</pdfrwt>
<totfact> 0.12011198E+03</totfact>
</mgrwt>
</event>
<event>
 6    1  0.5026615E-004  0.2946772E+04  0.7818608E-02  0.8259096E-01
         -2   -1    0    0    0  501 -0.00000000000E+00  0.00000000000E+00  0.66975204934E+03  0.66975204934E+03  0.00000000000E+00 0. -1.
          2   -1    0    0  501    0  0.00000000000E+00 -0.00000000000E+00 -0.32412982253E+04  0.32412982253E+04  0.00000000000E+00 0.  1.
         23    2    1    2    0    0 -0.39013719845E+02 -0.72391325381E+03  0.41322262459E+03  0.83950062306E+03  0.91847097185E+02 0.  0.
         13    1    3    3    0    0 -0.45830399114E+02 -0.20183592628E+03  0.14324624723E+03  0.25170946340E+03  0.00000000000E+00 0.  1.
        -13    1    3    3    0    0  0.68166792687E+01 -0.52207732753E+03  0.26997637736E+03  0.58779115966E+03  0.00000000000E+00 0. -1.
         22    1    1    2    0    0  0.39013719845E+02  0.72391325381E+03 -0.29847688006E+04  0.30715496516E+04  0.00000000000E+00 0.  1.
<mgrwt>
<rscale>  0 0.29467719E+04</rscale>
<asrwt>0</asrwt>
<pdfrwt beam="1">  1        2 0.49866126E+00 0.29467719E+04</pdfrwt>
<pdfrwt beam="2">  1       -2 0.10303878E+00 0.29467719E+04</pdfrwt>
<totfact> 0.80507648E-01</totfact>
</mgrwt>
</event>
<event>
 6    1  0.5026615E-004  0.2795961E+04  0.7818608E-02  0.8304523E-01
         -2   -1    0    0    0  501 -0.00000000000E+00  0.00000000000E+00  0.11883013750E+04  0.11883013750E+04  0.00000000000E+00 0. -1.
          2   -1    0    0  501    0  0.00000000000E+00 -0.00000000000E+00 -0.16446581611E+04  0.16446581611E+04  0.00000000000E+00 0.  1.
         23    2    1    2    0    0 -0.32503013146E+03  0.71250173548E+03  0.94316151173E+03  0.12292280202E+04  0.90247320826E+02 0.  0.
         13    1    3    3    0    0 -0.14913602752E+03  0.34898427391E+03  0.52598656471E+03  0.64860885316E+03  0.00000000000E+00 0.  1.
        -13    1    3    3    0    0 -0.17589410394E+03  0.36351746157E+03  0.41717494702E+03  0.58061916700E+03  0.00000000000E+00 0. -1.
         22    1    1    2    0    0  0.32503013146E+03 -0.71250173548E+03 -0.13995182978E+04  0.16037315160E+04  0.00000000000E+00 0.  1.
<mgrwt>
<rscale>  0 0.27959611E+04</rscale>
<asrwt>0</asrwt>
<pdfrwt beam="1">  1        2 0.25302433E+00 0.27959611E+04</pdfrwt>
<pdfrwt beam="2">  1       -2 0.18281560E+00 0.27959611E+04</pdfrwt>
<totfact> 0.15895114E+00</totfact>
</mgrwt>
</event>
<event>
 6    1  0.5026615E-004  0.2147660E+04  0.7818608E-02  0.8540535E-01
         -2   -1    0    0    0  501 -0.00000000000E+00  0.00000000000E+00  0.32771791359E+03  0.32771791359E+03  0.00000000000E+00 0. -1.
          2   -1    0    0  501    0  0.00000000000E+00 -0.00000000000E+00 -0.35186071133E+04  0.35186071133E+04  0.00000000000E+00 0.  1.
         23    2    1    2    0    0  0.98416356901E+03 -0.98044496076E+02 -0.23380109130E+04  0.25403418625E+04  0.94080258817E+02 0.  0.
         13    1    3    3    0    0  0.87524637038E+03 -0.11391442943E+03 -0.21094318185E+04  0.22866428018E+04  0.00000000000E+00 0.  1.
        -13    1    3    3    0    0  0.10891719863E+03  0.15869933349E+02 -0.22857909447E+03  0.25369906064E+03  0.00000000000E+00 0. -1.
         22    1    1    2    0    0 -0.98416356901E+03  0.98044496076E+02 -0.85287828666E+03  0.13059831644E+04  0.00000000000E+00 0.  1.
<mgrwt>
<rscale>  0 0.21476597E+04</rscale>
<asrwt>0</asrwt>
<pdfrwt beam="1">  1        2 0.54132415E+00 0.21476597E+04</pdfrwt>
<pdfrwt beam="2">  1       -2 0.50418142E-01 0.21476597E+04</pdfrwt>
<totfact> 0.27053971E+00</totfact>
</mgrwt>
</event>
<event>
 6    1  0.5026615E-004  0.1401163E+04  0.7818608E-02  0.8952977E-01
         -2   -1    0    0    0  501 -0.00000000000E+00  0.00000000000E+00  0.40518667423E+03  0.40518667423E+03  0.00000000000E+00 0. -1.
          2   -1    0    0  501    0  0.00000000000E+00 -0.00000000000E+00 -0.12113287223E+04  0.12113287223E+04  0.00000000000E+00 0.  1.
         23    2    1    2    0    0  0.41473310345E+03  0.95336683954E+02  0.23260562565E+03  0.49397837707E+03  0.93896909015E+02 0.  0.
         11    1    3    3    0    0  0.45474440129E+02  0.34852692460E+02  0.56361732796E+02  0.80369644771E+02  0.00000000000E+00 0. -1.
        -11    1    3    3    0    0  0.36925866333E+03  0.60483991494E+02  0.17624389286E+03  0.41360873230E+03  0.00000000000E+00 0.  1.
         22    1    1    2    0    0 -0.41473310345E+03 -0.95336683954E+02 -0.10387476738E+04  0.11225370195E+04  0.00000000000E+00 0.  1.
<mgrwt>
<rscale>  0 0.14011627E+04</rscale>
<asrwt>0</asrwt>
<pdfrwt beam="1">  1        2 0.18635826E+00 0.14011627E+04</pdfrwt>
<pdfrwt beam="2">  1       -2 0.62336413E-01 0.14011627E+04</pdfrwt>
<totfact> 0.43338615E+01</totfact>
</mgrwt>
</event>
<event>
 6    1  0.5026615E-004  0.1648650E+04  0.7818608E-02  0.8791206E-01
          2   -1    0    0  501    0  0.00000000000E+00  0.00000000000E+00  0.13932943529E+04  0.13932943529E+04  0.00000000000E+00 0.  1.
         -2   -1    0    0    0  501 -0.00000000000E+00 -0.00000000000E+00 -0.48770145365E+03  0.48770145365E+03  0.00000000000E+00 0. -1.
         23    2    1    2    0    0 -0.43953495411E+03  0.12435734742E+01 -0.33819586099E+03  0.56182826508E+03  0.89900148441E+02 0.  0.
         11    1    3    3    0    0 -0.74429600859E+02 -0.23081918492E+02 -0.30302939569E+02  0.83611055440E+02  0.00000000000E+00 0.  1.
        -11    1    3    3    0    0 -0.36510535325E+03  0.24325491966E+02 -0.30789292142E+03  0.47821720964E+03  0.00000000000E+00 0. -1.
         22    1    1    2    0    0  0.43953495411E+03 -0.12435734742E+01  0.12437887602E+04  0.13191675415E+04  0.00000000000E+00 0.  1.
<mgrwt>
<rscale>  0 0.16486500E+04</rscale>
<asrwt>0</asrwt>
<pdfrwt beam="1">  1        2 0.21435298E+00 0.16486500E+04</pdfrwt>
<pdfrwt beam="2">  1       -2 0.75030993E-01 0.16486500E+04</pdfrwt>
<totfact> 0.22251244E+01</totfact>
</mgrwt>
</event>
<event>
 6    1  0.5026615E-004  0.4155324E+04  0.7818608E-02  0.7973925E-01
         -2   -1    0    0    0  501 -0.00000000000E+00  0.00000000000E+00  0.17231065554E+04  0.17231065554E+04  0.00000000000E+00 0. -1.
          2   -1    0    0  501    0  0.00000000000E+00 -0.00000000000E+00 -0.25051725198E+04  0.25051725198E+04  0.00000000000E+00 0.  1.
         23    2    1    2    0    0  0.11526146791E+04  0.53415900610E+03  0.12804248570E+04  0.18059424283E+04  0.89965536572E+02 0.  0.
         11    1    3    3    0    0  0.51658318169E+03  0.25493685252E+03  0.52046511922E+03  0.77636004708E+03  0.00000000000E+00 0.  1.
        -11    1    3    3    0    0  0.63603149739E+03  0.27922215358E+03  0.75995973778E+03  0.10295823812E+04  0.00000000000E+00 0. -1.
         22    1    1    2    0    0 -0.11526146791E+04 -0.53415900610E+03 -0.20624908214E+04  0.24223366468E+04  0.00000000000E+00 0.  1.
<mgrwt>
<rscale>  0 0.41553239E+04</rscale>
<asrwt>0</asrwt>
<pdfrwt beam="1">  1        2 0.38541115E+00 0.41553239E+04</pdfrwt>
<pdfrwt beam="2">  1       -2 0.26509332E+00 0.41553239E+04</pdfrwt>
<totfact> 0.13987201E-01</totfact>
</mgrwt>
</event>
<event>
 6    1  0.5026615E-004  0.2724179E+04  0.7818608E-02  0.8327202E-01
          2   -1    0    0  501    0  0.00000000000E+00  0.00000000000E+00  0.88086099597E+03  0.88086099597E+03  0.00000000000E+00 0.  1.
         -2   -1    0    0    0  501 -0.00000000000E+00 -0.00000000000E+00 -0.21062210799E+04  0.21062210799E+04  0.00000000000E+00 0. -1.
         23    2    1    2    0    0 -0.10039027343E+04 -0.80260974616E+03 -0.11026833415E+04  0.16959381305E+04  0.91063090347E+02 0.  0.
         13    1    3    3    0    0 -0.56555233829E+03 -0.39413486721E+03 -0.59395614334E+03  0.90993166837E+03  0.00000000000E+00 0. -1.
        -13    1    3    3    0    0 -0.43835039597E+03 -0.40847487895E+03 -0.50872719818E+03  0.78600646215E+03  0.00000000000E+00 0.  1.
         22    1    1    2    0    0  0.10039027343E+04  0.80260974616E+03 -0.12267674242E+03  0.12911439454E+04  0.00000000000E+00 0.  1.
<mgrwt>
<rscale>  0 0.27241791E+04</rscale>
<asrwt>0</asrwt>
<pdfrwt beam="1">  1        2 0.13551708E+00 0.27241791E+04</pdfrwt>
<pdfrwt beam="2">  1       -2 0.32403401E+00 0.27241791E+04</pdfrwt>
<totfact> 0.59810761E-01</totfact>
</mgrwt>
</event>
<event>
 6    1  0.5026615E-004  0.3357239E+04  0.7818608E-02  0.8148482E-01
          2   -1    0    0  501    0  0.00000000000E+00  0.00000000000E+00  0.23645151518E+04  0.23645151518E+04  0.00000000000E+00 0.  1.
         -2   -1    0    0    0  501 -0.00000000000E+00 -0.00000000000E+00 -0.11916876289E+04  0.11916876289E+04  0.00000000000E+00 0. -1.
         23    2    1    2    0    0 -0.10682186640E+03  0.72792244182E+03  0.21836314616E+04  0.23060001591E+04  0.90046551747E+02 0.  0.
         11    1    3    3    0    0 -0.14015777941E+02  0.33444196294E+02  0.17377163365E+03  0.17751489221E+03  0.00000000000E+00 0. -1.
        -11    1    3    3    0    0 -0.92806088460E+02  0.69447824553E+03  0.20098598279E+04  0.21284852669E+04  0.00000000000E+00 0.  1.
         22    1    1    2    0    0  0.10682186640E+03 -0.72792244182E+03 -0.10108039387E+04  0.12502026216E+04  0.00000000000E+00 0. -1.
<mgrwt>
<rscale>  0 0.33572390E+04</rscale>
<asrwt>0</asrwt>
<pdfrwt beam="1">  1        2 0.36377156E+00 0.33572390E+04</pdfrwt>
<pdfrwt beam="2">  1       -2 0.18333656E+00 0.33572390E+04</pdfrwt>
<totfact> 0.59560145E-01</totfact>
</mgrwt>
</event>
<event>
 6    1  0.5026615E-004  0.1560768E+04  0.7818608E-02  0.8845019E-01
          2   -1    0    0  501    0  0.00000000000E+00  0.00000000000E+00  0.19159019135E+04  0.19159019135E+04  0.00000000000E+00 0.  1.
         -2   -1    0    0    0  501 -0.00000000000E+00 -0.00000000000E+00 -0.31786555644E+03  0.31786555644E+03  0.00000000000E+00 0. -1.
         23    2    1    2    0    0  0.48995402557E+03  0.21054849686E+03  0.16120953219E+04  0.17003040024E+04  0.88299247829E+02 0.  0.
         11    1    3    3    0    0  0.31258621949E+03  0.14078688921E+03  0.89813186224E+03  0.96133861608E+03  0.00000000000E+00 0. -1.
        -11    1    3    3    0    0  0.17736780608E+03  0.69761607645E+02  0.71396345965E+03  0.73896538636E+03  0.00000000000E+00 0.  1.
         22    1    1    2    0    0 -0.48995402557E+03 -0.21054849686E+03 -0.14058964786E+02  0.53346346753E+03  0.00000000000E+00 0. -1.
<mgrwt>
<rscale>  0 0.15607681E+04</rscale>
<asrwt>0</asrwt>
<pdfrwt beam="1">  1        2 0.29475413E+00 0.15607681E+04</pdfrwt>
<pdfrwt beam="2">  1       -2 0.48902394E-01 0.15607681E+04</pdfrwt>
<totfact> 0.28338140E+01</totfact>
</mgrwt>
</event>
<event>
 6    1  0.5026615E-004  0.1332967E+04  0.7818608E-02  0.9003823E-01
          2   -1    0    0  501    0  0.00000000000E+00  0.00000000000E+00  0.12218459133E+04  0.12218459133E+04  0.00000000000E+00 0.  1.
         -2   -1    0    0    0  501 -0.00000000000E+00 -0.00000000000E+00 -0.36354853880E+03  0.36354853880E+03  0.00000000000E+00 0. -1.
         23    2    1    2    0    0  0.42982271121E+03 -0.46263045674E+03  0.18858289328E+03  0.66490980319E+03  0.88130790114E+02 0.  0.
         11    1    3    3    0    0  0.38216695081E+02 -0.66801943011E+02 -0.22329951127E+00  0.76961452921E+02  0.00000000000E+00 0.  1.
        -11    1    3    3    0    0  0.39160601613E+03 -0.39582851372E+03  0.18880619279E+03  0.58794835026E+03  0.00000000000E+00 0. -1.
         22    1    1    2    0    0 -0.42982271121E+03  0.46263045674E+03  0.66971448127E+03  0.92048464897E+03  0.00000000000E+00 0.  1.
<mgrwt>
<rscale>  0 0.13329671E+04</rscale>
<asrwt>0</asrwt>
<pdfrwt beam="1">  1        2 0.18797629E+00 0.13329671E+04</pdfrwt>
<pdfrwt beam="2">  1       -2 0.55930545E-01 0.13329671E+04</pdfrwt>
<totfact> 0.53958083E+01</totfact>
</mgrwt>
</event>
<event>
 6    1  0.5026615E-004  0.2861537E+04  0.7818608E-02  0.8284414E-01
          2   -1    0    0  501    0  0.00000000000E+00  0.00000000000E+00  0.81465235104E+03  0.81465235104E+03  0.00000000000E+00 0.  1.
         -2   -1    0    0    0  501 -0.00000000000E+00 -0.00000000000E+00 -0.25128488741E+04  0.25128488741E+04  0.00000000000E+00 0. -1.
         23    2    1    2    0    0  0.12514581249E+04 -0.68972394023E+03 -0.81249330951E+03  0.16463299862E+04  0.91599636817E+02 0.  0.
         13    1    3    3    0    0  0.41494436077E+03 -0.27852853443E+03 -0.28278767294E+03  0.57421758506E+03  0.00000000000E+00 0. -1.
        -13    1    3    3    0    0  0.83651376413E+03 -0.41119540579E+03 -0.52970563657E+03  0.10721124012E+04  0.00000000000E+00 0.  1.
         22    1    1    2    0    0 -0.12514581249E+04  0.68972394023E+03 -0.88570321356E+03  0.16811712389E+04  0.00000000000E+00 0.  1.
<mgrwt>
<rscale>  0 0.28615368E+04</rscale>
<asrwt>0</asrwt>
<pdfrwt beam="1">  1        2 0.12533113E+00 0.28615368E+04</pdfrwt>
<pdfrwt beam="2">  1       -2 0.38659214E+00 0.28615368E+04</pdfrwt>
<totfact> 0.26407125E-01</totfact>
</mgrwt>
</event>
<event>
 6    1  0.5026615E-004  0.1891590E+04  0.7818608E-02  0.8659054E-01
          2   -1    0    0  501    0  0.00000000000E+00  0.00000000000E+00  0.28365819627E+04  0.28365819627E+04  0.00000000000E+00 0.  1.
         -2   -1    0    0    0  501 -0.00000000000E+00 -0.00000000000E+00 -0.31535439213E+03  0.31535439213E+03  0.00000000000E+00 0. -1.
         23    2    1    2    0    0  0.46620863432E+03 -0.35621037362E+03  0.24950126984E+04  0.25646344388E+04  0.89583027805E+02 0.  0.
         13    1    3    3    0    0  0.32545950927E+03 -0.22122296289E+03  0.18173420208E+04  0.18594610811E+04  0.00000000000E+00 0. -1.
        -13    1    3    3    0    0  0.14074912505E+03 -0.13498741073E+03  0.67767067758E+03  0.70517335778E+03  0.00000000000E+00 0.  1.
         22    1    1    2    0    0 -0.46620863432E+03  0.35621037362E+03  0.26214872188E+02  0.58730191599E+03  0.00000000000E+00 0. -1.
<mgrwt>
<rscale>  0 0.18915904E+04</rscale>
<asrwt>0</asrwt>
<pdfrwt beam="1">  1        2 0.43639721E+00 0.18915904E+04</pdfrwt>
<pdfrwt beam="2">  1       -2 0.48516062E-01 0.18915904E+04</pdfrwt>
<totfact> 0.83037942E+00</totfact>
</mgrwt>
</event>
<event>
 6    1  0.5026615E-004  0.2410111E+04  0.7818608E-02  0.8435728E-01
          2   -1    0    0  501    0  0.00000000000E+00  0.00000000000E+00  0.12159710423E+04  0.12159710423E+04  0.00000000000E+00 0.  1.
         -2   -1    0    0    0  501 -0.00000000000E+00 -0.00000000000E+00 -0.11942377570E+04  0.11942377570E+04  0.00000000000E+00 0. -1.
         23    2    1    2    0    0 -0.91406354323E+03  0.66468300702E+03 -0.40228241038E+03  0.12031027679E+04  0.91156302454E+02 0.  0.
         13    1    3    3    0    0 -0.19006497497E+03  0.13248311364E+03 -0.12201797846E+03  0.26184892052E+03  0.00000000000E+00 0. -1.
        -13    1    3    3    0    0 -0.72399856826E+03  0.53219989338E+03 -0.28026443192E+03  0.94125384735E+03  0.00000000000E+00 0.  1.
         22    1    1    2    0    0  0.91406354323E+03 -0.66468300702E+03  0.42401569563E+03  0.12071060314E+04  0.00000000000E+00 0.  1.
<mgrwt>
<rscale>  0 0.24101108E+04</rscale>
<asrwt>0</asrwt>
<pdfrwt beam="1">  1        2 0.18707247E+00 0.24101108E+04</pdfrwt>
<pdfrwt beam="2">  1       -2 0.18372889E+00 0.24101108E+04</pdfrwt>
<totfact> 0.28457614E+00</totfact>
</mgrwt>
</event>
<event>
 6    1  0.5026615E-004  0.5078240E+04  0.7818608E-02  0.7816550E-01
          2   -1    0    0  501    0  0.00000000000E+00  0.00000000000E+00  0.41058462025E+04  0.41058462025E+04  0.00000000000E+00 0.  1.
         -2   -1    0    0    0  501 -0.00000000000E+00 -0.00000000000E+00 -0.15702320521E+04  0.15702320521E+04  0.00000000000E+00 0. -1.
         23    2    1    2    0    0 -0.92145419752E+03 -0.19425144405E+03  0.39028466031E+04  0.40159168042E+04  0.92545717155E+02 0.  0.
         13    1    3    3    0    0 -0.38205703271E+03 -0.73523369830E+02  0.18066748308E+04  0.18480928566E+04  0.00000000000E+00 0.  1.
        -13    1    3    3    0    0 -0.53939716481E+03 -0.12072807422E+03  0.20961717722E+04  0.21678239477E+04  0.00000000000E+00 0. -1.
         22    1    1    2    0    0  0.92145419752E+03  0.19425144405E+03 -0.13672324527E+04  0.16601614504E+04  0.00000000000E+00 0. -1.
<mgrwt>
<rscale>  0 0.50782404E+04</rscale>
<asrwt>0</asrwt>
<pdfrwt beam="1">  1        2 0.63166864E+00 0.50782404E+04</pdfrwt>
<pdfrwt beam="2">  1       -2 0.24157416E+00 0.50782404E+04</pdfrwt>
<totfact> 0.14582888E-02</totfact>
</mgrwt>
</event>
<event>
 6    1  0.5026615E-004  0.3918809E+04  0.7818608E-02  0.8021129E-01
         -2   -1    0    0    0  501 -0.00000000000E+00  0.00000000000E+00  0.13182112545E+04  0.13182112545E+04  0.00000000000E+00 0. -1.
          2   -1    0    0  501    0  0.00000000000E+00 -0.00000000000E+00 -0.29124820827E+04  0.29124820827E+04  0.00000000000E+00 0.  1.
         23    2    1    2    0    0 -0.44592876636E+03 -0.17513067433E+04 -0.16124081242E+04  0.24234145166E+04  0.84558776261E+02 0.  0.
         13    1    3    3    0    0 -0.23498144496E+03 -0.85133061423E+03 -0.73641097315E+03  0.11499048724E+04  0.00000000000E+00 0. -1.
        -13    1    3    3    0    0 -0.21094732140E+03 -0.89997612911E+03 -0.87599715100E+03  0.12735096442E+04  0.00000000000E+00 0.  1.
         22    1    1    2    0    0  0.44592876636E+03  0.17513067433E+04  0.18137295937E+02  0.18072788206E+04  0.00000000000E+00 0. -1.
<mgrwt>
<rscale>  0 0.39188093E+04</rscale>
<asrwt>0</asrwt>
<pdfrwt beam="1">  1        2 0.44807416E+00 0.39188093E+04</pdfrwt>
<pdfrwt beam="2">  1       -2 0.20280174E+00 0.39188093E+04</pdfrwt>
<totfact> 0.19973035E-01</totfact>
</mgrwt>
</event>
<event>
 6    1  0.5026615E-004  0.2598938E+04  0.7818608E-02  0.8368562E-01
          2   -1    0    0  501    0  0.00000000000E+00  0.00000000000E+00  0.14347067854E+04  0.14347067854E+04  0.00000000000E+00 0.  1.
         -2   -1    0    0    0  501 -0.00000000000E+00 -0.00000000000E+00 -0.11769786752E+04  0.11769786752E+04  0.00000000000E+00 0. -1.
         23    2    1    2    0    0 -0.72608863599E+03  0.38140002175E+03 -0.88178706677E+03  0.12077034370E+04  0.91260488046E+02 0.  0.
         13    1    3    3    0    0 -0.23437331605E+03  0.16920463691E+03 -0.28714757646E+03  0.40744912700E+03  0.00000000000E+00 0. -1.
        -13    1    3    3    0    0 -0.49171531993E+03  0.21219538484E+03 -0.59463949032E+03  0.80025430999E+03  0.00000000000E+00 0.  1.
         22    1    1    2    0    0  0.72608863599E+03 -0.38140002175E+03  0.11395151770E+04  0.14039820235E+04  0.00000000000E+00 0.  1.
<mgrwt>
<rscale>  0 0.25989377E+04</rscale>
<asrwt>0</asrwt>
<pdfrwt beam="1">  1        2 0.22072412E+00 0.25989377E+04</pdfrwt>
<pdfrwt beam="2">  1       -2 0.18107364E+00 0.25989377E+04</pdfrwt>
<totfact> 0.21803298E+00</totfact>
</mgrwt>
</event>
<event>
 6    1  0.5026615E-004  0.1386513E+04  0.7818608E-02  0.8963639E-01
          2   -1    0    0  501    0  0.00000000000E+00  0.00000000000E+00  0.14020431265E+04  0.14020431265E+04  0.00000000000E+00 0.  1.
         -2   -1    0    0    0  501 -0.00000000000E+00 -0.00000000000E+00 -0.34278867376E+03  0.34278867376E+03  0.00000000000E+00 0. -1.
         23    2    1    2    0    0 -0.66558753452E+03 -0.18270726335E+03  0.53819780231E+03  0.88002619024E+03  0.91654301108E+02 0.  0.
         11    1    3    3    0    0 -0.24226913432E+03 -0.45740251892E+02  0.24236457520E+03  0.34572690292E+03  0.00000000000E+00 0. -1.
        -11    1    3    3    0    0 -0.42331840020E+03 -0.13696701146E+03  0.29583322711E+03  0.53429928732E+03  0.00000000000E+00 0.  1.
         22    1    1    2    0    0  0.66558753452E+03  0.18270726335E+03  0.52105665046E+03  0.86480561005E+03  0.00000000000E+00 0. -1.
<mgrwt>
<rscale>  0 0.13865129E+04</rscale>
<asrwt>0</asrwt>
<pdfrwt beam="1">  1        2 0.21569894E+00 0.13865129E+04</pdfrwt>
<pdfrwt beam="2">  1       -2 0.52736720E-01 0.13865129E+04</pdfrwt>
<totfact> 0.47681366E+01</totfact>
</mgrwt>
</event>
<event>
 6    1  0.5026615E-004  0.1651465E+04  0.7818608E-02  0.8789540E-01
         -2   -1    0    0    0  501 -0.00000000000E+00  0.00000000000E+00  0.51275977790E+03  0.51275977790E+03  0.00000000000E+00 0. -1.
          2   -1    0    0  501    0  0.00000000000E+00 -0.00000000000E+00 -0.13297338724E+04  0.13297338724E+04  0.00000000000E+00 0.  1.
         23    2    1    2    0    0 -0.72983142192E+02 -0.68666060314E+03  0.90312753682E+02  0.70231877431E+03  0.90917238850E+02 0.  0.
         13    1    3    3    0    0 -0.16932136278E+02 -0.35817777652E+03  0.87399118562E+02  0.36907536190E+03  0.00000000000E+00 0. -1.
        -13    1    3    3    0    0 -0.56051005914E+02 -0.32848282662E+03  0.29136351196E+01  0.33324341241E+03  0.00000000000E+00 0.  1.
         22    1    1    2    0    0  0.72983142192E+02  0.68666060314E+03 -0.90728684819E+03  0.11401748760E+04  0.00000000000E+00 0. -1.
<mgrwt>
<rscale>  0 0.16514649E+04</rscale>
<asrwt>0</asrwt>
<pdfrwt beam="1">  1        2 0.20457444E+00 0.16514649E+04</pdfrwt>
<pdfrwt beam="2">  1       -2 0.78886120E-01 0.16514649E+04</pdfrwt>
<totfact> 0.21646397E+01</totfact>
</mgrwt>
</event>
<event>
 6    1  0.5026615E-004  0.4841318E+03  0.7818608E-02  0.1018006E+00
         -2   -1    0    0    0  501 -0.00000000000E+00  0.00000000000E+00  0.24646554186E+03  0.24646554186E+03  0.00000000000E+00 0. -1.
          2   -1    0    0  501    0  0.00000000000E+00 -0.00000000000E+00 -0.23774479826E+03  0.23774479826E+03  0.00000000000E+00 0.  1.
         23    2    1    2    0    0 -0.23143329652E+03  0.26053816841E+02 -0.60538504267E+01  0.25084697381E+03  0.92991306325E+02 0.  0.
         11    1    3    3    0    0 -0.14667101453E+03 -0.29085398759E+02 -0.75455411098E+01  0.14971734073E+03  0.00000000000E+00 0.  1.
        -11    1    3    3    0    0 -0.84762281994E+02  0.55139215600E+02  0.14916906831E+01  0.10112963308E+03  0.00000000000E+00 0. -1.
         22    1    1    2    0    0  0.23143329652E+03 -0.26053816841E+02  0.14774594024E+02  0.23336336632E+03  0.00000000000E+00 0. -1.
<mgrwt>
<rscale>  0 0.48413180E+03</rscale>
<asrwt>0</asrwt>
<pdfrwt beam="1">  1        2 0.36576123E-01 0.48413180E+03</pdfrwt>
<pdfrwt beam="2">  1       -2 0.37917776E-01 0.48413180E+03</pdfrwt>
<totfact> 0.93636328E+02</totfact>
</mgrwt>
</event>
<event>
 6    1  0.5026615E-004  0.3320999E+04  0.7818608E-02  0.8157573E-01
         -2   -1    0    0    0  501 -0.00000000000E+00  0.00000000000E+00  0.18368581390E+04  0.18368581390E+04  0.00000000000E+00 0. -1.
          2   -1    0    0  501    0  0.00000000000E+00 -0.00000000000E+00 -0.15010728948E+04  0.15010728948E+04  0.00000000000E+00 0.  1.
         23    2    1    2    0    0  0.13839810518E+04 -0.76716546084E+03  0.66971625943E+03  0.17206937849E+04  0.91218623158E+02 0.  0.
         11    1    3    3    0    0  0.84388887516E+03 -0.43278250128E+03  0.43633584305E+03  0.10439531096E+04  0.00000000000E+00 0.  1.
        -11    1    3    3    0    0  0.54009217668E+03 -0.33438295956E+03  0.23338041638E+03  0.67674067537E+03  0.00000000000E+00 0. -1.
         22    1    1    2    0    0 -0.13839810518E+04  0.76716546084E+03 -0.33393101522E+03  0.16172372489E+04  0.00000000000E+00 0.  1.
<mgrwt>
<rscale>  0 0.33209986E+04</rscale>
<asrwt>0</asrwt>
<pdfrwt beam="1">  1        2 0.23093429E+00 0.33209986E+04</pdfrwt>
<pdfrwt beam="2">  1       -2 0.28259356E+00 0.33209986E+04</pdfrwt>
<totfact> 0.42914933E-01</totfact>
</mgrwt>
</event>
<event>
 6    1  0.5026615E-004  0.4072411E+03  0.7818608E-02  0.1041301E+00
         -2   -1    0    0    0  501 -0.00000000000E+00  0.00000000000E+00  0.30850930942E+02  0.30850930942E+02  0.00000000000E+00 0. -1.
          2   -1    0    0  501    0  0.00000000000E+00 -0.00000000000E+00 -0.13439247699E+04  0.13439247699E+04  0.00000000000E+00 0.  1.
         23    2    1    2    0    0 -0.18373283529E+03 -0.34753255263E+02 -0.58063155707E+03  0.61884102124E+03  0.10423848136E+03 0.  0.
         11    1    3    3    0    0 -0.14114554500E+03 -0.32028983069E+02 -0.54295476883E+03  0.56191440774E+03  0.00000000000E+00 0.  1.
        -11    1    3    3    0    0 -0.42587290290E+02 -0.27242721946E+01 -0.37676788236E+02  0.56926613504E+02  0.00000000000E+00 0. -1.
         22    1    1    2    0    0  0.18373283529E+03  0.34753255263E+02 -0.73244228191E+03  0.75593467961E+03  0.00000000000E+00 0. -1.
<mgrwt>
<rscale>  0 0.40724111E+03</rscale>
<asrwt>0</asrwt>
<pdfrwt beam="1">  1        2 0.20675764E+00 0.40724111E+03</pdfrwt>
<pdfrwt beam="2">  1       -2 0.47462974E-02 0.40724111E+03</pdfrwt>
<totfact> 0.35240467E+03</totfact>
</mgrwt>
</event>
<event>
 6    1  0.5026615E-004  0.1811019E+04  0.7818608E-02  0.8700461E-01
          2   -1    0    0  501    0  0.00000000000E+00  0.00000000000E+00  0.27969490711E+04  0.27969490711E+04  0.00000000000E+00 0.  1.
         -2   -1    0    0    0  501 -0.00000000000E+00 -0.00000000000E+00 -0.29315792298E+03  0.29315792298E+03  0.00000000000E+00 0. -1.
         23    2    1    2    0    0 -0.51921423874E+03 -0.21765612770E+03  0.49939617890E+02  0.57250000569E+03  0.91129991971E+02 0.  0.
         13    1    3    3    0    0 -0.23921819416E+03 -0.61869361532E+02 -0.63744574856E+01  0.24717159226E+03  0.00000000000E+00 0. -1.
        -13    1    3    3    0    0 -0.27999604459E+03 -0.15578676617E+03  0.56314075375E+02  0.32532841343E+03  0.00000000000E+00 0.  1.
         22    1    1    2    0    0  0.51921423874E+03  0.21765612770E+03  0.24538515302E+04  0.25176069884E+04  0.00000000000E+00 0.  1.
<mgrwt>
<rscale>  0 0.18110194E+04</rscale>
<asrwt>0</asrwt>
<pdfrwt beam="1">  1        2 0.43029984E+00 0.18110194E+04</pdfrwt>
<pdfrwt beam="2">  1       -2 0.45101221E-01 0.18110194E+04</pdfrwt>
<totfact> 0.10237855E+01</totfact>
</mgrwt>
</event>
<event>
 6    1  0.5026615E-004  0.2003430E+04  0.7818608E-02  0.8605019E-01
         -2   -1    0    0    0  501 -0.00000000000E+00  0.00000000000E+00  0.13158168173E+04  0.13158168173E+04  0.00000000000E+00 0. -1.
          2   -1    0    0  501    0  0.00000000000E+00 -0.00000000000E+00 -0.76259309684E+03  0.76259309684E+03  0.00000000000E+00 0.  1.
         23    2    1    2    0    0  0.49920976718E+03  0.48822161824E+03 -0.46522667249E+03  0.84357715500E+03  0.87268662561E+02 0.  0.
         11    1    3    3    0    0  0.25417888132E+03  0.19107851363E+03 -0.22722214862E+03  0.39082963924E+03  0.00000000000E+00 0. -1.
        -11    1    3    3    0    0  0.24503088586E+03  0.29714310462E+03 -0.23800452387E+03  0.45274751576E+03  0.00000000000E+00 0.  1.
         22    1    1    2    0    0 -0.49920976718E+03 -0.48822161824E+03  0.10184503929E+04  0.12348327591E+04  0.00000000000E+00 0. -1.
<mgrwt>
<rscale>  0 0.20034299E+04</rscale>
<asrwt>0</asrwt>
<pdfrwt beam="1">  1        2 0.11732201E+00 0.20034299E+04</pdfrwt>
<pdfrwt beam="2">  1       -2 0.20243336E+00 0.20034299E+04</pdfrwt>
<totfact> 0.43670351E+00</totfact>
</mgrwt>
</event>
<event>
 6    1  0.5026615E-004  0.4147867E+03  0.7818608E-02  0.1038777E+00
          2   -1    0    0  501    0  0.00000000000E+00  0.00000000000E+00  0.56248001137E+02  0.56248001137E+02  0.00000000000E+00 0.  1.
         -2   -1    0    0    0  501 -0.00000000000E+00 -0.00000000000E+00 -0.76468483452E+03  0.76468483452E+03  0.00000000000E+00 0. -1.
         23    2    1    2    0    0 -0.10918668699E+03  0.94116954713E+02 -0.10653153135E+03  0.20200656671E+03  0.93155526096E+02 0.  0.
         13    1    3    3    0    0 -0.20652308443E+02 -0.17267243576E+02 -0.30504909622E+02  0.40684457177E+02  0.00000000000E+00 0. -1.
        -13    1    3    3    0    0 -0.88534378543E+02  0.11138419829E+03 -0.76026621730E+02  0.16132210953E+03  0.00000000000E+00 0.  1.
         22    1    1    2    0    0  0.10918668699E+03 -0.94116954713E+02 -0.60190530203E+03  0.61892626895E+03  0.00000000000E+00 0. -1.
<mgrwt>
<rscale>  0 0.41478666E+03</rscale>
<asrwt>0</asrwt>
<pdfrwt beam="1">  1        2 0.86535387E-02 0.41478666E+03</pdfrwt>
<pdfrwt beam="2">  1       -2 0.11764382E+00 0.41478666E+03</pdfrwt>
<totfact> 0.45052442E+02</totfact>
</mgrwt>
</event>
<event>
 6    1  0.5026615E-004  0.2890865E+04  0.7818608E-02  0.8275601E-01
          2   -1    0    0  501    0  0.00000000000E+00  0.00000000000E+00  0.27958960914E+04  0.27958960914E+04  0.00000000000E+00 0.  1.
         -2   -1    0    0    0  501 -0.00000000000E+00 -0.00000000000E+00 -0.74726478176E+03  0.74726478176E+03  0.00000000000E+00 0. -1.
         23    2    1    2    0    0  0.38999489210E+03 -0.38370731347E+03 -0.61256092553E+03  0.82631133172E+03  0.90731533448E+02 0.  0.
         11    1    3    3    0    0  0.18701378954E+03 -0.24228702533E+03 -0.36477484968E+03  0.47616998129E+03  0.00000000000E+00 0. -1.
        -11    1    3    3    0    0  0.20298110256E+03 -0.14142028813E+03 -0.24778607585E+03  0.35014135043E+03  0.00000000000E+00 0.  1.
         22    1    1    2    0    0 -0.38999489210E+03  0.38370731347E+03  0.26611922352E+04  0.27168495414E+04  0.00000000000E+00 0.  1.
<mgrwt>
<rscale>  0 0.28908647E+04</rscale>
<asrwt>0</asrwt>
<pdfrwt beam="1">  1        2 0.43013785E+00 0.28908647E+04</pdfrwt>
<pdfrwt beam="2">  1       -2 0.11496381E+00 0.28908647E+04</pdfrwt>
<totfact> 0.11848557E+00</totfact>
</mgrwt>
</event>
<event>
 6    1  0.5026615E-004  0.3340651E+04  0.7818608E-02  0.8152628E-01
         -2   -1    0    0    0  501 -0.00000000000E+00  0.00000000000E+00  0.13201820008E+04  0.13201820008E+04  0.00000000000E+00 0. -1.
          2   -1    0    0  501    0  0.00000000000E+00 -0.00000000000E+00 -0.21133348822E+04  0.21133348822E+04  0.00000000000E+00 0.  1.
         23    2    1    2    0    0 -0.12393618941E+04  0.38820427856E+03 -0.14748786899E+04  0.19667276874E+04  0.77654233358E+02 0.  0.
         11    1    3    3    0    0 -0.65464358803E+03  0.16710864247E+03 -0.74500330965E+03  0.10057402533E+04  0.00000000000E+00 0.  1.
        -11    1    3    3    0    0 -0.58471830603E+03  0.22109563609E+03 -0.72987538024E+03  0.96098743404E+03  0.00000000000E+00 0. -1.
         22    1    1    2    0    0  0.12393618941E+04 -0.38820427856E+03  0.68172580857E+03  0.14667891956E+04  0.00000000000E+00 0. -1.
<mgrwt>
<rscale>  0 0.33406506E+04</rscale>
<asrwt>0</asrwt>
<pdfrwt beam="1">  1        2 0.32512844E+00 0.33406506E+04</pdfrwt>
<pdfrwt beam="2">  1       -2 0.20310492E+00 0.33406506E+04</pdfrwt>
<totfact> 0.61024860E-01</totfact>
</mgrwt>
</event>
<event>
 6    1  0.5026615E-004  0.1295008E+04  0.7818608E-02  0.9033533E-01
          2   -1    0    0  501    0  0.00000000000E+00  0.00000000000E+00  0.32300104230E+04  0.32300104230E+04  0.00000000000E+00 0.  1.
         -2   -1    0    0    0  501 -0.00000000000E+00 -0.00000000000E+00 -0.12980183054E+03  0.12980183054E+03  0.00000000000E+00 0. -1.
         23    2    1    2    0    0  0.31141197395E+03 -0.40602194226E+03  0.54377439030E+03  0.75267070290E+03  0.94822804950E+02 0.  0.
         11    1    3    3    0    0  0.17848606364E+03 -0.15515430363E+03  0.24596496149E+03  0.34121678612E+03  0.00000000000E+00 0. -1.
        -11    1    3    3    0    0  0.13292591031E+03 -0.25086763864E+03  0.29780942880E+03  0.41145391678E+03  0.00000000000E+00 0.  1.
         22    1    1    2    0    0 -0.31141197395E+03  0.40602194226E+03  0.25564342022E+04  0.26071415507E+04  0.00000000000E+00 0.  1.
<mgrwt>
<rscale>  0 0.12950077E+04</rscale>
<asrwt>0</asrwt>
<pdfrwt beam="1">  1        2 0.49692462E+00 0.12950077E+04</pdfrwt>
<pdfrwt beam="2">  1       -2 0.19969515E-01 0.12950077E+04</pdfrwt>
<totfact> 0.26453887E+01</totfact>
</mgrwt>
</event>
<event>
 6    1  0.5026615E-004  0.4275599E+04  0.7818608E-02  0.7951146E-01
          2   -1    0    0  501    0  0.00000000000E+00  0.00000000000E+00  0.49243248959E+04  0.49243248959E+04  0.00000000000E+00 0.  1.
         -2   -1    0    0    0  501 -0.00000000000E+00 -0.00000000000E+00 -0.92808387778E+03  0.92808387778E+03  0.00000000000E+00 0. -1.
         23    2    1    2    0    0 -0.32814106028E+03 -0.16363421899E+04  0.17247297242E+03  0.16802996685E+04  0.91475307657E+02 0.  0.
         11    1    3    3    0    0 -0.18676976501E+03 -0.70380964387E+03  0.82624897717E+02  0.73284229794E+03  0.00000000000E+00 0. -1.
        -11    1    3    3    0    0 -0.14137129527E+03 -0.93253254605E+03  0.89848074703E+02  0.94745737059E+03  0.00000000000E+00 0.  1.
         22    1    1    2    0    0  0.32814106028E+03  0.16363421899E+04  0.38237680457E+04  0.41721091052E+04  0.00000000000E+00 0.  1.
<mgrwt>
<rscale>  0 0.42755989E+04</rscale>
<asrwt>0</asrwt>
<pdfrwt beam="1">  1        2 0.75758843E+00 0.42755989E+04</pdfrwt>
<pdfrwt beam="2">  1       -2 0.14278214E+00 0.42755989E+04</pdfrwt>
<totfact> 0.11070342E-02</totfact>
</mgrwt>
</event>
<event>
 6    1  0.5026615E-004  0.9707978E+03  0.7818608E-02  0.9341166E-01
          2   -1    0    0  501    0  0.00000000000E+00  0.00000000000E+00  0.11780839392E+04  0.11780839392E+04  0.00000000000E+00 0.  1.
         -2   -1    0    0    0  501 -0.00000000000E+00 -0.00000000000E+00 -0.19999600009E+03  0.19999600009E+03  0.00000000000E+00 0. -1.
         23    2    1    2    0    0 -0.75516398421E+02  0.20349599794E+03  0.11030067496E+04  0.11276442054E+04  0.88567582292E+02 0.  0.
         11    1    3    3    0    0 -0.12903549228E+02  0.12222594643E+03  0.44389071731E+03  0.46059163310E+03  0.00000000000E+00 0. -1.
        -11    1    3    3    0    0 -0.62612849193E+02  0.81270051510E+02  0.65911603228E+03  0.66705257226E+03  0.00000000000E+00 0.  1.
         22    1    1    2    0    0  0.75516398421E+02 -0.20349599794E+03 -0.12491881049E+03  0.25043573392E+03  0.00000000000E+00 0. -1.
<mgrwt>
<rscale>  0 0.97079777E+03</rscale>
<asrwt>0</asrwt>
<pdfrwt beam="1">  1        2 0.18124368E+00 0.97079777E+03</pdfrwt>
<pdfrwt beam="2">  1       -2 0.30768616E-01 0.97079777E+03</pdfrwt>
<totfact> 0.19061355E+02</totfact>
</mgrwt>
</event>
<event>
 6    1  0.5026615E-004  0.1699720E+04  0.7818608E-02  0.8761524E-01
          2   -1    0    0  501    0  0.00000000000E+00  0.00000000000E+00  0.16003666532E+04  0.16003666532E+04  0.00000000000E+00 0.  1.
         -2   -1    0    0    0  501 -0.00000000000E+00 -0.00000000000E+00 -0.45131051992E+03  0.45131051992E+03  0.00000000000E+00 0. -1.
         23    2    1    2    0    0  0.55634183725E+03 -0.10235971226E+03 -0.18549546478E+03  0.60218701501E+03  0.90702166602E+02 0.  0.
         13    1    3    3    0    0  0.29898088771E+03 -0.10365426005E+02 -0.85193277184E+02  0.31105450929E+03  0.00000000000E+00 0.  1.
        -13    1    3    3    0    0  0.25736094953E+03 -0.91994286252E+02 -0.10030218759E+03  0.29113250572E+03  0.00000000000E+00 0. -1.
         22    1    1    2    0    0 -0.55634183725E+03  0.10235971226E+03  0.13345515980E+04  0.14494901581E+04  0.00000000000E+00 0.  1.
<mgrwt>
<rscale>  0 0.16997203E+04</rscale>
<asrwt>0</asrwt>
<pdfrwt beam="1">  1        2 0.24621025E+00 0.16997203E+04</pdfrwt>
<pdfrwt beam="2">  1       -2 0.69432388E-01 0.16997203E+04</pdfrwt>
<totfact> 0.20069201E+01</totfact>
</mgrwt>
</event>
<event>
 6    1  0.5026615E-004  0.1579376E+04  0.7818608E-02  0.8833319E-01
          2   -1    0    0  501    0  0.00000000000E+00  0.00000000000E+00  0.96599372709E+03  0.96599372709E+03  0.00000000000E+00 0.  1.
         -2   -1    0    0    0  501 -0.00000000000E+00 -0.00000000000E+00 -0.64556002076E+03  0.64556002076E+03  0.00000000000E+00 0. -1.
         23    2    1    2    0    0  0.48876154245E+03 -0.18266710899E+03  0.76201946463E+03  0.92799460628E+03  0.90803120671E+02 0.  0.
         11    1    3    3    0    0  0.24646735626E+03 -0.70605440786E+02  0.30222155686E+03  0.39631951176E+03  0.00000000000E+00 0.  1.
        -11    1    3    3    0    0  0.24229418619E+03 -0.11206166820E+03  0.45979790778E+03  0.53167509452E+03  0.00000000000E+00 0. -1.
         22    1    1    2    0    0 -0.48876154245E+03  0.18266710899E+03 -0.44158575830E+03  0.68355914157E+03  0.00000000000E+00 0. -1.
<mgrwt>
<rscale>  0 0.15793757E+04</rscale>
<asrwt>0</asrwt>
<pdfrwt beam="1">  1        2 0.14861442E+00 0.15793757E+04</pdfrwt>
<pdfrwt beam="2">  1       -2 0.99316926E-01 0.15793757E+04</pdfrwt>
<totfact> 0.21372449E+01</totfact>
</mgrwt>
</event>
<event>
 6    1  0.8927638E-004  0.2349584E+04  0.7818608E-02  0.8458623E-01
         -2   -1    0    0    0  501 -0.00000000000E+00  0.00000000000E+00  0.80551708413E+03  0.80551708413E+03  0.00000000000E+00 0.  1.
          2   -1    0    0  501    0  0.00000000000E+00 -0.00000000000E+00 -0.17133543644E+04  0.17133543644E+04  0.00000000000E+00 0. -1.
         23    2    1    2    0    0 -0.40660241583E+03  0.20903937065E+03  0.70340239551E+03  0.84402331338E+03  0.92614472278E+02 0.  0.
         11    1    3    3    0    0 -0.20092340621E+03  0.11774652734E+03  0.43799686868E+03  0.49606019477E+03  0.00000000000E+00 0.  1.
        -11    1    3    3    0    0 -0.20567900962E+03  0.91292843315E+02  0.26540552683E+03  0.34796311860E+03  0.00000000000E+00 0. -1.
         22    1    1    2    0    0  0.40660241583E+03 -0.20903937065E+03 -0.16112396758E+04  0.16748481352E+04  0.00000000000E+00 0. -1.
<mgrwt>
<rscale>  0 0.23495840E+04</rscale>
<asrwt>0</asrwt>
<pdfrwt beam="1">  1        2 0.26359298E+00 0.23495840E+04</pdfrwt>
<pdfrwt beam="2">  1       -2 0.12392571E+00 0.23495840E+04</pdfrwt>
<totfact> 0.42657343E+00</totfact>
</mgrwt>
</event>
<event>
 6    1  0.6403775E-004  0.2666773E+04  0.7818608E-02  0.8345867E-01
         -2   -1    0    0    0  501 -0.00000000000E+00  0.00000000000E+00  0.71467302988E+03  0.71467302988E+03  0.00000000000E+00 0. -1.
          2   -1    0    0  501    0  0.00000000000E+00 -0.00000000000E+00 -0.24877381460E+04  0.24877381460E+04  0.00000000000E+00 0.  1.
         23    2    1    2    0    0  0.30830468384E+03  0.10184914528E+04  0.74349977515E+02  0.10704357666E+04  0.89040405317E+02 0.  0.
         11    1    3    3    0    0  0.17628823974E+03  0.48680980211E+03  0.71055710227E+02  0.52259950331E+03  0.00000000000E+00 0. -1.
        -11    1    3    3    0    0  0.13201644410E+03  0.53168165070E+03  0.32942672878E+01  0.54783626331E+03  0.00000000000E+00 0.  1.
         22    1    1    2    0    0 -0.30830468384E+03 -0.10184914528E+04 -0.18474150936E+04  0.21319754093E+04  0.00000000000E+00 0.  1.
<mgrwt>
<rscale>  0 0.26667728E+04</rscale>
<asrwt>0</asrwt>
<pdfrwt beam="1">  1        2 0.38272894E+00 0.26667728E+04</pdfrwt>
<pdfrwt beam="2">  1       -2 0.10994970E+00 0.26667728E+04</pdfrwt>
<totfact> 0.20469926E+00</totfact>
</mgrwt>
</event>
<event>
 6    1  0.5026615E-004  0.1129129E+04  0.7818608E-02  0.9177257E-01
         -2   -1    0    0    0  501 -0.00000000000E+00  0.00000000000E+00  0.10782928825E+03  0.10782928825E+03  0.00000000000E+00 0. -1.
          2   -1    0    0  501    0  0.00000000000E+00 -0.00000000000E+00 -0.29559041258E+04  0.29559041258E+04  0.00000000000E+00 0.  1.
         23    2    1    2    0    0 -0.67462574259E+02 -0.99711353123E+02 -0.29197381476E+04  0.29236292283E+04  0.90793511390E+02 0.  0.
         13    1    3    3    0    0 -0.11506653470E+02 -0.52741785263E+02 -0.20854425335E+04  0.20861410929E+04  0.00000000000E+00 0. -1.
        -13    1    3    3    0    0 -0.55955920789E+02 -0.46969567859E+02 -0.83429561405E+03  0.83748813543E+03  0.00000000000E+00 0.  1.
         22    1    1    2    0    0  0.67462574259E+02  0.99711353123E+02  0.71663309969E+02  0.14010418574E+03  0.00000000000E+00 0. -1.
<mgrwt>
<rscale>  0 0.11291289E+04</rscale>
<asrwt>0</asrwt>
<pdfrwt beam="1">  1        2 0.45475447E+00 0.11291289E+04</pdfrwt>
<pdfrwt beam="2">  1       -2 0.16589122E-01 0.11291289E+04</pdfrwt>
<totfact> 0.55284678E+01</totfact>
</mgrwt>
</event>
<event>
 6    1  0.5026615E-004  0.3998063E+04  0.7818608E-02  0.8004937E-01
         -2   -1    0    0    0  501 -0.00000000000E+00  0.00000000000E+00  0.18653407333E+04  0.18653407333E+04  0.00000000000E+00 0. -1.
          2   -1    0    0  501    0  0.00000000000E+00 -0.00000000000E+00 -0.21423036944E+04  0.21423036944E+04  0.00000000000E+00 0.  1.
         23    2    1    2    0    0  0.93262749242E+03  0.29685562494E+03 -0.18845871427E+04  0.21255251937E+04  0.90946956325E+02 0.  0.
         11    1    3    3    0    0  0.69576959769E+03  0.24759192531E+03 -0.14826512140E+04  0.16563972099E+04  0.00000000000E+00 0.  1.
        -11    1    3    3    0    0  0.23685789472E+03  0.49263699638E+02 -0.40193592866E+03  0.46912798376E+03  0.00000000000E+00 0. -1.
         22    1    1    2    0    0 -0.93262749242E+03 -0.29685562494E+03  0.16076241817E+04  0.18821192340E+04  0.00000000000E+00 0. -1.
<mgrwt>
<rscale>  0 0.39980627E+04</rscale>
<asrwt>0</asrwt>
<pdfrwt beam="1">  1        2 0.32958518E+00 0.39980627E+04</pdfrwt>
<pdfrwt beam="2">  1       -2 0.28697550E+00 0.39980627E+04</pdfrwt>
<totfact> 0.16762013E-01</totfact>
</mgrwt>
</event>
<event>
 6    1  0.5026615E-004  0.2603387E+04  0.7818608E-02  0.8367052E-01
          2   -1    0    0  501    0  0.00000000000E+00  0.00000000000E+00  0.24419847189E+04  0.24419847189E+04  0.00000000000E+00 0.  1.
         -2   -1    0    0    0  501 -0.00000000000E+00 -0.00000000000E+00 -0.69386415171E+03  0.69386415171E+03  0.00000000000E+00 0. -1.
         23    2    1    2    0    0 -0.93598609313E+03  0.79998286979E+03  0.13780982874E+04  0.18501743216E+04  0.89149155557E+02 0.  0.
         13    1    3    3    0    0 -0.43454314175E+03  0.36155358547E+03  0.56730203938E+03  0.80086224851E+03  0.00000000000E+00 0.  1.
        -13    1    3    3    0    0 -0.50144295138E+03  0.43842928432E+03  0.81079624806E+03  0.10493120731E+04  0.00000000000E+00 0. -1.
         22    1    1    2    0    0  0.93598609313E+03 -0.79998286979E+03  0.37002227977E+03  0.12856745490E+04  0.00000000000E+00 0. -1.
<mgrwt>
<rscale>  0 0.26033868E+04</rscale>
<asrwt>0</asrwt>
<pdfrwt beam="1">  1        2 0.37568995E+00 0.26033868E+04</pdfrwt>
<pdfrwt beam="2">  1       -2 0.10674833E+00 0.26033868E+04</pdfrwt>
<totfact> 0.23488289E+00</totfact>
</mgrwt>
</event>
<event>
 6    1  0.5026615E-004  0.1885204E+04  0.7818608E-02  0.8662256E-01
          2   -1    0    0  501    0  0.00000000000E+00  0.00000000000E+00  0.16508362347E+04  0.16508362347E+04  0.00000000000E+00 0.  1.
         -2   -1    0    0    0  501 -0.00000000000E+00 -0.00000000000E+00 -0.53821123168E+03  0.53821123168E+03  0.00000000000E+00 0. -1.
         23    2    1    2    0    0  0.50375074843E+03 -0.21483688434E+03 -0.32994326308E+03  0.64602351784E+03  0.92542559585E+02 0.  0.
         13    1    3    3    0    0  0.21295102718E+03 -0.13845318305E+03 -0.16780989029E+03  0.30442993144E+03  0.00000000000E+00 0. -1.
        -13    1    3    3    0    0  0.29079972125E+03 -0.76383701286E+02 -0.16213337279E+03  0.34159358640E+03  0.00000000000E+00 0.  1.
         22    1    1    2    0    0 -0.50375074843E+03  0.21483688434E+03  0.14425682661E+04  0.15430239485E+04  0.00000000000E+00 0.  1.
<mgrwt>
<rscale>  0 0.18852041E+04</rscale>
<asrwt>0</asrwt>
<pdfrwt beam="1">  1        2 0.25397480E+00 0.18852041E+04</pdfrwt>
<pdfrwt beam="2">  1       -2 0.82801729E-01 0.18852041E+04</pdfrwt>
<totfact> 0.12525296E+01</totfact>
</mgrwt>
</event>
<event>
 6    1  0.5026615E-004  0.9744625E+03  0.7818608E-02  0.9337006E-01
         -2   -1    0    0    0  501 -0.00000000000E+00  0.00000000000E+00  0.15696627914E+03  0.15696627914E+03  0.00000000000E+00 0. -1.
          2   -1    0    0  501    0  0.00000000000E+00 -0.00000000000E+00 -0.15123903895E+04  0.15123903895E+04  0.00000000000E+00 0.  1.
         23    2    1    2    0    0  0.22900283618E+03 -0.16085940742E+03 -0.93094841333E+01  0.29445935069E+03  0.91113087871E+02 0.  0.
         13    1    3    3    0    0  0.80937003362E+02 -0.24158945961E+02  0.29047728244E+02  0.89320902924E+02  0.00000000000E+00 0.  1.
        -13    1    3    3    0    0  0.14806583282E+03 -0.13670046146E+03 -0.38357212377E+02  0.20513844777E+03  0.00000000000E+00 0. -1.
         22    1    1    2    0    0 -0.22900283618E+03  0.16085940742E+03 -0.13461146262E+04  0.13748973179E+04  0.00000000000E+00 0.  1.
<mgrwt>
<rscale>  0 0.97446250E+03</rscale>
<asrwt>0</asrwt>
<pdfrwt beam="1">  1        2 0.23267544E+00 0.97446250E+03</pdfrwt>
<pdfrwt beam="2">  1       -2 0.24148658E-01 0.97446250E+03</pdfrwt>
<totfact> 0.19059881E+02</totfact>
</mgrwt>
</event>
<event>
 6    1  0.5026615E-004  0.2782234E+04  0.7818608E-02  0.8308805E-01
         -2   -1    0    0    0  501 -0.00000000000E+00  0.00000000000E+00  0.14926043190E+04  0.14926043190E+04  0.00000000000E+00 0. -1.
          2   -1    0    0  501    0  0.00000000000E+00 -0.00000000000E+00 -0.12965302032E+04  0.12965302032E+04  0.00000000000E+00 0.  1.
         23    2    1    2    0    0  0.91822850098E+03 -0.10390316459E+04  0.19123327696E+03  0.14025005493E+04  0.87791134763E+02 0.  0.
         11    1    3    3    0    0  0.62841923435E+03 -0.64797433349E+03  0.12169513367E+03  0.91081895925E+03  0.00000000000E+00 0.  1.
        -11    1    3    3    0    0  0.28980926663E+03 -0.39105731241E+03  0.69538143292E+02  0.49168159005E+03  0.00000000000E+00 0. -1.
         22    1    1    2    0    0 -0.91822850098E+03  0.10390316459E+04  0.48408388148E+01  0.13866339729E+04  0.00000000000E+00 0.  1.
<mgrwt>
<rscale>  0 0.27822341E+04</rscale>
<asrwt>0</asrwt>
<pdfrwt beam="1">  1        2 0.19946619E+00 0.27822341E+04</pdfrwt>
<pdfrwt beam="2">  1       -2 0.22963143E+00 0.27822341E+04</pdfrwt>
<totfact> 0.12440589E+00</totfact>
</mgrwt>
</event>
<event>
 6    1  0.5026615E-004  0.2161395E+04  0.7818608E-02  0.8534670E-01
         -2   -1    0    0    0  501 -0.00000000000E+00  0.00000000000E+00  0.42955436238E+04  0.42955436238E+04  0.00000000000E+00 0. -1.
          2   -1    0    0  501    0  0.00000000000E+00 -0.00000000000E+00 -0.27188810664E+03  0.27188810664E+03  0.00000000000E+00 0.  1.
         23    2    1    2    0    0 -0.38805368886E+03  0.48669629936E+03  0.38772857528E+04  0.39279920843E+04  0.91203352588E+02 0.  0.
         11    1    3    3    0    0 -0.33083630674E+03  0.45557599637E+03  0.35364418935E+04  0.35809807898E+04  0.00000000000E+00 0.  1.
        -11    1    3    3    0    0 -0.57217382120E+02  0.31120302989E+02  0.34084385932E+03  0.34701129450E+03  0.00000000000E+00 0. -1.
         22    1    1    2    0    0  0.38805368886E+03 -0.48669629936E+03  0.14636976436E+03  0.63943964623E+03  0.00000000000E+00 0.  1.
<mgrwt>
<rscale>  0 0.21613951E+04</rscale>
<asrwt>0</asrwt>
<pdfrwt beam="1">  1        2 0.41828943E-01 0.21613951E+04</pdfrwt>
<pdfrwt beam="2">  1       -2 0.66085282E+00 0.21613951E+04</pdfrwt>
<totfact> 0.34155521E-02</totfact>
</mgrwt>
</event>
<event>
 6    1  0.5026615E-004  0.1193204E+04  0.7818608E-02  0.9118826E-01
          1   -1    0    0  501    0  0.00000000000E+00  0.00000000000E+00  0.17335401291E+04  0.17335401291E+04  0.00000000000E+00 0. -1.
         -1   -1    0    0    0  501 -0.00000000000E+00 -0.00000000000E+00 -0.20532189087E+03  0.20532189087E+03  0.00000000000E+00 0.  1.
         23    2    1    2    0    0 -0.26572151394E+03  0.53012616319E+03  0.79109622343E+03  0.99282262513E+03  0.90674463818E+02 0.  0.
         11    1    3    3    0    0 -0.59151684428E+02  0.58913482361E+02  0.84794612016E+02  0.11899515285E+03  0.00000000000E+00 0. -1.
        -11    1    3    3    0    0 -0.20656982951E+03  0.47121268083E+03  0.70630161141E+03  0.87382747228E+03  0.00000000000E+00 0.  1.
         22    1    1    2    0    0  0.26572151394E+03 -0.53012616319E+03  0.73712201481E+03  0.94603939484E+03  0.00000000000E+00 0.  1.
<mgrwt>
<rscale>  0 0.11932036E+04</rscale>
<asrwt>0</asrwt>
<pdfrwt beam="1">  1        1 0.26669847E+00 0.11932036E+04</pdfrwt>
<pdfrwt beam="2">  1       -1 0.31587984E-01 0.11932036E+04</pdfrwt>
<totfact> 0.41730866E+01</totfact>
</mgrwt>
</event>
<event>
 6    1  0.5026615E-004  0.2199258E+04  0.7818608E-02  0.8518737E-01
          2   -1    0    0  501    0  0.00000000000E+00  0.00000000000E+00  0.16865908907E+04  0.16865908907E+04  0.00000000000E+00 0.  1.
         -2   -1    0    0    0  501 -0.00000000000E+00 -0.00000000000E+00 -0.71693996086E+03  0.71693996086E+03  0.00000000000E+00 0. -1.
         23    2    1    2    0    0 -0.32867331455E+02 -0.26679212159E+03  0.16488420686E+04  0.16730796893E+04  0.90869038091E+02 0.  0.
         13    1    3    3    0    0 -0.28970648406E+02 -0.11145544868E+03  0.46328205173E+03  0.47738022054E+03  0.00000000000E+00 0.  1.
        -13    1    3    3    0    0 -0.38966830490E+01 -0.15533667292E+03  0.11855600168E+04  0.11956994688E+04  0.00000000000E+00 0. -1.
         22    1    1    2    0    0  0.32867331455E+02  0.26679212159E+03 -0.67919113869E+03  0.73045116229E+03  0.00000000000E+00 0. -1.
<mgrwt>
<rscale>  0 0.21992584E+04</rscale>
<asrwt>0</asrwt>
<pdfrwt beam="1">  1        2 0.25947552E+00 0.21992584E+04</pdfrwt>
<pdfrwt beam="2">  1       -2 0.11029846E+00 0.21992584E+04</pdfrwt>
<totfact> 0.59532400E+00</totfact>
</mgrwt>
</event>
<event>
 6    1  0.5026615E-004  0.1405905E+04  0.7818608E-02  0.8949555E-01
         -2   -1    0    0    0  501 -0.00000000000E+00  0.00000000000E+00  0.35831485365E+03  0.35831485365E+03  0.00000000000E+00 0. -1.
          2   -1    0    0  501    0  0.00000000000E+00 -0.00000000000E+00 -0.13790722863E+04  0.13790722863E+04  0.00000000000E+00 0.  1.
         23    2    1    2    0    0  0.22948000116E+03  0.35574899110E+03  0.17639936989E+03  0.46758289304E+03  0.91096698975E+02 0.  0.
         13    1    3    3    0    0  0.77513824522E+02  0.19001862484E+03  0.56986539898E+02  0.21298576598E+03  0.00000000000E+00 0.  1.
        -13    1    3    3    0    0  0.15196617663E+03  0.16573036626E+03  0.11941283000E+03  0.25459712706E+03  0.00000000000E+00 0. -1.
         22    1    1    2    0    0 -0.22948000116E+03 -0.35574899110E+03 -0.11971568026E+04  0.12698042469E+04  0.00000000000E+00 0.  1.
<mgrwt>
<rscale>  0 0.14059048E+04</rscale>
<asrwt>0</asrwt>
<pdfrwt beam="1">  1        2 0.21216497E+00 0.14059048E+04</pdfrwt>
<pdfrwt beam="2">  1       -2 0.55125361E-01 0.14059048E+04</pdfrwt>
<totfact> 0.44777084E+01</totfact>
</mgrwt>
</event>
<event>
 6    1  0.5026615E-004  0.2817618E+04  0.7818608E-02  0.8297819E-01
         -2   -1    0    0    0  501 -0.00000000000E+00  0.00000000000E+00  0.17373337984E+04  0.17373337984E+04  0.00000000000E+00 0. -1.
          2   -1    0    0  501    0  0.00000000000E+00 -0.00000000000E+00 -0.11424073350E+04  0.11424073350E+04  0.00000000000E+00 0.  1.
         23    2    1    2    0    0 -0.89117074600E+03  0.27403580819E+03 -0.77994072070E+03  0.12185546007E+04  0.85363131940E+02 0.  0.
         13    1    3    3    0    0 -0.76914080976E+03  0.23943110862E+03 -0.70959087747E+03  0.10735101557E+04  0.00000000000E+00 0.  1.
        -13    1    3    3    0    0 -0.12202993624E+03  0.34604699571E+02 -0.70349843239E+02  0.14504444497E+03  0.00000000000E+00 0. -1.
         22    1    1    2    0    0  0.89117074600E+03 -0.27403580819E+03  0.13748671841E+04  0.16611865328E+04  0.00000000000E+00 0. -1.
<mgrwt>
<rscale>  0 0.28176181E+04</rscale>
<asrwt>0</asrwt>
<pdfrwt beam="1">  1        2 0.17575497E+00 0.28176181E+04</pdfrwt>
<pdfrwt beam="2">  1       -2 0.26728212E+00 0.28176181E+04</pdfrwt>
<totfact> 0.89779801E-01</totfact>
</mgrwt>
</event>
<event>
 6    1  0.5026615E-004  0.4681475E+04  0.7818608E-02  0.7879614E-01
          2   -1    0    0  501    0  0.00000000000E+00  0.00000000000E+00  0.30795051403E+04  0.30795051403E+04  0.00000000000E+00 0.  1.
         -2   -1    0    0    0  501 -0.00000000000E+00 -0.00000000000E+00 -0.17791988495E+04  0.17791988495E+04  0.00000000000E+00 0. -1.
         23    2    1    2    0    0 -0.12864972375E+04 -0.11051275391E+04 -0.10226332645E+04  0.19825207208E+04  0.90706091134E+02 0.  0.
         13    1    3    3    0    0 -0.46986233952E+03 -0.39130412964E+03 -0.41871960556E+03  0.74109085007E+03  0.00000000000E+00 0.  1.
        -13    1    3    3    0    0 -0.81663489795E+03 -0.71382340949E+03 -0.60391365891E+03  0.12414298707E+04  0.00000000000E+00 0. -1.
         22    1    1    2    0    0  0.12864972375E+04  0.11051275391E+04  0.23229395552E+04  0.28761832690E+04  0.00000000000E+00 0.  1.
<mgrwt>
<rscale>  0 0.46814750E+04</rscale>
<asrwt>0</asrwt>
<pdfrwt beam="1">  1        2 0.47377002E+00 0.46814750E+04</pdfrwt>
<pdfrwt beam="2">  1       -2 0.27372290E+00 0.46814750E+04</pdfrwt>
<totfact> 0.53227214E-02</totfact>
</mgrwt>
</event>
<event>
 6    1  0.5026615E-004  0.2943461E+04  0.7818608E-02  0.8260063E-01
         -2   -1    0    0    0  501 -0.00000000000E+00  0.00000000000E+00  0.11847994827E+04  0.11847994827E+04  0.00000000000E+00 0. -1.
          2   -1    0    0  501    0  0.00000000000E+00 -0.00000000000E+00 -0.18281501591E+04  0.18281501591E+04  0.00000000000E+00 0.  1.
         23    2    1    2    0    0 -0.10622107905E+04 -0.10121903802E+04 -0.22492700581E+03  0.14872040873E+04  0.91447854406E+02 0.  0.
         13    1    3    3    0    0 -0.21278245525E+03 -0.21540259809E+03 -0.82958855115E+02  0.31393761190E+03  0.00000000000E+00 0.  1.
        -13    1    3    3    0    0 -0.84942833521E+03 -0.79678778214E+03 -0.14196815069E+03  0.11732664754E+04  0.00000000000E+00 0. -1.
         22    1    1    2    0    0  0.10622107905E+04  0.10121903802E+04 -0.41842367058E+03  0.15257455546E+04  0.00000000000E+00 0.  1.
<mgrwt>
<rscale>  0 0.29434615E+04</rscale>
<asrwt>0</asrwt>
<pdfrwt beam="1">  1        2 0.28125387E+00 0.29434615E+04</pdfrwt>
<pdfrwt beam="2">  1       -2 0.18227684E+00 0.29434615E+04</pdfrwt>
<totfact> 0.12521233E+00</totfact>
</mgrwt>
</event>
<event>
 6    1  0.5026615E-004  0.3346594E+04  0.7818608E-02  0.8151140E-01
         -2   -1    0    0    0  501 -0.00000000000E+00  0.00000000000E+00  0.24085137011E+04  0.24085137011E+04  0.00000000000E+00 0. -1.
          2   -1    0    0  501    0  0.00000000000E+00 -0.00000000000E+00 -0.11625108508E+04  0.11625108508E+04  0.00000000000E+00 0.  1.
         23    2    1    2    0    0  0.75595234331E+03  0.77294086659E+03 -0.73781969817E+03  0.13117208025E+04  0.85627262607E+02 0.  0.
         11    1    3    3    0    0  0.24694141903E+01  0.45887122399E+01  0.22294368529E+01  0.56678633668E+01  0.00000000000E+00 0. -1.
        -11    1    3    3    0    0  0.75348292912E+03  0.76835215435E+03 -0.74004913502E+03  0.13060529391E+04  0.00000000000E+00 0.  1.
         22    1    1    2    0    0 -0.75595234331E+03 -0.77294086659E+03  0.19838225484E+04  0.22593037494E+04  0.00000000000E+00 0. -1.
<mgrwt>
<rscale>  0 0.33465943E+04</rscale>
<asrwt>0</asrwt>
<pdfrwt beam="1">  1        2 0.17884782E+00 0.33465943E+04</pdfrwt>
<pdfrwt beam="2">  1       -2 0.37054057E+00 0.33465943E+04</pdfrwt>
<totfact> 0.19107689E-01</totfact>
</mgrwt>
</event>
<event>
 6    1  0.5026615E-004  0.1494967E+04  0.7818608E-02  0.8887807E-01
         -2   -1    0    0    0  501 -0.00000000000E+00  0.00000000000E+00  0.39856510664E+03  0.39856510664E+03  0.00000000000E+00 0. -1.
          2   -1    0    0  501    0  0.00000000000E+00 -0.00000000000E+00 -0.14018571689E+04  0.14018571689E+04  0.00000000000E+00 0.  1.
         23    2    1    2    0    0  0.50966411043E+02  0.74257208724E+03 -0.47543113374E+03  0.88792677437E+03  0.91478488726E+02 0.  0.
         11    1    3    3    0    0  0.45662602558E+02  0.52592608221E+03 -0.38361891557E+03  0.65256937531E+03  0.00000000000E+00 0. -1.
        -11    1    3    3    0    0  0.53038084850E+01  0.21664600504E+03 -0.91812218176E+02  0.23535739905E+03  0.00000000000E+00 0.  1.
         22    1    1    2    0    0 -0.50966411043E+02 -0.74257208724E+03 -0.52786092853E+03  0.91249550118E+03  0.00000000000E+00 0. -1.
<mgrwt>
<rscale>  0 0.14949667E+04</rscale>
<asrwt>0</asrwt>
<pdfrwt beam="1">  1        2 0.21567033E+00 0.14949667E+04</pdfrwt>
<pdfrwt beam="2">  1       -2 0.61317709E-01 0.14949667E+04</pdfrwt>
<totfact> 0.34504859E+01</totfact>
</mgrwt>
</event>
<event>
 6    1  0.5026615E-004  0.3895758E+04  0.7818608E-02  0.8025912E-01
          1   -1    0    0  501    0  0.00000000000E+00  0.00000000000E+00  0.10803881498E+04  0.10803881498E+04  0.00000000000E+00 0.  1.
         -1   -1    0    0    0  501 -0.00000000000E+00 -0.00000000000E+00 -0.35119166430E+04  0.35119166430E+04  0.00000000000E+00 0. -1.
         23    2    1    2    0    0 -0.45050593580E+03 -0.41872291553E+03  0.96102903222E+03  0.11444458860E+04  0.88854414996E+02 0.  0.
         11    1    3    3    0    0 -0.26556011644E+03 -0.19974602506E+03  0.56691385449E+03  0.65712401294E+03  0.00000000000E+00 0.  1.
        -11    1    3    3    0    0 -0.18494581936E+03 -0.21897689047E+03  0.39411517773E+03  0.48732187307E+03  0.00000000000E+00 0. -1.
         22    1    1    2    0    0  0.45050593580E+03  0.41872291553E+03 -0.33925575254E+04  0.34478589068E+04  0.00000000000E+00 0. -1.
<mgrwt>
<rscale>  0 0.38957583E+04</rscale>
<asrwt>0</asrwt>
<pdfrwt beam="1">  1        1 0.16621356E+00 0.38957583E+04</pdfrwt>
<pdfrwt beam="2">  1       -1 0.54029486E+00 0.38957583E+04</pdfrwt>
<totfact> 0.87936317E-03</totfact>
</mgrwt>
</event>
<event>
 6    1  0.5026615E-004  0.3144876E+04  0.7818608E-02  0.8203529E-01
         -2   -1    0    0    0  501 -0.00000000000E+00  0.00000000000E+00  0.16567257541E+04  0.16567257541E+04  0.00000000000E+00 0. -1.
          2   -1    0    0  501    0  0.00000000000E+00 -0.00000000000E+00 -0.14924384504E+04  0.14924384504E+04  0.00000000000E+00 0.  1.
         23    2    1    2    0    0  0.31667161867E+03  0.13873601266E+04  0.74901577706E+03  0.16106725982E+04  0.90512702891E+02 0.  0.
         13    1    3    3    0    0  0.62970041070E+02  0.15383888330E+03  0.98926527530E+02  0.19343755048E+03  0.00000000000E+00 0.  1.
        -13    1    3    3    0    0  0.25370157760E+03  0.12335212433E+04  0.65008924953E+03  0.14172350478E+04  0.00000000000E+00 0. -1.
         22    1    1    2    0    0 -0.31667161867E+03 -0.13873601266E+04 -0.58472847327E+03  0.15384916063E+04  0.00000000000E+00 0.  1.
<mgrwt>
<rscale>  0 0.31448760E+04</rscale>
<asrwt>0</asrwt>
<pdfrwt beam="1">  1        2 0.22960592E+00 0.31448760E+04</pdfrwt>
<pdfrwt beam="2">  1       -2 0.25488088E+00 0.31448760E+04</pdfrwt>
<totfact> 0.65034241E-01</totfact>
</mgrwt>
</event>
<event>
 6    1  0.5026615E-004  0.2205346E+04  0.7818608E-02  0.8516206E-01
          1   -1    0    0  501    0  0.00000000000E+00  0.00000000000E+00  0.18675847573E+04  0.18675847573E+04  0.00000000000E+00 0.  1.
         -1   -1    0    0    0  501 -0.00000000000E+00 -0.00000000000E+00 -0.65104818523E+03  0.65104818523E+03  0.00000000000E+00 0. -1.
         23    2    1    2    0    0  0.80908504887E+03 -0.36870577252E+03 -0.13184526873E+03  0.90348708176E+03  0.91340949288E+02 0.  0.
         11    1    3    3    0    0  0.38137903654E+03 -0.20767627104E+03 -0.98288374464E+02  0.44524151605E+03  0.00000000000E+00 0. -1.
        -11    1    3    3    0    0  0.42770601233E+03 -0.16102950149E+03 -0.33556894263E+02  0.45824556570E+03  0.00000000000E+00 0.  1.
         22    1    1    2    0    0 -0.80908504887E+03  0.36870577252E+03  0.13483818408E+04  0.16151458608E+04  0.00000000000E+00 0.  1.
<mgrwt>
<rscale>  0 0.22053459E+04</rscale>
<asrwt>0</asrwt>
<pdfrwt beam="1">  1        1 0.28732073E+00 0.22053459E+04</pdfrwt>
<pdfrwt beam="2">  1       -1 0.10016126E+00 0.22053459E+04</pdfrwt>
<totfact> 0.31713111E+00</totfact>
</mgrwt>
</event>
<event>
 6    1  0.5026615E-004  0.1854494E+04  0.7818608E-02  0.8677845E-01
          2   -1    0    0  501    0  0.00000000000E+00  0.00000000000E+00  0.26453622273E+04  0.26453622273E+04  0.00000000000E+00 0.  1.
         -2   -1    0    0    0  501 -0.00000000000E+00 -0.00000000000E+00 -0.32501678229E+03  0.32501678229E+03  0.00000000000E+00 0. -1.
         23    2    1    2    0    0 -0.14979666686E+03  0.64767770697E+03  0.21931956067E+04  0.22935536740E+04  0.91411338259E+02 0.  0.
         13    1    3    3    0    0 -0.10155101316E+03  0.39817955832E+03  0.12019740878E+04  0.12702760632E+04  0.00000000000E+00 0. -1.
        -13    1    3    3    0    0 -0.48245653700E+02  0.24949814865E+03  0.99122151893E+03  0.10232776109E+04  0.00000000000E+00 0.  1.
         22    1    1    2    0    0  0.14979666686E+03 -0.64767770697E+03  0.12714983829E+03  0.67682533558E+03  0.00000000000E+00 0. -1.
<mgrwt>
<rscale>  0 0.18544941E+04</rscale>
<asrwt>0</asrwt>
<pdfrwt beam="1">  1        2 0.40697879E+00 0.18544941E+04</pdfrwt>
<pdfrwt beam="2">  1       -2 0.50002584E-01 0.18544941E+04</pdfrwt>
<totfact> 0.10192970E+01</totfact>
</mgrwt>
</event>
<event>
 6    1  0.5026615E-004  0.2069521E+04  0.7818608E-02  0.8574790E-01
          2   -1    0    0  501    0  0.00000000000E+00  0.00000000000E+00  0.23932716483E+04  0.23932716483E+04  0.00000000000E+00 0.  1.
         -2   -1    0    0    0  501 -0.00000000000E+00 -0.00000000000E+00 -0.44739144245E+03  0.44739144245E+03  0.00000000000E+00 0. -1.
         23    2    1    2    0    0  0.19266342129E+03 -0.76703513511E+01  0.23674487280E+04  0.23770921177E+04  0.92603608110E+02 0.  0.
         13    1    3    3    0    0  0.10255360129E+03 -0.92216331128E+01  0.17583333437E+04  0.17613456297E+04  0.00000000000E+00 0. -1.
        -13    1    3    3    0    0  0.90109819995E+02  0.15512817617E+01  0.60911538430E+03  0.61574648803E+03  0.00000000000E+00 0.  1.
         22    1    1    2    0    0 -0.19266342129E+03  0.76703513511E+01 -0.42156852213E+03  0.46357097304E+03  0.00000000000E+00 0. -1.
<mgrwt>
<rscale>  0 0.20695210E+04</rscale>
<asrwt>0</asrwt>
<pdfrwt beam="1">  1        2 0.36819563E+00 0.20695210E+04</pdfrwt>
<pdfrwt beam="2">  1       -2 0.68829454E-01 0.20695210E+04</pdfrwt>
<totfact> 0.71477695E+00</totfact>
</mgrwt>
</event>
<event>
 6    1  0.5026615E-004  0.1517964E+04  0.7818608E-02  0.8872594E-01
         -2   -1    0    0    0  501 -0.00000000000E+00  0.00000000000E+00  0.63480054789E+03  0.63480054789E+03  0.00000000000E+00 0. -1.
          2   -1    0    0  501    0  0.00000000000E+00 -0.00000000000E+00 -0.90745669024E+03  0.90745669024E+03  0.00000000000E+00 0.  1.
         23    2    1    2    0    0 -0.35112665549E+03 -0.11083526459E+03  0.53433535845E+03  0.65523431485E+03  0.90792885105E+02 0.  0.
         11    1    3    3    0    0 -0.23819728251E+03 -0.11814182450E+03  0.36543153516E+03  0.45192437750E+03  0.00000000000E+00 0.  1.
        -11    1    3    3    0    0 -0.11292937298E+03  0.73065599115E+01  0.16890382329E+03  0.20330993734E+03  0.00000000000E+00 0. -1.
         22    1    1    2    0    0  0.35112665549E+03  0.11083526459E+03 -0.80699150080E+03  0.88702292329E+03  0.00000000000E+00 0.  1.
<mgrwt>
<rscale>  0 0.15179644E+04</rscale>
<asrwt>0</asrwt>
<pdfrwt beam="1">  1        2 0.13960872E+00 0.15179644E+04</pdfrwt>
<pdfrwt beam="2">  1       -2 0.97661622E-01 0.15179644E+04</pdfrwt>
<totfact> 0.24433036E+01</totfact>
</mgrwt>
</event>
<event>
 6    1  0.5026615E-004  0.3738704E+04  0.7818608E-02  0.8059438E-01
          2   -1    0    0  501    0  0.00000000000E+00  0.00000000000E+00  0.21356803980E+04  0.21356803980E+04  0.00000000000E+00 0.  1.
         -2   -1    0    0    0  501 -0.00000000000E+00 -0.00000000000E+00 -0.16362358253E+04  0.16362358253E+04  0.00000000000E+00 0. -1.
         23    2    1    2    0    0 -0.11207856547E+04 -0.92599824104E+03 -0.93389971846E+03  0.17303214831E+04  0.90611945280E+02 0.  0.
         13    1    3    3    0    0 -0.10419978313E+03 -0.11539026855E+03 -0.80663169349E+02  0.17515437696E+03  0.00000000000E+00 0.  1.
        -13    1    3    3    0    0 -0.10165858716E+04 -0.81060797249E+03 -0.85323654911E+03  0.15551671062E+04  0.00000000000E+00 0. -1.
         22    1    1    2    0    0  0.11207856547E+04  0.92599824104E+03  0.14333442912E+04  0.20415947402E+04  0.00000000000E+00 0.  1.
<mgrwt>
<rscale>  0 0.37387039E+04</rscale>
<asrwt>0</asrwt>
<pdfrwt beam="1">  1        2 0.32856622E+00 0.37387039E+04</pdfrwt>
<pdfrwt beam="2">  1       -2 0.25172859E+00 0.37387039E+04</pdfrwt>
<totfact> 0.28359361E-01</totfact>
</mgrwt>
</event>
<event>
 6    1  0.5026615E-004  0.3132941E+04  0.7818608E-02  0.8206755E-01
          2   -1    0    0  501    0  0.00000000000E+00  0.00000000000E+00  0.29487137811E+04  0.29487137811E+04  0.00000000000E+00 0.  1.
         -2   -1    0    0    0  501 -0.00000000000E+00 -0.00000000000E+00 -0.83216971752E+03  0.83216971752E+03  0.00000000000E+00 0. -1.
         23    2    1    2    0    0  0.83993346649E+03  0.10075926939E+04  0.20896524614E+04  0.24688414173E+04  0.88313473708E+02 0.  0.
         13    1    3    3    0    0  0.33540548366E+03  0.35592088657E+03  0.72129743730E+03  0.87146228204E+03  0.00000000000E+00 0.  1.
        -13    1    3    3    0    0  0.50452798283E+03  0.65167180735E+03  0.13683550241E+04  0.15973791353E+04  0.00000000000E+00 0. -1.
         22    1    1    2    0    0 -0.83993346649E+03 -0.10075926939E+04  0.26891602253E+02  0.13120420813E+04  0.00000000000E+00 0. -1.
<mgrwt>
<rscale>  0 0.31329413E+04</rscale>
<asrwt>0</asrwt>
<pdfrwt beam="1">  1        2 0.45364827E+00 0.31329413E+04</pdfrwt>
<pdfrwt beam="2">  1       -2 0.12802611E+00 0.31329413E+04</pdfrwt>
<totfact> 0.71602173E-01</totfact>
</mgrwt>
</event>
<event>
 6    1  0.5026615E-004  0.3835429E+04  0.7818608E-02  0.8038594E-01
          2   -1    0    0  501    0  0.00000000000E+00  0.00000000000E+00  0.16628271766E+04  0.16628271766E+04  0.00000000000E+00 0.  1.
         -2   -1    0    0    0  501 -0.00000000000E+00 -0.00000000000E+00 -0.22116725801E+04  0.22116725801E+04  0.00000000000E+00 0. -1.
         23    2    1    2    0    0  0.67601494060E+03 -0.55937556463E+03  0.14467588152E+04  0.16945150275E+04  0.91503479780E+02 0.  0.
         11    1    3    3    0    0  0.21011802643E+03 -0.15180113420E+03  0.50296120940E+03  0.56582960998E+03  0.00000000000E+00 0.  1.
        -11    1    3    3    0    0  0.46589691417E+03 -0.40757443043E+03  0.94379760579E+03  0.11286854175E+04  0.00000000000E+00 0. -1.
         22    1    1    2    0    0 -0.67601494060E+03  0.55937556463E+03 -0.19956042187E+04  0.21799847292E+04  0.00000000000E+00 0. -1.
<mgrwt>
<rscale>  0 0.38354292E+04</rscale>
<asrwt>0</asrwt>
<pdfrwt beam="1">  1        2 0.25581956E+00 0.38354292E+04</pdfrwt>
<pdfrwt beam="2">  1       -2 0.34025732E+00 0.38354292E+04</pdfrwt>
<totfact> 0.14728036E-01</totfact>
</mgrwt>
</event>
<event>
 6    1  0.5026615E-004  0.2039287E+04  0.7818608E-02  0.8588470E-01
          2   -1    0    0  501    0  0.00000000000E+00  0.00000000000E+00  0.22872258793E+04  0.22872258793E+04  0.00000000000E+00 0.  1.
         -2   -1    0    0    0  501 -0.00000000000E+00 -0.00000000000E+00 -0.45455620526E+03  0.45455620526E+03  0.00000000000E+00 0. -1.
         23    2    1    2    0    0  0.44471192220E+03 -0.20939176057E+03 -0.27982709870E+03  0.57285234435E+03  0.90790969354E+02 0.  0.
         11    1    3    3    0    0  0.91722831673E+02 -0.10222531346E+02 -0.73926039601E+02  0.11824820222E+03  0.00000000000E+00 0.  1.
        -11    1    3    3    0    0  0.35298909053E+03 -0.19916922923E+03 -0.20590105909E+03  0.45460414213E+03  0.00000000000E+00 0. -1.
         22    1    1    2    0    0 -0.44471192220E+03  0.20939176057E+03  0.21124967728E+04  0.21689297402E+04  0.00000000000E+00 0.  1.
<mgrwt>
<rscale>  0 0.20392869E+04</rscale>
<asrwt>0</asrwt>
<pdfrwt beam="1">  1        2 0.35188090E+00 0.20392869E+04</pdfrwt>
<pdfrwt beam="2">  1       -2 0.69931725E-01 0.20392869E+04</pdfrwt>
<totfact> 0.79538452E+00</totfact>
</mgrwt>
</event>
<event>
 6    1  0.5026615E-004  0.7232218E+03  0.7818608E-02  0.9678324E-01
          2   -1    0    0  501    0  0.00000000000E+00  0.00000000000E+00  0.34275868452E+03  0.34275868452E+03  0.00000000000E+00 0.  1.
         -2   -1    0    0    0  501 -0.00000000000E+00 -0.00000000000E+00 -0.38150001122E+03  0.38150001122E+03  0.00000000000E+00 0. -1.
         23    2    1    2    0    0  0.23204896120E+03 -0.42788240463E+01  0.25054094838E+03  0.35338235058E+03  0.90792566630E+02 0.  0.
         11    1    3    3    0    0  0.81466640041E+02 -0.40715134282E+02  0.12092549537E+03  0.15138530652E+03  0.00000000000E+00 0. -1.
        -11    1    3    3    0    0  0.15058232116E+03  0.36436310236E+02  0.12961545300E+03  0.20199704405E+03  0.00000000000E+00 0.  1.
         22    1    1    2    0    0 -0.23204896120E+03  0.42788240463E+01 -0.28928227507E+03  0.37087634516E+03  0.00000000000E+00 0. -1.
<mgrwt>
<rscale>  0 0.72322180E+03</rscale>
<asrwt>0</asrwt>
<pdfrwt beam="1">  1        2 0.52732105E-01 0.72322180E+03</pdfrwt>
<pdfrwt beam="2">  1       -2 0.58692310E-01 0.72322180E+03</pdfrwt>
<totfact> 0.25909371E+02</totfact>
</mgrwt>
</event>
<event>
 6    1  0.5026615E-004  0.1117476E+04  0.7818608E-02  0.9188324E-01
          2   -1    0    0  501    0  0.00000000000E+00  0.00000000000E+00  0.24982707879E+03  0.24982707879E+03  0.00000000000E+00 0.  1.
         -2   -1    0    0    0  501 -0.00000000000E+00 -0.00000000000E+00 -0.12496162588E+04  0.12496162588E+04  0.00000000000E+00 0. -1.
         23    2    1    2    0    0  0.52773359616E+03  0.17101291717E+03 -0.53118145416E+03  0.77326060088E+03  0.89610564509E+02 0.  0.
         11    1    3    3    0    0  0.22129444725E+03  0.25684577182E+02 -0.21257006574E+03  0.30792363134E+03  0.00000000000E+00 0. -1.
        -11    1    3    3    0    0  0.30643914891E+03  0.14532833999E+03 -0.31861138842E+03  0.46533696954E+03  0.00000000000E+00 0.  1.
         22    1    1    2    0    0 -0.52773359616E+03 -0.17101291717E+03 -0.46860772582E+03  0.72618273668E+03  0.00000000000E+00 0.  1.
<mgrwt>
<rscale>  0 0.11174757E+04</rscale>
<asrwt>0</asrwt>
<pdfrwt beam="1">  1        2 0.38434935E-01 0.11174757E+04</pdfrwt>
<pdfrwt beam="2">  1       -2 0.19224865E+00 0.11174757E+04</pdfrwt>
<totfact> 0.19991314E+01</totfact>
</mgrwt>
</event>
<event>
 6    1  0.5026615E-004  0.1148089E+04  0.7818608E-02  0.9159548E-01
          2   -1    0    0  501    0  0.00000000000E+00  0.00000000000E+00  0.25597196503E+04  0.25597196503E+04  0.00000000000E+00 0.  1.
         -2   -1    0    0    0  501 -0.00000000000E+00 -0.00000000000E+00 -0.12873566877E+03  0.12873566877E+03  0.00000000000E+00 0. -1.
         23    2    1    2    0    0 -0.41068782015E+03 -0.36110617988E+03  0.84391740595E+03  0.10098122736E+04  0.91989570528E+02 0.  0.
         11    1    3    3    0    0 -0.21425053064E+03 -0.23237885131E+03  0.42641033762E+03  0.53078149595E+03  0.00000000000E+00 0.  1.
        -11    1    3    3    0    0 -0.19643728951E+03 -0.12872732857E+03  0.41750706834E+03  0.47903077766E+03  0.00000000000E+00 0. -1.
         22    1    1    2    0    0  0.41068782015E+03  0.36110617988E+03  0.15870665755E+04  0.16786430454E+04  0.00000000000E+00 0.  1.
<mgrwt>
<rscale>  0 0.11480892E+04</rscale>
<asrwt>0</asrwt>
<pdfrwt beam="1">  1        2 0.39380299E+00 0.11480892E+04</pdfrwt>
<pdfrwt beam="2">  1       -2 0.19805489E-01 0.11480892E+04</pdfrwt>
<totfact> 0.69761008E+01</totfact>
</mgrwt>
</event>
<event>
 6    1  0.5026615E-004  0.1136595E+04  0.7818608E-02  0.9170240E-01
         -2   -1    0    0    0  501 -0.00000000000E+00  0.00000000000E+00  0.14964860983E+03  0.14964860983E+03  0.00000000000E+00 0. -1.
          2   -1    0    0  501    0  0.00000000000E+00 -0.00000000000E+00 -0.21581350645E+04  0.21581350645E+04  0.00000000000E+00 0.  1.
         23    2    1    2    0    0  0.27890936281E+03  0.20059937808E+03 -0.19205476258E+04  0.19531517796E+04  0.90929358169E+02 0.  0.
         13    1    3    3    0    0  0.14899796357E+03  0.67838689573E+02 -0.10789327813E+04  0.10912829273E+04  0.00000000000E+00 0. -1.
        -13    1    3    3    0    0  0.12991139924E+03  0.13276068851E+03 -0.84161484449E+03  0.86186885228E+03  0.00000000000E+00 0.  1.
         22    1    1    2    0    0 -0.27890936281E+03 -0.20059937808E+03 -0.87938828942E+02  0.35463189476E+03  0.00000000000E+00 0. -1.
<mgrwt>
<rscale>  0 0.11365948E+04</rscale>
<asrwt>0</asrwt>
<pdfrwt beam="1">  1        2 0.33202076E+00 0.11365948E+04</pdfrwt>
<pdfrwt beam="2">  1       -2 0.23022864E-01 0.11365948E+04</pdfrwt>
<totfact> 0.90200081E+01</totfact>
</mgrwt>
</event>
<event>
 6    1  0.8228969E-004  0.3843774E+04  0.7818608E-02  0.8036826E-01
          2   -1    0    0  501    0  0.00000000000E+00  0.00000000000E+00  0.19624777680E+04  0.19624777680E+04  0.00000000000E+00 0.  1.
         -2   -1    0    0    0  501 -0.00000000000E+00 -0.00000000000E+00 -0.18821361739E+04  0.18821361739E+04  0.00000000000E+00 0. -1.
         23    2    1    2    0    0 -0.68643132281E+03  0.14055962735E+03 -0.17486506528E+04  0.18860027991E+04  0.91008147822E+02 0.  0.
         11    1    3    3    0    0 -0.29200639132E+03  0.10387650961E+03 -0.80297507689E+03  0.86071309734E+03  0.00000000000E+00 0. -1.
        -11    1    3    3    0    0 -0.39442493149E+03  0.36683117746E+02 -0.94567557588E+03  0.10252897018E+04  0.00000000000E+00 0.  1.
         22    1    1    2    0    0  0.68643132281E+03 -0.14055962735E+03  0.18289922468E+04  0.19586111428E+04  0.00000000000E+00 0.  1.
<mgrwt>
<rscale>  0 0.38437744E+04</rscale>
<asrwt>0</asrwt>
<pdfrwt beam="1">  1        2 0.30191966E+00 0.38437744E+04</pdfrwt>
<pdfrwt beam="2">  1       -2 0.28955941E+00 0.38437744E+04</pdfrwt>
<totfact> 0.20621061E-01</totfact>
</mgrwt>
</event>
<event>
 6    1  0.5026615E-004  0.2003004E+04  0.7818608E-02  0.8605217E-01
          2   -1    0    0  501    0  0.00000000000E+00  0.00000000000E+00  0.18923133018E+04  0.18923133018E+04  0.00000000000E+00 0.  1.
         -2   -1    0    0    0  501 -0.00000000000E+00 -0.00000000000E+00 -0.53004239085E+03  0.53004239085E+03  0.00000000000E+00 0. -1.
         23    2    1    2    0    0  0.67629334730E+03  0.69538545667E+03  0.97356251643E+03  0.13773543334E+04  0.91363894901E+02 0.  0.
         11    1    3    3    0    0  0.13301020827E+03  0.16989351375E+03  0.17505249672E+03  0.27784689692E+03  0.00000000000E+00 0.  1.
        -11    1    3    3    0    0  0.54328313903E+03  0.52549194292E+03  0.79851001970E+03  0.10995074364E+04  0.00000000000E+00 0. -1.
         22    1    1    2    0    0 -0.67629334730E+03 -0.69538545667E+03  0.38870839455E+03  0.10450013593E+04  0.00000000000E+00 0.  1.
<mgrwt>
<rscale>  0 0.20030040E+04</rscale>
<asrwt>0</asrwt>
<pdfrwt beam="1">  1        2 0.29112512E+00 0.20030040E+04</pdfrwt>
<pdfrwt beam="2">  1       -2 0.81544984E-01 0.20030040E+04</pdfrwt>
<totfact> 0.94291305E+00</totfact>
</mgrwt>
</event>
<event>
 6    1  0.5026615E-004  0.2698055E+04  0.7818608E-02  0.8335636E-01
         -2   -1    0    0    0  501 -0.00000000000E+00  0.00000000000E+00  0.13602112125E+04  0.13602112125E+04  0.00000000000E+00 0. -1.
          2   -1    0    0  501    0  0.00000000000E+00 -0.00000000000E+00 -0.13379353996E+04  0.13379353996E+04  0.00000000000E+00 0.  1.
         23    2    1    2    0    0  0.50864210287E+03 -0.12401409178E+04 -0.13011477060E+03  0.13491139309E+04  0.80698577741E+02 0.  0.
         11    1    3    3    0    0  0.27641705186E+03 -0.56884910953E+03 -0.66979687688E+02  0.63598897359E+03  0.00000000000E+00 0. -1.
        -11    1    3    3    0    0  0.23222505102E+03 -0.67129180823E+03 -0.63135082913E+02  0.71312495736E+03  0.00000000000E+00 0.  1.
         22    1    1    2    0    0 -0.50864210287E+03  0.12401409178E+04  0.15239058349E+03  0.13490326811E+04  0.00000000000E+00 0. -1.
<mgrwt>
<rscale>  0 0.26980547E+04</rscale>
<asrwt>0</asrwt>
<pdfrwt beam="1">  1        2 0.20583622E+00 0.26980547E+04</pdfrwt>
<pdfrwt beam="2">  1       -2 0.20926326E+00 0.26980547E+04</pdfrwt>
<totfact> 0.15961312E+00</totfact>
</mgrwt>
</event>
<event>
 6    1  0.5026615E-004  0.3655232E+04  0.7818608E-02  0.8077956E-01
          2   -1    0    0  501    0  0.00000000000E+00  0.00000000000E+00  0.28161842799E+04  0.28161842799E+04  0.00000000000E+00 0.  1.
         -2   -1    0    0    0  501 -0.00000000000E+00 -0.00000000000E+00 -0.11860656270E+04  0.11860656270E+04  0.00000000000E+00 0. -1.
         23    2    1    2    0    0  0.81216607957E+03 -0.12614017919E+04  0.19562556361E+04  0.24669605031E+04  0.90607884197E+02 0.  0.
         11    1    3    3    0    0  0.52802200129E+03 -0.86256406688E+03  0.12585363150E+04  0.16145394574E+04  0.00000000000E+00 0. -1.
        -11    1    3    3    0    0  0.28414407828E+03 -0.39883772504E+03  0.69771932119E+03  0.85242104578E+03  0.00000000000E+00 0.  1.
         22    1    1    2    0    0 -0.81216607957E+03  0.12614017919E+04 -0.32613698322E+03  0.15352894038E+04  0.00000000000E+00 0. -1.
<mgrwt>
<rscale>  0 0.36552315E+04</rscale>
<asrwt>0</asrwt>
<pdfrwt beam="1">  1        2 0.43325912E+00 0.36552315E+04</pdfrwt>
<pdfrwt beam="2">  1       -2 0.18247163E+00 0.36552315E+04</pdfrwt>
<totfact> 0.31968978E-01</totfact>
</mgrwt>
</event>
<event>
 6    1  0.5026615E-004  0.1534846E+04  0.7818608E-02  0.8861606E-01
         -1   -1    0    0    0  501 -0.00000000000E+00  0.00000000000E+00  0.44663750243E+03  0.44663750243E+03  0.00000000000E+00 0. -1.
          1   -1    0    0  501    0  0.00000000000E+00 -0.00000000000E+00 -0.13186047123E+04  0.13186047123E+04  0.00000000000E+00 0.  1.
         23    2    1    2    0    0  0.48407057058E+02 -0.71556310125E+03 -0.13229743026E+03  0.73495818694E+03  0.91033683130E+02 0.  0.
         13    1    3    3    0    0 -0.17165987287E+02 -0.29301316902E+03 -0.28235600060E+02  0.29487054355E+03  0.00000000000E+00 0. -1.
        -13    1    3    3    0    0  0.65573044345E+02 -0.42254993222E+03 -0.10406183020E+03  0.44008764340E+03  0.00000000000E+00 0.  1.
         22    1    1    2    0    0 -0.48407057058E+02  0.71556310125E+03 -0.73966977961E+03  0.10302840278E+04  0.00000000000E+00 0.  1.
<mgrwt>
<rscale>  0 0.15348463E+04</rscale>
<asrwt>0</asrwt>
<pdfrwt beam="1">  1        1 0.20286226E+00 0.15348463E+04</pdfrwt>
<pdfrwt beam="2">  1       -1 0.68713462E-01 0.15348463E+04</pdfrwt>
<totfact> 0.18137903E+01</totfact>
</mgrwt>
</event>
<event>
 6    1  0.5026615E-004  0.1784971E+04  0.7818608E-02  0.8714333E-01
         -2   -1    0    0    0  501 -0.00000000000E+00  0.00000000000E+00  0.99564113678E+03  0.99564113678E+03  0.00000000000E+00 0. -1.
          2   -1    0    0  501    0  0.00000000000E+00 -0.00000000000E+00 -0.80001727443E+03  0.80001727443E+03  0.00000000000E+00 0.  1.
         23    2    1    2    0    0 -0.78519205738E+03  0.17643901370E+03  0.48063899734E+03  0.94190732355E+03  0.92294462776E+02 0.  0.
         13    1    3    3    0    0 -0.30645854834E+03  0.11443785160E+03  0.18424389269E+03  0.37544463737E+03  0.00000000000E+00 0. -1.
        -13    1    3    3    0    0 -0.47873350903E+03  0.62001162092E+02  0.29639510465E+03  0.56646268618E+03  0.00000000000E+00 0.  1.
         22    1    1    2    0    0  0.78519205738E+03 -0.17643901370E+03 -0.28501513499E+03  0.85375108767E+03  0.00000000000E+00 0.  1.
<mgrwt>
<rscale>  0 0.17849707E+04</rscale>
<asrwt>0</asrwt>
<pdfrwt beam="1">  1        2 0.12307958E+00 0.17849707E+04</pdfrwt>
<pdfrwt beam="2">  1       -2 0.15317556E+00 0.17849707E+04</pdfrwt>
<totfact> 0.92217965E+00</totfact>
</mgrwt>
</event>
<event>
 6    1  0.5026615E-004  0.1824105E+04  0.7818608E-02  0.8693585E-01
          1   -1    0    0  501    0  0.00000000000E+00  0.00000000000E+00  0.74621487319E+03  0.74621487319E+03  0.00000000000E+00 0.  1.
         -1   -1    0    0    0  501 -0.00000000000E+00 -0.00000000000E+00 -0.11147452715E+04  0.11147452715E+04  0.00000000000E+00 0. -1.
         23    2    1    2    0    0 -0.71227969737E+03  0.32685326987E+03 -0.65616363589E+03  0.10261498030E+04  0.90869542662E+02 0.  0.
         11    1    3    3    0    0 -0.41705006013E+03  0.15882513090E+03 -0.41636137049E+03  0.61033840261E+03  0.00000000000E+00 0. -1.
        -11    1    3    3    0    0 -0.29522963723E+03  0.16802813897E+03 -0.23980226540E+03  0.41581140037E+03  0.00000000000E+00 0.  1.
         22    1    1    2    0    0  0.71227969737E+03 -0.32685326987E+03  0.28763323756E+03  0.83481034173E+03  0.00000000000E+00 0.  1.
<mgrwt>
<rscale>  0 0.18241047E+04</rscale>
<asrwt>0</asrwt>
<pdfrwt beam="1">  1        1 0.11480229E+00 0.18241047E+04</pdfrwt>
<pdfrwt beam="2">  1       -1 0.17149927E+00 0.18241047E+04</pdfrwt>
<totfact> 0.55767748E+00</totfact>
</mgrwt>
</event>
<event>
 6    1  0.5026615E-004  0.1847113E+04  0.7818608E-02  0.8681639E-01
         -2   -1    0    0    0  501 -0.00000000000E+00  0.00000000000E+00  0.19019494643E+04  0.19019494643E+04  0.00000000000E+00 0. -1.
          2   -1    0    0  501    0  0.00000000000E+00 -0.00000000000E+00 -0.44846443729E+03  0.44846443729E+03  0.00000000000E+00 0.  1.
         23    2    1    2    0    0  0.38655070073E+03 -0.83474850193E+03  0.66365389747E+03  0.11379537089E+04  0.90970556731E+02 0.  0.
         13    1    3    3    0    0  0.13987888711E+03 -0.40906358702E+03  0.31806579590E+03  0.53671684509E+03  0.00000000000E+00 0. -1.
        -13    1    3    3    0    0  0.24667181362E+03 -0.42568491491E+03  0.34558810157E+03  0.60123686377E+03  0.00000000000E+00 0.  1.
         22    1    1    2    0    0 -0.38655070073E+03  0.83474850193E+03  0.78983112951E+03  0.12124601927E+04  0.00000000000E+00 0. -1.
<mgrwt>
<rscale>  0 0.18471131E+04</rscale>
<asrwt>0</asrwt>
<pdfrwt beam="1">  1        2 0.68994530E-01 0.18471131E+04</pdfrwt>
<pdfrwt beam="2">  1       -2 0.29260761E+00 0.18471131E+04</pdfrwt>
<totfact> 0.23190797E+00</totfact>
</mgrwt>
</event>
<event>
 6    1  0.5026615E-004  0.3641449E+04  0.7818608E-02  0.8081063E-01
          2   -1    0    0  501    0  0.00000000000E+00  0.00000000000E+00  0.38155440030E+04  0.38155440030E+04  0.00000000000E+00 0.  1.
         -2   -1    0    0    0  501 -0.00000000000E+00 -0.00000000000E+00 -0.86882453426E+03  0.86882453426E+03  0.00000000000E+00 0. -1.
         23    2    1    2    0    0  0.10655000457E+04  0.36841796742E+03  0.33115863269E+04  0.34994001958E+04  0.90418937402E+02 0.  0.
         13    1    3    3    0    0  0.99026440608E+03  0.31690110695E+03  0.30568523800E+04  0.32288382397E+04  0.00000000000E+00 0. -1.
        -13    1    3    3    0    0  0.75235639587E+02  0.51516860460E+02  0.25473394691E+03  0.27056195609E+03  0.00000000000E+00 0.  1.
         22    1    1    2    0    0 -0.10655000457E+04 -0.36841796742E+03 -0.36486685814E+03  0.11849683414E+04  0.00000000000E+00 0. -1.
<mgrwt>
<rscale>  0 0.36414493E+04</rscale>
<asrwt>0</asrwt>
<pdfrwt beam="1">  1        2 0.58700676E+00 0.36414493E+04</pdfrwt>
<pdfrwt beam="2">  1       -2 0.13366532E+00 0.36414493E+04</pdfrwt>
<totfact> 0.15668968E-01</totfact>
</mgrwt>
</event>
<event>
 6    1  0.5026615E-004  0.1739514E+04  0.7818608E-02  0.8739143E-01
          2   -1    0    0  501    0  0.00000000000E+00  0.00000000000E+00  0.27731823112E+04  0.27731823112E+04  0.00000000000E+00 0.  1.
         -2   -1    0    0    0  501 -0.00000000000E+00 -0.00000000000E+00 -0.27278309667E+03  0.27278309667E+03  0.00000000000E+00 0. -1.
         23    2    1    2    0    0  0.35652968715E+03 -0.46553543884E+03  0.23728436348E+04  0.24458761740E+04  0.89925973438E+02 0.  0.
         13    1    3    3    0    0  0.32508879450E+03 -0.37822992313E+03  0.19285362501E+04  0.19919820950E+04  0.00000000000E+00 0.  1.
        -13    1    3    3    0    0  0.31440892641E+02 -0.87305515709E+02  0.44430738476E+03  0.45389407901E+03  0.00000000000E+00 0. -1.
         22    1    1    2    0    0 -0.35652968715E+03  0.46553543884E+03  0.12755557967E+03  0.60008923381E+03  0.00000000000E+00 0. -1.
<mgrwt>
<rscale>  0 0.17395140E+04</rscale>
<asrwt>0</asrwt>
<pdfrwt beam="1">  1        2 0.42664341E+00 0.17395140E+04</pdfrwt>
<pdfrwt beam="2">  1       -2 0.41966632E-01 0.17395140E+04</pdfrwt>
<totfact> 0.12287517E+01</totfact>
</mgrwt>
</event>
<event>
 6    1  0.5026615E-004  0.1954521E+04  0.7818608E-02  0.8628184E-01
         -1   -1    0    0    0  501 -0.00000000000E+00  0.00000000000E+00  0.29822130273E+03  0.29822130273E+03  0.00000000000E+00 0.  1.
          1   -1    0    0  501    0  0.00000000000E+00 -0.00000000000E+00 -0.32024468525E+04  0.32024468525E+04  0.00000000000E+00 0. -1.
         23    2    1    2    0    0  0.87462514576E+02 -0.16471154147E+03 -0.31695568126E+04  0.31763530888E+04  0.91372716719E+02 0.  0.
         13    1    3    3    0    0  0.31600130611E+02 -0.75465782158E+01 -0.94203937479E+03  0.94259943919E+03  0.00000000000E+00 0.  1.
        -13    1    3    3    0    0  0.55862383965E+02 -0.15716496325E+03 -0.22275174378E+04  0.22337536496E+04  0.00000000000E+00 0. -1.
         22    1    1    2    0    0 -0.87462514576E+02  0.16471154147E+03  0.26533126275E+03  0.32431506647E+03  0.00000000000E+00 0.  1.
<mgrwt>
<rscale>  0 0.19545208E+04</rscale>
<asrwt>0</asrwt>
<pdfrwt beam="1">  1        1 0.49268410E+00 0.19545208E+04</pdfrwt>
<pdfrwt beam="2">  1       -1 0.45880203E-01 0.19545208E+04</pdfrwt>
<totfact> 0.18674839E+00</totfact>
</mgrwt>
</event>
<event>
 6    1  0.5026615E-004  0.1605353E+04  0.7818608E-02  0.8817266E-01
          2   -1    0    0  501    0  0.00000000000E+00  0.00000000000E+00  0.21104070000E+04  0.21104070000E+04  0.00000000000E+00 0.  1.
         -2   -1    0    0    0  501 -0.00000000000E+00 -0.00000000000E+00 -0.30529167831E+03  0.30529167831E+03  0.00000000000E+00 0. -1.
         23    2    1    2    0    0 -0.45137093314E+03  0.39547098984E+03  0.10895205595E+03  0.61650362298E+03  0.89850673669E+02 0.  0.
         11    1    3    3    0    0 -0.20663799814E+03  0.23452960011E+03  0.76505019956E+02  0.32180182361E+03  0.00000000000E+00 0.  1.
        -11    1    3    3    0    0 -0.24473293500E+03  0.16094138973E+03  0.32447035989E+02  0.29470179936E+03  0.00000000000E+00 0. -1.
         22    1    1    2    0    0  0.45137093314E+03 -0.39547098984E+03  0.16961632657E+04  0.17991950553E+04  0.00000000000E+00 0.  1.
<mgrwt>
<rscale>  0 0.16053532E+04</rscale>
<asrwt>0</asrwt>
<pdfrwt beam="1">  1        2 0.32467799E+00 0.16053532E+04</pdfrwt>
<pdfrwt beam="2">  1       -2 0.46967952E-01 0.16053532E+04</pdfrwt>
<totfact> 0.23890710E+01</totfact>
</mgrwt>
</event>
<event>
 6    1  0.5026615E-004  0.2649176E+04  0.7818608E-02  0.8351686E-01
         -2   -1    0    0    0  501 -0.00000000000E+00  0.00000000000E+00  0.18970444824E+04  0.18970444824E+04  0.00000000000E+00 0. -1.
          2   -1    0    0  501    0  0.00000000000E+00 -0.00000000000E+00 -0.92487740546E+03  0.92487740546E+03  0.00000000000E+00 0.  1.
         23    2    1    2    0    0  0.22416704044E+03 -0.11449474996E+04 -0.17812062941E+03  0.11835332141E+04  0.88703276781E+02 0.  0.
         11    1    3    3    0    0  0.19043951226E+03 -0.87190069966E+03 -0.16862845392E+03  0.90824753970E+03  0.00000000000E+00 0. -1.
        -11    1    3    3    0    0  0.33727528185E+02 -0.27304679998E+03 -0.94921754847E+01  0.27528567440E+03  0.00000000000E+00 0.  1.
         22    1    1    2    0    0 -0.22416704044E+03  0.11449474996E+04  0.11502877064E+04  0.16383886738E+04  0.00000000000E+00 0.  1.
<mgrwt>
<rscale>  0 0.26491762E+04</rscale>
<asrwt>0</asrwt>
<pdfrwt beam="1">  1        2 0.14228883E+00 0.26491762E+04</pdfrwt>
<pdfrwt beam="2">  1       -2 0.29185300E+00 0.26491762E+04</pdfrwt>
<totfact> 0.88604825E-01</totfact>
</mgrwt>
</event>
<event>
 6    1  0.5026615E-004  0.8989406E+03  0.7818608E-02  0.9426907E-01
         -2   -1    0    0    0  501 -0.00000000000E+00  0.00000000000E+00  0.52407900249E+03  0.52407900249E+03  0.00000000000E+00 0. -1.
          2   -1    0    0  501    0  0.00000000000E+00 -0.00000000000E+00 -0.38548304656E+03  0.38548304656E+03  0.00000000000E+00 0.  1.
         23    2    1    2    0    0  0.13244734033E+03 -0.32130984472E+03  0.35111616500E+03  0.50219593174E+03  0.90199103408E+02 0.  0.
         11    1    3    3    0    0  0.35857626897E+02 -0.20272259493E+03  0.21042626780E+03  0.29438314164E+03  0.00000000000E+00 0.  1.
        -11    1    3    3    0    0  0.96589713437E+02 -0.11858724979E+03  0.14068989720E+03  0.20781279010E+03  0.00000000000E+00 0. -1.
         22    1    1    2    0    0 -0.13244734033E+03  0.32130984472E+03 -0.21252020907E+03  0.40736611732E+03  0.00000000000E+00 0.  1.
<mgrwt>
<rscale>  0 0.89894064E+03</rscale>
<asrwt>0</asrwt>
<pdfrwt beam="1">  1        2 0.59305084E-01 0.89894064E+03</pdfrwt>
<pdfrwt beam="2">  1       -2 0.80627539E-01 0.89894064E+03</pdfrwt>
<totfact> 0.11304852E+02</totfact>
</mgrwt>
</event>
<event>
 6    1  0.5026615E-004  0.2043070E+04  0.7818608E-02  0.8586745E-01
         -2   -1    0    0    0  501 -0.00000000000E+00  0.00000000000E+00  0.59211288685E+03  0.59211288685E+03  0.00000000000E+00 0. -1.
          2   -1    0    0  501    0  0.00000000000E+00 -0.00000000000E+00 -0.17623902907E+04  0.17623902907E+04  0.00000000000E+00 0.  1.
         23    2    1    2    0    0  0.74606141613E+03 -0.55218189273E+03 -0.10723269807E+04  0.14211721727E+04  0.91283687698E+02 0.  0.
         13    1    3    3    0    0  0.68032786109E+03 -0.51207213453E+03 -0.10167064109E+04  0.13261809060E+04  0.00000000000E+00 0. -1.
        -13    1    3    3    0    0  0.65733555039E+02 -0.40109758202E+02 -0.55620569800E+02  0.94991266682E+02  0.00000000000E+00 0.  1.
         22    1    1    2    0    0 -0.74606141613E+03  0.55218189273E+03 -0.97950423209E+02  0.93333100489E+03  0.00000000000E+00 0.  1.
<mgrwt>
<rscale>  0 0.20430702E+04</rscale>
<asrwt>0</asrwt>
<pdfrwt beam="1">  1        2 0.27113697E+00 0.20430702E+04</pdfrwt>
<pdfrwt beam="2">  1       -2 0.91094291E-01 0.20430702E+04</pdfrwt>
<totfact> 0.86142202E+00</totfact>
</mgrwt>
</event>
<event>
 6    1  0.5026615E-004  0.3307657E+04  0.7818608E-02  0.8160950E-01
         -2   -1    0    0    0  501 -0.00000000000E+00  0.00000000000E+00  0.14959805153E+04  0.14959805153E+04  0.00000000000E+00 0. -1.
          2   -1    0    0  501    0  0.00000000000E+00 -0.00000000000E+00 -0.18283316748E+04  0.18283316748E+04  0.00000000000E+00 0.  1.
         23    2    1    2    0    0  0.56900982022E+03 -0.15061780849E+04  0.20800287013E+03  0.16259815167E+04  0.90587525878E+02 0.  0.
         11    1    3    3    0    0  0.15473981989E+03 -0.44991578587E+03  0.10070063613E+03  0.48632216107E+03  0.00000000000E+00 0. -1.
        -11    1    3    3    0    0  0.41427000033E+03 -0.10562622990E+04  0.10730223400E+03  0.11396593557E+04  0.00000000000E+00 0.  1.
         22    1    1    2    0    0 -0.56900982022E+03  0.15061780849E+04 -0.54035402968E+03  0.16983306734E+04  0.00000000000E+00 0. -1.
<mgrwt>
<rscale>  0 0.33076569E+04</rscale>
<asrwt>0</asrwt>
<pdfrwt beam="1">  1        2 0.28128180E+00 0.33076569E+04</pdfrwt>
<pdfrwt beam="2">  1       -2 0.23015085E+00 0.33076569E+04</pdfrwt>
<totfact> 0.59264327E-01</totfact>
</mgrwt>
</event>
<event>
 6    1  0.5026615E-004  0.1450648E+04  0.7818608E-02  0.8917951E-01
          2   -1    0    0  501    0  0.00000000000E+00  0.00000000000E+00  0.20708268714E+04  0.20708268714E+04  0.00000000000E+00 0.  1.
         -2   -1    0    0    0  501 -0.00000000000E+00 -0.00000000000E+00 -0.25405071323E+03  0.25405071323E+03  0.00000000000E+00 0. -1.
         23    2    1    2    0    0 -0.46707823641E+03 -0.53011277283E+03  0.11534236231E+04  0.13557448710E+04  0.92067747491E+02 0.  0.
         13    1    3    3    0    0 -0.39010563044E+03 -0.41794091822E+03  0.98880850355E+03  0.11421905580E+04  0.00000000000E+00 0. -1.
        -13    1    3    3    0    0 -0.76972605971E+02 -0.11217185461E+03  0.16461511950E+03  0.21355431301E+03  0.00000000000E+00 0.  1.
         22    1    1    2    0    0  0.46707823641E+03  0.53011277283E+03  0.66335253517E+03  0.96913271370E+03  0.00000000000E+00 0. -1.
<mgrwt>
<rscale>  0 0.14506482E+04</rscale>
<asrwt>0</asrwt>
<pdfrwt beam="1">  1        2 0.31858874E+00 0.14506482E+04</pdfrwt>
<pdfrwt beam="2">  1       -2 0.39084726E-01 0.14506482E+04</pdfrwt>
<totfact> 0.36636483E+01</totfact>
</mgrwt>
</event>
<event>
 6    1  0.5026615E-004  0.1878034E+04  0.7818608E-02  0.8665868E-01
          2   -1    0    0  501    0  0.00000000000E+00  0.00000000000E+00  0.11121997062E+04  0.11121997062E+04  0.00000000000E+00 0.  1.
         -2   -1    0    0    0  501 -0.00000000000E+00 -0.00000000000E+00 -0.79280126267E+03  0.79280126267E+03  0.00000000000E+00 0. -1.
         23    2    1    2    0    0  0.14964763293E+03 -0.92330713028E+03  0.21240032071E+03  0.96354514458E+03  0.91732647059E+02 0.  0.
         11    1    3    3    0    0  0.42133849062E+02 -0.47009924261E+03  0.13888373793E+03  0.49199314203E+03  0.00000000000E+00 0. -1.
        -11    1    3    3    0    0  0.10751378387E+03 -0.45320788767E+03  0.73516582779E+02  0.47155200255E+03  0.00000000000E+00 0.  1.
         22    1    1    2    0    0 -0.14964763293E+03  0.92330713028E+03  0.10699812285E+03  0.94145582433E+03  0.00000000000E+00 0. -1.
<mgrwt>
<rscale>  0 0.18780344E+04</rscale>
<asrwt>0</asrwt>
<pdfrwt beam="1">  1        2 0.17110765E+00 0.18780344E+04</pdfrwt>
<pdfrwt beam="2">  1       -2 0.12196942E+00 0.18780344E+04</pdfrwt>
<totfact> 0.10244295E+01</totfact>
</mgrwt>
</event>
<event>
 6    1  0.5026615E-004  0.3504175E+04  0.7818608E-02  0.8112801E-01
         -2   -1    0    0    0  501 -0.00000000000E+00  0.00000000000E+00  0.15633310022E+04  0.15633310022E+04  0.00000000000E+00 0. -1.
          2   -1    0    0  501    0  0.00000000000E+00 -0.00000000000E+00 -0.19636341481E+04  0.19636341481E+04  0.00000000000E+00 0.  1.
         23    2    1    2    0    0  0.13313235650E+04 -0.72472315431E+03 -0.10823545539E+04  0.18647857952E+04  0.91041730245E+02 0.  0.
         13    1    3    3    0    0  0.50971039860E+03 -0.22872458332E+03 -0.38633604877E+03  0.67924602909E+03  0.00000000000E+00 0.  1.
        -13    1    3    3    0    0  0.82161316639E+03 -0.49599857099E+03 -0.69601850515E+03  0.11855397662E+04  0.00000000000E+00 0. -1.
         22    1    1    2    0    0 -0.13313235650E+04  0.72472315431E+03  0.68205140808E+03  0.16621793551E+04  0.00000000000E+00 0. -1.
<mgrwt>
<rscale>  0 0.35041747E+04</rscale>
<asrwt>0</asrwt>
<pdfrwt beam="1">  1        2 0.30209756E+00 0.35041747E+04</pdfrwt>
<pdfrwt beam="2">  1       -2 0.24051246E+00 0.35041747E+04</pdfrwt>
<totfact> 0.42284913E-01</totfact>
</mgrwt>
</event>
<event>
 6    1  0.5026615E-004  0.4100811E+04  0.7818608E-02  0.7984513E-01
         -2   -1    0    0    0  501 -0.00000000000E+00  0.00000000000E+00  0.23859699556E+04  0.23859699556E+04  0.00000000000E+00 0. -1.
          2   -1    0    0  501    0  0.00000000000E+00 -0.00000000000E+00 -0.17620347237E+04  0.17620347237E+04  0.00000000000E+00 0.  1.
         23    2    1    2    0    0  0.21053646913E+03  0.16058680741E+04  0.15821869772E+04  0.22661480738E+04  0.94729010418E+02 0.  0.
         13    1    3    3    0    0  0.16511397658E+03  0.11532234513E+04  0.11930746073E+04  0.16675173079E+04  0.00000000000E+00 0. -1.
        -13    1    3    3    0    0  0.45422492550E+02  0.45264462284E+03  0.38911236992E+03  0.59863076587E+03  0.00000000000E+00 0.  1.
         22    1    1    2    0    0 -0.21053646913E+03 -0.16058680741E+04 -0.95825174526E+03  0.18818566055E+04  0.00000000000E+00 0.  1.
<mgrwt>
<rscale>  0 0.41008106E+04</rscale>
<asrwt>0</asrwt>
<pdfrwt beam="1">  1        2 0.27108227E+00 0.41008106E+04</pdfrwt>
<pdfrwt beam="2">  1       -2 0.36707230E+00 0.41008106E+04</pdfrwt>
<totfact> 0.85891559E-02</totfact>
</mgrwt>
</event>
<event>
 6    1  0.5026615E-004  0.1705703E+04  0.7818608E-02  0.8758118E-01
          1   -1    0    0  501    0  0.00000000000E+00  0.00000000000E+00  0.15125319838E+04  0.15125319838E+04  0.00000000000E+00 0. -1.
         -1   -1    0    0    0  501 -0.00000000000E+00 -0.00000000000E+00 -0.48088617192E+03  0.48088617192E+03  0.00000000000E+00 0.  1.
         23    2    1    2    0    0 -0.37576640338E+03  0.31281347393E+03  0.13305044866E+04  0.14203831071E+04  0.90516974411E+02 0.  0.
         11    1    3    3    0    0 -0.12939621001E+03  0.14131722297E+03  0.41927669687E+03  0.46098469086E+03  0.00000000000E+00 0. -1.
        -11    1    3    3    0    0 -0.24637019337E+03  0.17149625095E+03  0.91122778976E+03  0.95939841625E+03  0.00000000000E+00 0.  1.
         22    1    1    2    0    0  0.37576640338E+03 -0.31281347393E+03 -0.29885867479E+03  0.57303504856E+03  0.00000000000E+00 0.  1.
<mgrwt>
<rscale>  0 0.17057030E+04</rscale>
<asrwt>0</asrwt>
<pdfrwt beam="1">  1        1 0.23269723E+00 0.17057030E+04</pdfrwt>
<pdfrwt beam="2">  1       -1 0.73982489E-01 0.17057030E+04</pdfrwt>
<totfact> 0.11219703E+01</totfact>
</mgrwt>
</event>
<event>
 6    1  0.5026615E-004  0.3650176E+04  0.7818608E-02  0.8079094E-01
         -1   -1    0    0    0  501 -0.00000000000E+00  0.00000000000E+00  0.18975150843E+04  0.18975150843E+04  0.00000000000E+00 0. -1.
          1   -1    0    0  501    0  0.00000000000E+00 -0.00000000000E+00 -0.17554254315E+04  0.17554254315E+04  0.00000000000E+00 0.  1.
         23    2    1    2    0    0  0.17091804962E+04 -0.19183576710E+03  0.67874321236E+03  0.18512479858E+04  0.91256924883E+02 0.  0.
         13    1    3    3    0    0  0.15607933345E+04 -0.15642852123E+03  0.63759122304E+03  0.16932419446E+04  0.00000000000E+00 0. -1.
        -13    1    3    3    0    0  0.14838716165E+03 -0.35407245875E+02  0.41151989320E+02  0.15800604111E+03  0.00000000000E+00 0.  1.
         22    1    1    2    0    0 -0.17091804962E+04  0.19183576710E+03 -0.53665355953E+03  0.18016925301E+04  0.00000000000E+00 0.  1.
<mgrwt>
<rscale>  0 0.36501760E+04</rscale>
<asrwt>0</asrwt>
<pdfrwt beam="1">  1        1 0.27006545E+00 0.36501760E+04</pdfrwt>
<pdfrwt beam="2">  1       -1 0.29192540E+00 0.36501760E+04</pdfrwt>
<totfact> 0.13112089E-01</totfact>
</mgrwt>
</event>
<event>
 6    1  0.5026615E-004  0.1557411E+04  0.7818608E-02  0.8847148E-01
          2   -1    0    0  501    0  0.00000000000E+00  0.00000000000E+00  0.20738488319E+04  0.20738488319E+04  0.00000000000E+00 0.  1.
         -2   -1    0    0    0  501 -0.00000000000E+00 -0.00000000000E+00 -0.29239454620E+03  0.29239454620E+03  0.00000000000E+00 0. -1.
         23    2    1    2    0    0  0.43226698677E+03  0.24010674015E+03  0.18024222974E+04  0.18713235340E+04  0.92841997637E+02 0.  0.
         11    1    3    3    0    0  0.19380493140E+03  0.55757009656E+02  0.71124829467E+03  0.73928569053E+03  0.00000000000E+00 0.  1.
        -11    1    3    3    0    0  0.23846205537E+03  0.18434973049E+03  0.10911740027E+04  0.11320378435E+04  0.00000000000E+00 0. -1.
         22    1    1    2    0    0 -0.43226698677E+03 -0.24010674015E+03 -0.20968011661E+02  0.49491984405E+03  0.00000000000E+00 0. -1.
<mgrwt>
<rscale>  0 0.15574108E+04</rscale>
<asrwt>0</asrwt>
<pdfrwt beam="1">  1        2 0.31905366E+00 0.15574108E+04</pdfrwt>
<pdfrwt beam="2">  1       -2 0.44983778E-01 0.15574108E+04</pdfrwt>
<totfact> 0.27411750E+01</totfact>
</mgrwt>
</event>
<event>
 6    1  0.5026615E-004  0.2518014E+04  0.7818608E-02  0.8396596E-01
          2   -1    0    0  501    0  0.00000000000E+00  0.00000000000E+00  0.11952408995E+04  0.11952408995E+04  0.00000000000E+00 0.  1.
         -2   -1    0    0    0  501 -0.00000000000E+00 -0.00000000000E+00 -0.13261754873E+04  0.13261754873E+04  0.00000000000E+00 0. -1.
         23    2    1    2    0    0  0.35302641657E+03 -0.11683597845E+04  0.23680670268E+03  0.12466905757E+04  0.92020325979E+02 0.  0.
         11    1    3    3    0    0  0.89631115544E+02 -0.23580724533E+03  0.15738707899E+02  0.25275779068E+03  0.00000000000E+00 0. -1.
        -11    1    3    3    0    0  0.26339530103E+03 -0.93255253915E+03  0.22106799479E+03  0.99393278505E+03  0.00000000000E+00 0.  1.
         22    1    1    2    0    0 -0.35302641657E+03  0.11683597845E+04 -0.36774129050E+03  0.12747258111E+04  0.00000000000E+00 0.  1.
<mgrwt>
<rscale>  0 0.25180144E+04</rscale>
<asrwt>0</asrwt>
<pdfrwt beam="1">  1        2 0.18388322E+00 0.25180144E+04</pdfrwt>
<pdfrwt beam="2">  1       -2 0.20402700E+00 0.25180144E+04</pdfrwt>
<totfact> 0.21252085E+00</totfact>
</mgrwt>
</event>
<event>
 6    1  0.5026615E-004  0.3743883E+04  0.7818608E-02  0.8058306E-01
          1   -1    0    0  501    0  0.00000000000E+00  0.00000000000E+00  0.23683939645E+04  0.23683939645E+04  0.00000000000E+00 0. -1.
         -1   -1    0    0    0  501 -0.00000000000E+00 -0.00000000000E+00 -0.14795531327E+04  0.14795531327E+04  0.00000000000E+00 0.  1.
         23    2    1    2    0    0  0.97321664372E+03  0.14590411325E+04 -0.22526597509E+03  0.17701632684E+04  0.82350321935E+02 0.  0.
         13    1    3    3    0    0  0.70238690804E+03  0.10814136056E+04 -0.19851784561E+03  0.13046885031E+04  0.00000000000E+00 0.  1.
        -13    1    3    3    0    0  0.27082973568E+03  0.37762752686E+03 -0.26748129485E+02  0.46547476538E+03  0.00000000000E+00 0. -1.
         22    1    1    2    0    0 -0.97321664372E+03 -0.14590411325E+04  0.11141068069E+04  0.20777838288E+04  0.00000000000E+00 0. -1.
<mgrwt>
<rscale>  0 0.37438829E+04</rscale>
<asrwt>0</asrwt>
<pdfrwt beam="1">  1        1 0.36436830E+00 0.37438829E+04</pdfrwt>
<pdfrwt beam="2">  1       -1 0.22762356E+00 0.37438829E+04</pdfrwt>
<totfact> 0.13070900E-01</totfact>
</mgrwt>
</event>
<event>
 6    1  0.5238383E-004  0.2755574E+04  0.7818608E-02  0.8317195E-01
         -1   -1    0    0    0  501 -0.00000000000E+00  0.00000000000E+00  0.16059635306E+04  0.16059635306E+04  0.00000000000E+00 0. -1.
          1   -1    0    0  501    0  0.00000000000E+00 -0.00000000000E+00 -0.11820297441E+04  0.11820297441E+04  0.00000000000E+00 0.  1.
         23    2    1    2    0    0 -0.27621036791E+03  0.21300030044E+03  0.15592047966E+04  0.16003478893E+04  0.91282384106E+02 0.  0.
         11    1    3    3    0    0 -0.93813367363E+02  0.12675402467E+03  0.62284266702E+03  0.64249553969E+03  0.00000000000E+00 0. -1.
        -11    1    3    3    0    0 -0.18239700054E+03  0.86246275773E+02  0.93636212958E+03  0.95785234959E+03  0.00000000000E+00 0.  1.
         22    1    1    2    0    0  0.27621036791E+03 -0.21300030044E+03 -0.11352710100E+04  0.11876453854E+04  0.00000000000E+00 0.  1.
<mgrwt>
<rscale>  0 0.27555737E+04</rscale>
<asrwt>0</asrwt>
<pdfrwt beam="1">  1        1 0.18185073E+00 0.27555737E+04</pdfrwt>
<pdfrwt beam="2">  1       -1 0.24707131E+00 0.27555737E+04</pdfrwt>
<totfact> 0.69746252E-01</totfact>
</mgrwt>
</event>
<event>
 6    1  0.6797439E-004  0.2412424E+04  0.7818608E-02  0.8434867E-01
         -2   -1    0    0    0  501 -0.00000000000E+00  0.00000000000E+00  0.69148838277E+03  0.69148838277E+03  0.00000000000E+00 0. -1.
          2   -1    0    0  501    0  0.00000000000E+00 -0.00000000000E+00 -0.21040809453E+04  0.21040809453E+04  0.00000000000E+00 0.  1.
         23    2    1    2    0    0 -0.31488438575E+03  0.51954782847E+03 -0.19125832523E+04  0.20087575258E+04  0.89721670089E+02 0.  0.
         13    1    3    3    0    0 -0.16752644052E+03  0.28656175083E+03 -0.89787062931E+03  0.95726402434E+03  0.00000000000E+00 0.  1.
        -13    1    3    3    0    0 -0.14735794523E+03  0.23298607764E+03 -0.10147126230E+04  0.10514935014E+04  0.00000000000E+00 0. -1.
         22    1    1    2    0    0  0.31488438575E+03 -0.51954782847E+03  0.49999068972E+03  0.78681180231E+03  0.00000000000E+00 0. -1.
<mgrwt>
<rscale>  0 0.24124241E+04</rscale>
<asrwt>0</asrwt>
<pdfrwt beam="1">  1        2 0.32370476E+00 0.24124241E+04</pdfrwt>
<pdfrwt beam="2">  1       -2 0.10638283E+00 0.24124241E+04</pdfrwt>
<totfact> 0.37397884E+00</totfact>
</mgrwt>
</event>
<event>
 6    1  0.5026615E-004  0.4106739E+04  0.7818608E-02  0.7983353E-01
          2   -1    0    0  501    0  0.00000000000E+00  0.00000000000E+00  0.38563060274E+04  0.38563060274E+04  0.00000000000E+00 0.  1.
         -2   -1    0    0    0  501 -0.00000000000E+00 -0.00000000000E+00 -0.10933589535E+04  0.10933589535E+04  0.00000000000E+00 0. -1.
         23    2    1    2    0    0  0.61305035544E+03  0.18797108278E+04  0.71928212467E+03  0.21061266993E+04  0.96225590006E+02 0.  0.
         11    1    3    3    0    0  0.32990210865E+03  0.10952244117E+04  0.45823658631E+03  0.12322064285E+04  0.00000000000E+00 0. -1.
        -11    1    3    3    0    0  0.28314824679E+03  0.78448641608E+03  0.26104553836E+03  0.87392027083E+03  0.00000000000E+00 0.  1.
         22    1    1    2    0    0 -0.61305035544E+03 -0.18797108278E+04  0.20436649492E+04  0.28435382816E+04  0.00000000000E+00 0.  1.
<mgrwt>
<rscale>  0 0.41067392E+04</rscale>
<asrwt>0</asrwt>
<pdfrwt beam="1">  1        2 0.59327785E+00 0.41067392E+04</pdfrwt>
<pdfrwt beam="2">  1       -2 0.16820907E+00 0.41067392E+04</pdfrwt>
<totfact> 0.76089755E-02</totfact>
</mgrwt>
</event>
<event>
 6    1  0.5026615E-004  0.2377228E+04  0.7818608E-02  0.8448079E-01
         -2   -1    0    0    0  501 -0.00000000000E+00  0.00000000000E+00  0.18597805095E+04  0.18597805095E+04  0.00000000000E+00 0. -1.
          2   -1    0    0  501    0  0.00000000000E+00 -0.00000000000E+00 -0.75966130046E+03  0.75966130046E+03  0.00000000000E+00 0.  1.
         23    2    1    2    0    0 -0.68229083869E+03  0.45461886116E+03 -0.39434611384E+03  0.91485221162E+03  0.96159316397E+02 0.  0.
         13    1    3    3    0    0 -0.51009064534E+03  0.29236784159E+03 -0.30096814350E+03  0.66049469692E+03  0.00000000000E+00 0. -1.
        -13    1    3    3    0    0 -0.17220019335E+03  0.16225101957E+03 -0.93377970344E+02  0.25435751471E+03  0.00000000000E+00 0.  1.
         22    1    1    2    0    0  0.68229083869E+03 -0.45461886116E+03  0.14944653229E+04  0.17045895983E+04  0.00000000000E+00 0. -1.
<mgrwt>
<rscale>  0 0.23772280E+04</rscale>
<asrwt>0</asrwt>
<pdfrwt beam="1">  1        2 0.11687097E+00 0.23772280E+04</pdfrwt>
<pdfrwt beam="2">  1       -2 0.28612008E+00 0.23772280E+04</pdfrwt>
<totfact> 0.12840886E+00</totfact>
</mgrwt>
</event>
<event>
 6    1  0.5026615E-004  0.2448236E+04  0.7818608E-02  0.8421662E-01
         -1   -1    0    0    0  501 -0.00000000000E+00  0.00000000000E+00  0.16223394531E+04  0.16223394531E+04  0.00000000000E+00 0. -1.
          1   -1    0    0  501    0  0.00000000000E+00 -0.00000000000E+00 -0.92364475678E+03  0.92364475678E+03  0.00000000000E+00 0.  1.
         23    2    1    2    0    0  0.34314640713E+03 -0.24058666928E+03  0.15440013816E+04  0.16024934604E+04  0.91725798629E+02 0.  0.
         11    1    3    3    0    0  0.31471101963E+03 -0.24377097890E+03  0.14754989901E+04  0.15282554059E+04  0.00000000000E+00 0.  1.
        -11    1    3    3    0    0  0.28435387500E+02  0.31843096144E+01  0.68502391524E+02  0.74238054491E+02  0.00000000000E+00 0. -1.
         22    1    1    2    0    0 -0.34314640713E+03  0.24058666928E+03 -0.84530668528E+03  0.94349074947E+03  0.00000000000E+00 0.  1.
<mgrwt>
<rscale>  0 0.24482364E+04</rscale>
<asrwt>0</asrwt>
<pdfrwt beam="1">  1        1 0.14209919E+00 0.24482364E+04</pdfrwt>
<pdfrwt beam="2">  1       -1 0.24959068E+00 0.24482364E+04</pdfrwt>
<totfact> 0.10895573E+00</totfact>
</mgrwt>
</event>
<event>
 6    1  0.5026615E-004  0.1816001E+04  0.7818608E-02  0.8697836E-01
         -2   -1    0    0    0  501 -0.00000000000E+00  0.00000000000E+00  0.19539342131E+04  0.19539342131E+04  0.00000000000E+00 0. -1.
          2   -1    0    0  501    0  0.00000000000E+00 -0.00000000000E+00 -0.42195123405E+03  0.42195123405E+03  0.00000000000E+00 0.  1.
         23    2    1    2    0    0  0.32116249784E+03 -0.79905273808E+03  0.11347379135E+04  0.14275003617E+04  0.92176580056E+02 0.  0.
         11    1    3    3    0    0  0.16119648295E+03 -0.33274446936E+03  0.42457609017E+03  0.56299915128E+03  0.00000000000E+00 0.  1.
        -11    1    3    3    0    0  0.15996601490E+03 -0.46630826872E+03  0.71016182335E+03  0.86450121037E+03  0.00000000000E+00 0. -1.
         22    1    1    2    0    0 -0.32116249784E+03  0.79905273808E+03  0.39724506550E+03  0.94838508545E+03  0.00000000000E+00 0. -1.
<mgrwt>
<rscale>  0 0.18160010E+04</rscale>
<asrwt>0</asrwt>
<pdfrwt beam="1">  1        2 0.64915576E-01 0.18160010E+04</pdfrwt>
<pdfrwt beam="2">  1       -2 0.30060526E+00 0.18160010E+04</pdfrwt>
<totfact> 0.22276597E+00</totfact>
</mgrwt>
</event>
<event>
 6    1  0.5026615E-004  0.5136213E+04  0.7818608E-02  0.7807832E-01
         -2   -1    0    0    0  501 -0.00000000000E+00  0.00000000000E+00  0.23970632257E+04  0.23970632257E+04  0.00000000000E+00 0. -1.
          2   -1    0    0  501    0  0.00000000000E+00 -0.00000000000E+00 -0.27513545424E+04  0.27513545424E+04  0.00000000000E+00 0.  1.
         23    2    1    2    0    0 -0.21882065572E+04  0.86577795901E+03 -0.12059417448E+04  0.26457935728E+04  0.90048469166E+02 0.  0.
         11    1    3    3    0    0 -0.88899646599E+03  0.31574788653E+03 -0.51563985634E+03  0.10751259953E+04  0.00000000000E+00 0. -1.
        -11    1    3    3    0    0 -0.12992100912E+04  0.55003007247E+03 -0.69030188841E+03  0.15706675775E+04  0.00000000000E+00 0.  1.
         22    1    1    2    0    0  0.21882065572E+04 -0.86577795901E+03  0.85165042805E+03  0.25026241953E+04  0.00000000000E+00 0. -1.
<mgrwt>
<rscale>  0 0.51362129E+04</rscale>
<asrwt>0</asrwt>
<pdfrwt beam="1">  1        2 0.42328531E+00 0.51362129E+04</pdfrwt>
<pdfrwt beam="2">  1       -2 0.36877896E+00 0.51362129E+04</pdfrwt>
<totfact> 0.21065627E-02</totfact>
</mgrwt>
</event>
<event>
 6    1  0.5026615E-004  0.2439737E+04  0.7818608E-02  0.8424775E-01
          2   -1    0    0  501    0  0.00000000000E+00  0.00000000000E+00  0.17690959281E+04  0.17690959281E+04  0.00000000000E+00 0.  1.
         -2   -1    0    0    0  501 -0.00000000000E+00 -0.00000000000E+00 -0.84115201105E+03  0.84115201105E+03  0.00000000000E+00 0. -1.
         23    2    1    2    0    0  0.70393405584E+03 -0.48108712429E+03  0.13954227141E+04  0.16378774327E+04  0.92032371260E+02 0.  0.
         13    1    3    3    0    0  0.26509284541E+03 -0.21866604024E+03  0.62441020029E+03  0.71272515886E+03  0.00000000000E+00 0.  1.
        -13    1    3    3    0    0  0.43884121043E+03 -0.26242108405E+03  0.77101251378E+03  0.92515227381E+03  0.00000000000E+00 0. -1.
         22    1    1    2    0    0 -0.70393405584E+03  0.48108712429E+03 -0.46747879705E+03  0.97237050645E+03  0.00000000000E+00 0. -1.
<mgrwt>
<rscale>  0 0.24397365E+04</rscale>
<asrwt>0</asrwt>
<pdfrwt beam="1">  1        2 0.27216860E+00 0.24397365E+04</pdfrwt>
<pdfrwt beam="2">  1       -2 0.12940800E+00 0.24397365E+04</pdfrwt>
<totfact> 0.35353401E+00</totfact>
</mgrwt>
</event>
<event>
 6    1  0.5026615E-004  0.1839445E+04  0.7818608E-02  0.8685600E-01
         -2   -1    0    0    0  501 -0.00000000000E+00  0.00000000000E+00  0.37331580884E+03  0.37331580884E+03  0.00000000000E+00 0. -1.
          2   -1    0    0  501    0  0.00000000000E+00 -0.00000000000E+00 -0.22658818024E+04  0.22658818024E+04  0.00000000000E+00 0.  1.
         23    2    1    2    0    0 -0.10619934935E+03 -0.74622879770E+03 -0.19687785503E+03  0.78353223637E+03  0.83822164779E+02 0.  0.
         11    1    3    3    0    0 -0.83792761078E+02 -0.31128821732E+03 -0.97941608933E+02  0.33691859523E+03  0.00000000000E+00 0. -1.
        -11    1    3    3    0    0 -0.22406588272E+02 -0.43494058038E+03 -0.98936246100E+02  0.44661364114E+03  0.00000000000E+00 0.  1.
         22    1    1    2    0    0  0.10619934935E+03  0.74622879770E+03 -0.16956881385E+04  0.18556653749E+04  0.00000000000E+00 0.  1.
<mgrwt>
<rscale>  0 0.18394450E+04</rscale>
<asrwt>0</asrwt>
<pdfrwt beam="1">  1        2 0.34859719E+00 0.18394450E+04</pdfrwt>
<pdfrwt beam="2">  1       -2 0.57433203E-01 0.18394450E+04</pdfrwt>
<totfact> 0.12673111E+01</totfact>
</mgrwt>
</event>
<event>
 6    1  0.5026615E-004  0.1552765E+04  0.7818608E-02  0.8850104E-01
          2   -1    0    0  501    0  0.00000000000E+00  0.00000000000E+00  0.48127872919E+03  0.48127872919E+03  0.00000000000E+00 0.  1.
         -2   -1    0    0    0  501 -0.00000000000E+00 -0.00000000000E+00 -0.12524331866E+04  0.12524331866E+04  0.00000000000E+00 0. -1.
         23    2    1    2    0    0 -0.25973861580E+03  0.26891609972E+03  0.36938831069E+03  0.53345451712E+03  0.91356338238E+02 0.  0.
         13    1    3    3    0    0 -0.14211428196E+03  0.15305999152E+03  0.14245750931E+03  0.25282003896E+03  0.00000000000E+00 0. -1.
        -13    1    3    3    0    0 -0.11762433384E+03  0.11585610820E+03  0.22693080137E+03  0.28063447816E+03  0.00000000000E+00 0.  1.
         22    1    1    2    0    0  0.25973861580E+03 -0.26891609972E+03 -0.11405427681E+04  0.12002573987E+04  0.00000000000E+00 0. -1.
<mgrwt>
<rscale>  0 0.15527646E+04</rscale>
<asrwt>0</asrwt>
<pdfrwt beam="1">  1        2 0.74042881E-01 0.15527646E+04</pdfrwt>
<pdfrwt beam="2">  1       -2 0.19268203E+00 0.15527646E+04</pdfrwt>
<totfact> 0.92030649E+00</totfact>
</mgrwt>
</event>
<event>
 6    1  0.5026615E-004  0.1203232E+04  0.7818608E-02  0.9110032E-01
         -2   -1    0    0    0  501 -0.00000000000E+00  0.00000000000E+00  0.23000183147E+04  0.23000183147E+04  0.00000000000E+00 0. -1.
          2   -1    0    0  501    0  0.00000000000E+00 -0.00000000000E+00 -0.15736477190E+03  0.15736477190E+03  0.00000000000E+00 0.  1.
         23    2    1    2    0    0  0.30946996027E+03  0.48395597437E+03  0.73550821644E+03  0.93750052174E+03  0.89161933464E+02 0.  0.
         11    1    3    3    0    0  0.25237354392E+03  0.43327658850E+03  0.59969101328E+03  0.78169707638E+03  0.00000000000E+00 0. -1.
        -11    1    3    3    0    0  0.57096416350E+02  0.50679385867E+02  0.13581720316E+03  0.15580344536E+03  0.00000000000E+00 0.  1.
         22    1    1    2    0    0 -0.30946996027E+03 -0.48395597437E+03  0.14071453263E+04  0.15198825648E+04  0.00000000000E+00 0. -1.
<mgrwt>
<rscale>  0 0.12032321E+04</rscale>
<asrwt>0</asrwt>
<pdfrwt beam="1">  1        2 0.24209967E-01 0.12032321E+04</pdfrwt>
<pdfrwt beam="2">  1       -2 0.35384895E+00 0.12032321E+04</pdfrwt>
<totfact> 0.33535775E+00</totfact>
</mgrwt>
</event>
<event>
 6    1  0.5026615E-004  0.3500490E+04  0.7818608E-02  0.8113674E-01
          2   -1    0    0  501    0  0.00000000000E+00  0.00000000000E+00  0.30166926650E+04  0.30166926650E+04  0.00000000000E+00 0.  1.
         -2   -1    0    0    0  501 -0.00000000000E+00 -0.00000000000E+00 -0.10154691202E+04  0.10154691202E+04  0.00000000000E+00 0. -1.
         23    2    1    2    0    0 -0.16339498520E+04 -0.54598841408E+03  0.13494061317E+04  0.21902167786E+04  0.90868926827E+02 0.  0.
         11    1    3    3    0    0 -0.11101885658E+04 -0.40995704251E+03  0.90011615819E+03  0.14868734064E+04  0.00000000000E+00 0.  1.
        -11    1    3    3    0    0 -0.52376128620E+03 -0.13603137157E+03  0.44928997350E+03  0.70334337223E+03  0.00000000000E+00 0. -1.
         22    1    1    2    0    0  0.16339498520E+04  0.54598841408E+03  0.65181741310E+03  0.18419450066E+04  0.00000000000E+00 0.  1.
<mgrwt>
<rscale>  0 0.35004904E+04</rscale>
<asrwt>0</asrwt>
<pdfrwt beam="1">  1        2 0.46410656E+00 0.35004904E+04</pdfrwt>
<pdfrwt beam="2">  1       -2 0.15622602E+00 0.35004904E+04</pdfrwt>
<totfact> 0.37504322E-01</totfact>
</mgrwt>
</event>
<event>
 6    1  0.5026615E-004  0.5476892E+03  0.7818608E-02  0.1002030E+00
          2   -1    0    0  501    0  0.00000000000E+00  0.00000000000E+00  0.12616543797E+04  0.12616543797E+04  0.00000000000E+00 0.  1.
         -2   -1    0    0    0  501 -0.00000000000E+00 -0.00000000000E+00 -0.59438525069E+02  0.59438525069E+02  0.00000000000E+00 0. -1.
         23    2    1    2    0    0  0.97444977871E+02 -0.17800903000E+03  0.19876552123E+03  0.29732764355E+03  0.87825148550E+02 0.  0.
         11    1    3    3    0    0  0.43940951120E+02 -0.83973687315E+02  0.34960037117E+02  0.10101777835E+03  0.00000000000E+00 0. -1.
        -11    1    3    3    0    0  0.53504026750E+02 -0.94035342683E+02  0.16380548412E+03  0.19630986521E+03  0.00000000000E+00 0.  1.
         22    1    1    2    0    0 -0.97444977871E+02  0.17800903000E+03  0.10034503334E+04  0.10237652612E+04  0.00000000000E+00 0.  1.
<mgrwt>
<rscale>  0 0.54768924E+03</rscale>
<asrwt>0</asrwt>
<pdfrwt beam="1">  1        2 0.19410065E+00 0.54768924E+03</pdfrwt>
<pdfrwt beam="2">  1       -2 0.91443894E-02 0.54768924E+03</pdfrwt>
<totfact> 0.14000681E+03</totfact>
</mgrwt>
</event>
<event>
 6    1  0.5026615E-004  0.3192593E+04  0.7818608E-02  0.8190776E-01
          2   -1    0    0  501    0  0.00000000000E+00  0.00000000000E+00  0.16944881583E+04  0.16944881583E+04  0.00000000000E+00 0.  1.
         -2   -1    0    0    0  501 -0.00000000000E+00 -0.00000000000E+00 -0.15037950329E+04  0.15037950329E+04  0.00000000000E+00 0. -1.
         23    2    1    2    0    0  0.10380055199E+04  0.10706159968E+04  0.66227970697E+03  0.16342921504E+04  0.92856612685E+02 0.  0.
         11    1    3    3    0    0  0.15292593628E+03  0.16396852733E+03  0.64398886901E+02  0.23327931022E+03  0.00000000000E+00 0.  1.
        -11    1    3    3    0    0  0.88507958359E+03  0.90664746950E+03  0.59788082007E+03  0.14010128401E+04  0.00000000000E+00 0. -1.
         22    1    1    2    0    0 -0.10380055199E+04 -0.10706159968E+04 -0.47158658160E+03  0.15639910409E+04  0.00000000000E+00 0. -1.
<mgrwt>
<rscale>  0 0.31925932E+04</rscale>
<asrwt>0</asrwt>
<pdfrwt beam="1">  1        2 0.26069049E+00 0.31925932E+04</pdfrwt>
<pdfrwt beam="2">  1       -2 0.23135308E+00 0.31925932E+04</pdfrwt>
<totfact> 0.69780084E-01</totfact>
</mgrwt>
</event>
<event>
 6    1  0.5026615E-004  0.2069716E+04  0.7818608E-02  0.8574702E-01
         -2   -1    0    0    0  501 -0.00000000000E+00  0.00000000000E+00  0.86421287784E+03  0.86421287784E+03  0.00000000000E+00 0. -1.
          2   -1    0    0  501    0  0.00000000000E+00 -0.00000000000E+00 -0.12391986046E+04  0.12391986046E+04  0.00000000000E+00 0.  1.
         23    2    1    2    0    0  0.57458960981E+03  0.83624884439E+03 -0.38399850564E+03  0.10887457347E+04  0.91907959957E+02 0.  0.
         11    1    3    3    0    0  0.33521804517E+03  0.45428533444E+03 -0.25774238255E+03  0.62062664997E+03  0.00000000000E+00 0.  1.
        -11    1    3    3    0    0  0.23937156464E+03  0.38196350995E+03 -0.12625612309E+03  0.46811908475E+03  0.00000000000E+00 0. -1.
         22    1    1    2    0    0 -0.57458960981E+03 -0.83624884439E+03  0.90127788599E+01  0.10146657477E+04  0.00000000000E+00 0.  1.
<mgrwt>
<rscale>  0 0.20697163E+04</rscale>
<asrwt>0</asrwt>
<pdfrwt beam="1">  1        2 0.19064594E+00 0.20697163E+04</pdfrwt>
<pdfrwt beam="2">  1       -2 0.13295583E+00 0.20697163E+04</pdfrwt>
<totfact> 0.68028696E+00</totfact>
</mgrwt>
</event>
<event>
 6    1  0.5026615E-004  0.1500112E+04  0.7818608E-02  0.8884379E-01
         -2   -1    0    0    0  501 -0.00000000000E+00  0.00000000000E+00  0.39615904430E+03  0.39615904430E+03  0.00000000000E+00 0. -1.
          2   -1    0    0  501    0  0.00000000000E+00 -0.00000000000E+00 -0.14200960544E+04  0.14200960544E+04  0.00000000000E+00 0.  1.
         23    2    1    2    0    0 -0.12929254034E+03 -0.33966747836E+03 -0.13044018534E+04  0.13571787595E+04  0.91539243055E+02 0.  0.
         11    1    3    3    0    0 -0.88305072953E+01 -0.87689818707E+02 -0.44126406589E+03  0.44997939732E+03  0.00000000000E+00 0.  1.
        -11    1    3    3    0    0 -0.12046203304E+03 -0.25197765966E+03 -0.86313778755E+03  0.90719936214E+03  0.00000000000E+00 0. -1.
         22    1    1    2    0    0  0.12929254034E+03  0.33966747836E+03  0.28046484338E+03  0.45907633921E+03  0.00000000000E+00 0. -1.
<mgrwt>
<rscale>  0 0.15001119E+04</rscale>
<asrwt>0</asrwt>
<pdfrwt beam="1">  1        2 0.21847631E+00 0.15001119E+04</pdfrwt>
<pdfrwt beam="2">  1       -2 0.60947547E-01 0.15001119E+04</pdfrwt>
<totfact> 0.34108598E+01</totfact>
</mgrwt>
</event>
<event>
 6    1  0.5026615E-004  0.1549323E+04  0.7818608E-02  0.8852300E-01
          2   -1    0    0  501    0  0.00000000000E+00  0.00000000000E+00  0.38698867643E+04  0.38698867643E+04  0.00000000000E+00 0.  1.
         -2   -1    0    0    0  501 -0.00000000000E+00 -0.00000000000E+00 -0.15506926587E+03  0.15506926587E+03  0.00000000000E+00 0. -1.
         23    2    1    2    0    0 -0.18495899633E+03  0.49370831905E+03  0.33288301800E+04  0.33715465532E+04  0.90873859744E+02 0.  0.
         11    1    3    3    0    0  0.14162231545E+01  0.78924473205E+02  0.58246471204E+03  0.58778926405E+03  0.00000000000E+00 0. -1.
        -11    1    3    3    0    0 -0.18637521949E+03  0.41478384584E+03  0.27463654679E+04  0.27837572891E+04  0.00000000000E+00 0.  1.
         22    1    1    2    0    0  0.18495899633E+03 -0.49370831905E+03  0.38598731842E+03  0.65340947697E+03  0.00000000000E+00 0. -1.
<mgrwt>
<rscale>  0 0.15493231E+04</rscale>
<asrwt>0</asrwt>
<pdfrwt beam="1">  1        2 0.59536712E+00 0.15493231E+04</pdfrwt>
<pdfrwt beam="2">  1       -2 0.23856813E-01 0.15493231E+04</pdfrwt>
<totfact> 0.66497064E+00</totfact>
</mgrwt>
</event>
<event>
 6    1  0.5026615E-004  0.1905127E+04  0.7818608E-02  0.8652309E-01
          2   -1    0    0  501    0  0.00000000000E+00  0.00000000000E+00  0.21835018480E+04  0.21835018480E+04  0.00000000000E+00 0.  1.
         -2   -1    0    0    0  501 -0.00000000000E+00 -0.00000000000E+00 -0.41556034658E+03  0.41556034658E+03  0.00000000000E+00 0. -1.
         23    2    1    2    0    0 -0.17847583403E+02  0.71464678807E+03  0.31511707793E+02  0.72123712388E+03  0.90285287823E+02 0.  0.
         11    1    3    3    0    0  0.14506336656E+00  0.40348364718E+03  0.61382725054E+02  0.40812610003E+03  0.00000000000E+00 0. -1.
        -11    1    3    3    0    0 -0.17992646769E+02  0.31116314089E+03 -0.29871017260E+02  0.31311102385E+03  0.00000000000E+00 0.  1.
         22    1    1    2    0    0  0.17847583403E+02 -0.71464678807E+03  0.17364297936E+04  0.18778250707E+04  0.00000000000E+00 0.  1.
<mgrwt>
<rscale>  0 0.19051265E+04</rscale>
<asrwt>0</asrwt>
<pdfrwt beam="1">  1        2 0.33592335E+00 0.19051265E+04</pdfrwt>
<pdfrwt beam="2">  1       -2 0.63932362E-01 0.19051265E+04</pdfrwt>
<totfact> 0.11173708E+01</totfact>
</mgrwt>
</event>
<event>
 6    1  0.5026615E-004  0.1318115E+04  0.7818608E-02  0.9015322E-01
          2   -1    0    0  501    0  0.00000000000E+00  0.00000000000E+00  0.20038213415E+04  0.20038213415E+04  0.00000000000E+00 0.  1.
         -2   -1    0    0    0  501 -0.00000000000E+00 -0.00000000000E+00 -0.21676413505E+03  0.21676413505E+03  0.00000000000E+00 0. -1.
         23    2    1    2    0    0  0.14106823612E+03 -0.62809235407E+03  0.68739906487E+03  0.94636089633E+03  0.93173060669E+02 0.  0.
         13    1    3    3    0    0  0.79970175354E+02 -0.17993760262E+03  0.23585041254E+03  0.30724287930E+03  0.00000000000E+00 0. -1.
        -13    1    3    3    0    0  0.61098060768E+02 -0.44815475145E+03  0.45154865233E+03  0.63911801704E+03  0.00000000000E+00 0.  1.
         22    1    1    2    0    0 -0.14106823612E+03  0.62809235407E+03  0.10996581416E+04  0.12742245802E+04  0.00000000000E+00 0. -1.
<mgrwt>
<rscale>  0 0.13181147E+04</rscale>
<asrwt>0</asrwt>
<pdfrwt beam="1">  1        2 0.30828019E+00 0.13181147E+04</pdfrwt>
<pdfrwt beam="2">  1       -2 0.33348330E-01 0.13181147E+04</pdfrwt>
<totfact> 0.54725803E+01</totfact>
</mgrwt>
</event>
<event>
 6    1  0.5026615E-004  0.2318208E+04  0.7818608E-02  0.8470776E-01
         -2   -1    0    0    0  501 -0.00000000000E+00  0.00000000000E+00  0.56683639274E+03  0.56683639274E+03  0.00000000000E+00 0. -1.
          2   -1    0    0  501    0  0.00000000000E+00 -0.00000000000E+00 -0.23702119766E+04  0.23702119766E+04  0.00000000000E+00 0.  1.
         23    2    1    2    0    0 -0.11425253827E+04 -0.11447121151E+03 -0.10859159727E+04  0.15830852229E+04  0.92072878374E+02 0.  0.
         11    1    3    3    0    0 -0.85098421824E+03 -0.81594017060E+02 -0.75176421344E+03  0.11384116812E+04  0.00000000000E+00 0. -1.
        -11    1    3    3    0    0 -0.29154116442E+03 -0.32877194451E+02 -0.33415175924E+03  0.44467354168E+03  0.00000000000E+00 0.  1.
         22    1    1    2    0    0  0.11425253827E+04  0.11447121151E+03 -0.71745961119E+03  0.13539631465E+04  0.00000000000E+00 0. -1.
<mgrwt>
<rscale>  0 0.23182083E+04</rscale>
<asrwt>0</asrwt>
<pdfrwt beam="1">  1        2 0.36464800E+00 0.23182083E+04</pdfrwt>
<pdfrwt beam="2">  1       -2 0.87205599E-01 0.23182083E+04</pdfrwt>
<totfact> 0.42529803E+00</totfact>
</mgrwt>
</event>
<event>
 6    1  0.5026615E-004  0.1128035E+04  0.7818608E-02  0.9178290E-01
          2   -1    0    0  501    0  0.00000000000E+00  0.00000000000E+00  0.23474076633E+04  0.23474076633E+04  0.00000000000E+00 0.  1.
         -2   -1    0    0    0  501 -0.00000000000E+00 -0.00000000000E+00 -0.13551794557E+03  0.13551794557E+03  0.00000000000E+00 0. -1.
         23    2    1    2    0    0 -0.24565617145E+02  0.50731770376E+03  0.16338937052E+04  0.17134750824E+04  0.91725112027E+02 0.  0.
         11    1    3    3    0    0  0.18041883651E+02  0.22742656267E+02  0.11381542055E+03  0.11745930331E+03  0.00000000000E+00 0.  1.
        -11    1    3    3    0    0 -0.42607500796E+02  0.48457504750E+03  0.15200782847E+04  0.15960157791E+04  0.00000000000E+00 0. -1.
         22    1    1    2    0    0  0.24565617145E+02 -0.50731770376E+03  0.57799601251E+03  0.76945052640E+03  0.00000000000E+00 0.  1.
<mgrwt>
<rscale>  0 0.11280352E+04</rscale>
<asrwt>0</asrwt>
<pdfrwt beam="1">  1        2 0.36113961E+00 0.11280352E+04</pdfrwt>
<pdfrwt beam="2">  1       -2 0.20848916E-01 0.11280352E+04</pdfrwt>
<totfact> 0.84373266E+01</totfact>
</mgrwt>
</event>
<event>
 6    1  0.5026615E-004  0.2406693E+04  0.7818608E-02  0.8437002E-01
         -2   -1    0    0    0  501 -0.00000000000E+00  0.00000000000E+00  0.43192557759E+03  0.43192557759E+03  0.00000000000E+00 0. -1.
          2   -1    0    0  501    0  0.00000000000E+00 -0.00000000000E+00 -0.33525294062E+04  0.33525294062E+04  0.00000000000E+00 0.  1.
         23    2    1    2    0    0 -0.28478927782E+03  0.51385135532E+03 -0.31107045488E+04  0.31669710310E+04  0.89858627578E+02 0.  0.
         11    1    3    3    0    0 -0.21888352094E+03  0.44310793928E+03 -0.24636575305E+04  0.25127401516E+04  0.00000000000E+00 0.  1.
        -11    1    3    3    0    0 -0.65905756874E+02  0.70743416038E+02 -0.64704701831E+03  0.65423087943E+03  0.00000000000E+00 0. -1.
         22    1    1    2    0    0  0.28478927782E+03 -0.51385135532E+03  0.19010072021E+03  0.61748395279E+03  0.00000000000E+00 0. -1.
<mgrwt>
<rscale>  0 0.24066933E+04</rscale>
<asrwt>0</asrwt>
<pdfrwt beam="1">  1        2 0.51577378E+00 0.24066933E+04</pdfrwt>
<pdfrwt beam="2">  1       -2 0.66450086E-01 0.24066933E+04</pdfrwt>
<totfact> 0.19238899E+00</totfact>
</mgrwt>
</event>
<event>
 6    1  0.5026615E-004  0.2679345E+04  0.7818608E-02  0.8341738E-01
          2   -1    0    0  501    0  0.00000000000E+00  0.00000000000E+00  0.16030982421E+04  0.16030982421E+04  0.00000000000E+00 0.  1.
         -2   -1    0    0    0  501 -0.00000000000E+00 -0.00000000000E+00 -0.11195340307E+04  0.11195340307E+04  0.00000000000E+00 0. -1.
         23    2    1    2    0    0  0.11022530567E+04  0.73141954004E+03  0.36987043716E+02  0.13264347540E+04  0.90137509827E+02 0.  0.
         13    1    3    3    0    0  0.83740163733E+03  0.52328828058E+03  0.56079922340E+02  0.98904857539E+03  0.00000000000E+00 0.  1.
        -13    1    3    3    0    0  0.26485141939E+03  0.20813125946E+03 -0.19092878624E+02  0.33738617863E+03  0.00000000000E+00 0. -1.
         22    1    1    2    0    0 -0.11022530567E+04 -0.73141954004E+03  0.44657716774E+03  0.13961975187E+04  0.00000000000E+00 0.  1.
<mgrwt>
<rscale>  0 0.26793455E+04</rscale>
<asrwt>0</asrwt>
<pdfrwt beam="1">  1        2 0.24663050E+00 0.26793455E+04</pdfrwt>
<pdfrwt beam="2">  1       -2 0.17223600E+00 0.26793455E+04</pdfrwt>
<totfact> 0.20061265E+00</totfact>
</mgrwt>
</event>
<event>
 6    1  0.5026615E-004  0.2343383E+04  0.7818608E-02  0.8461010E-01
          2   -1    0    0  501    0  0.00000000000E+00  0.00000000000E+00  0.99570744063E+03  0.99570744063E+03  0.00000000000E+00 0.  1.
         -2   -1    0    0    0  501 -0.00000000000E+00 -0.00000000000E+00 -0.13787794957E+04  0.13787794957E+04  0.00000000000E+00 0. -1.
         23    2    1    2    0    0 -0.48178896367E+03  0.34063946949E+03  0.83157184630E+03  0.10241108180E+04  0.95579173481E+02 0.  0.
         13    1    3    3    0    0 -0.24860000514E+03  0.21538724569E+03  0.51976918804E+03  0.61510457404E+03  0.00000000000E+00 0.  1.
        -13    1    3    3    0    0 -0.23318895853E+03  0.12525222380E+03  0.31180265825E+03  0.40900624401E+03  0.00000000000E+00 0. -1.
         22    1    1    2    0    0  0.48178896367E+03 -0.34063946949E+03 -0.12146439014E+04  0.13503761183E+04  0.00000000000E+00 0. -1.
<mgrwt>
<rscale>  0 0.23433830E+04</rscale>
<asrwt>0</asrwt>
<pdfrwt beam="1">  1        2 0.15318576E+00 0.23433830E+04</pdfrwt>
<pdfrwt beam="2">  1       -2 0.21211992E+00 0.23433830E+04</pdfrwt>
<totfact> 0.25406950E+00</totfact>
</mgrwt>
</event>
<event>
 6    1  0.5026615E-004  0.3708863E+04  0.7818608E-02  0.8066001E-01
         -2   -1    0    0    0  501 -0.00000000000E+00  0.00000000000E+00  0.95315806307E+03  0.95315806307E+03  0.00000000000E+00 0. -1.
          2   -1    0    0  501    0  0.00000000000E+00 -0.00000000000E+00 -0.36079175306E+04  0.36079175306E+04  0.00000000000E+00 0.  1.
         23    2    1    2    0    0  0.59426341270E+03 -0.60317494563E+03 -0.33556344341E+04  0.34618964738E+04  0.86462256585E+02 0.  0.
         13    1    3    3    0    0  0.50630737191E+03 -0.55220490960E+03 -0.29836973507E+04  0.30763171647E+04  0.00000000000E+00 0. -1.
        -13    1    3    3    0    0  0.87956040784E+02 -0.50970036030E+02 -0.37193708333E+03  0.38557930915E+03  0.00000000000E+00 0.  1.
         22    1    1    2    0    0 -0.59426341270E+03  0.60317494563E+03  0.70087496655E+03  0.10991791198E+04  0.00000000000E+00 0. -1.
<mgrwt>
<rscale>  0 0.37088627E+04</rscale>
<asrwt>0</asrwt>
<pdfrwt beam="1">  1        2 0.55506424E+00 0.37088627E+04</pdfrwt>
<pdfrwt beam="2">  1       -2 0.14663970E+00 0.37088627E+04</pdfrwt>
<totfact> 0.17475416E-01</totfact>
</mgrwt>
</event>
<event>
 6    1  0.5026615E-004  0.3309289E+04  0.7818608E-02  0.8160536E-01
         -2   -1    0    0    0  501 -0.00000000000E+00  0.00000000000E+00  0.10956839870E+04  0.10956839870E+04  0.00000000000E+00 0. -1.
          2   -1    0    0  501    0  0.00000000000E+00 -0.00000000000E+00 -0.24987573908E+04  0.24987573908E+04  0.00000000000E+00 0.  1.
         23    2    1    2    0    0  0.84872856656E+03 -0.74333097378E+03 -0.20150011582E+04  0.23109552296E+04  0.86042367428E+02 0.  0.
         13    1    3    3    0    0  0.45515123663E+03 -0.43617813814E+03 -0.11895830194E+04  0.13462992894E+04  0.00000000000E+00 0.  1.
        -13    1    3    3    0    0  0.39357732993E+03 -0.30715283564E+03 -0.82541813881E+03  0.96465594020E+03  0.00000000000E+00 0. -1.
         22    1    1    2    0    0 -0.84872856656E+03  0.74333097378E+03  0.61192775441E+03  0.12834861483E+04  0.00000000000E+00 0. -1.
<mgrwt>
<rscale>  0 0.33092890E+04</rscale>
<asrwt>0</asrwt>
<pdfrwt beam="1">  1        2 0.38442421E+00 0.33092890E+04</pdfrwt>
<pdfrwt beam="2">  1       -2 0.16856677E+00 0.33092890E+04</pdfrwt>
<totfact> 0.63491790E-01</totfact>
</mgrwt>
</event>
<event>
 6    1  0.5026615E-004  0.3158055E+04  0.7818608E-02  0.8199983E-01
          2   -1    0    0  501    0  0.00000000000E+00  0.00000000000E+00  0.18779281939E+04  0.18779281939E+04  0.00000000000E+00 0.  1.
         -2   -1    0    0    0  501 -0.00000000000E+00 -0.00000000000E+00 -0.13277016828E+04  0.13277016828E+04  0.00000000000E+00 0. -1.
         23    2    1    2    0    0  0.73171219991E+03 -0.84836053927E+03  0.14027280680E+04  0.17978382541E+04  0.97252285853E+02 0.  0.
         13    1    3    3    0    0  0.36402024461E+03 -0.35227849289E+03  0.60620336830E+03  0.78999582200E+03  0.00000000000E+00 0. -1.
        -13    1    3    3    0    0  0.36769195530E+03 -0.49608204638E+03  0.79652469966E+03  0.10078424321E+04  0.00000000000E+00 0.  1.
         22    1    1    2    0    0 -0.73171219991E+03  0.84836053927E+03 -0.85250155695E+03  0.14077916226E+04  0.00000000000E+00 0. -1.
<mgrwt>
<rscale>  0 0.31580554E+04</rscale>
<asrwt>0</asrwt>
<pdfrwt beam="1">  1        2 0.28891203E+00 0.31580554E+04</pdfrwt>
<pdfrwt beam="2">  1       -2 0.20426180E+00 0.31580554E+04</pdfrwt>
<totfact> 0.82329042E-01</totfact>
</mgrwt>
</event>
<event>
 6    1  0.5026615E-004  0.8556660E+03  0.7818608E-02  0.9482764E-01
         -2   -1    0    0    0  501 -0.00000000000E+00  0.00000000000E+00  0.12849992329E+04  0.12849992329E+04  0.00000000000E+00 0. -1.
          2   -1    0    0  501    0  0.00000000000E+00 -0.00000000000E+00 -0.14244449564E+03  0.14244449564E+03  0.00000000000E+00 0.  1.
         23    2    1    2    0    0  0.34652109218E+03  0.10710623574E+02  0.98212462006E+03  0.10454366510E+04  0.90429183169E+02 0.  0.
         11    1    3    3    0    0  0.26315975639E+03  0.32842237569E+01  0.61594804358E+03  0.66981776319E+03  0.00000000000E+00 0. -1.
        -11    1    3    3    0    0  0.83361335797E+02  0.74263998167E+01  0.36617657648E+03  0.37561888782E+03  0.00000000000E+00 0.  1.
         22    1    1    2    0    0 -0.34652109218E+03 -0.10710623574E+02  0.16043011722E+03  0.38200707755E+03  0.00000000000E+00 0.  1.
<mgrwt>
<rscale>  0 0.85566598E+03</rscale>
<asrwt>0</asrwt>
<pdfrwt beam="1">  1        2 0.21914539E-01 0.85566598E+03</pdfrwt>
<pdfrwt beam="2">  1       -2 0.19769218E+00 0.85566598E+03</pdfrwt>
<totfact> 0.35507115E+01</totfact>
</mgrwt>
</event>
<event>
 6    1  0.5026615E-004  0.2276905E+04  0.7818608E-02  0.8487083E-01
         -2   -1    0    0    0  501 -0.00000000000E+00  0.00000000000E+00  0.18138485914E+04  0.18138485914E+04  0.00000000000E+00 0.  1.
          2   -1    0    0  501    0  0.00000000000E+00 -0.00000000000E+00 -0.71454363160E+03  0.71454363160E+03  0.00000000000E+00 0. -1.
         23    2    1    2    0    0 -0.27887453804E+03  0.10465220971E+04  0.93367746211E+03  0.14327590838E+04  0.89808023884E+02 0.  0.
         11    1    3    3    0    0 -0.21326853400E+03  0.87372670216E+03  0.73611526711E+03  0.11622166339E+04  0.00000000000E+00 0. -1.
        -11    1    3    3    0    0 -0.65606004044E+02  0.17279539497E+03  0.19756219500E+03  0.27054244987E+03  0.00000000000E+00 0.  1.
         22    1    1    2    0    0  0.27887453804E+03 -0.10465220971E+04  0.16562749767E+03  0.10956331392E+04  0.00000000000E+00 0.  1.
<mgrwt>
<rscale>  0 0.22769049E+04</rscale>
<asrwt>0</asrwt>
<pdfrwt beam="1">  1        2 0.10992979E+00 0.22769049E+04</pdfrwt>
<pdfrwt beam="2">  1       -2 0.27905363E+00 0.22769049E+04</pdfrwt>
<totfact> 0.15474155E+00</totfact>
</mgrwt>
</event>
<event>
 6    1  0.5026615E-004  0.1690572E+04  0.7818608E-02  0.8766760E-01
         -2   -1    0    0    0  501 -0.00000000000E+00  0.00000000000E+00  0.15660515860E+03  0.15660515860E+03  0.00000000000E+00 0. -1.
          2   -1    0    0  501    0  0.00000000000E+00 -0.00000000000E+00 -0.45624823397E+04  0.45624823397E+04  0.00000000000E+00 0.  1.
         23    2    1    2    0    0  0.61287726452E+03 -0.26031386713E+03 -0.76740488282E+03  0.10201873217E+04  0.92141556738E+02 0.  0.
         11    1    3    3    0    0  0.51200799372E+03 -0.18382953917E+03 -0.64911665008E+03  0.84693441926E+03  0.00000000000E+00 0.  1.
        -11    1    3    3    0    0  0.10086927080E+03 -0.76484327961E+02 -0.11828823273E+03  0.17325290248E+03  0.00000000000E+00 0. -1.
         22    1    1    2    0    0 -0.61287726452E+03  0.26031386713E+03 -0.36384722983E+04  0.36989001766E+04  0.00000000000E+00 0.  1.
<mgrwt>
<rscale>  0 0.16905718E+04</rscale>
<asrwt>0</asrwt>
<pdfrwt beam="1">  1        2 0.70192027E+00 0.16905718E+04</pdfrwt>
<pdfrwt beam="2">  1       -2 0.24093104E-01 0.16905718E+04</pdfrwt>
<totfact> 0.16028895E+00</totfact>
</mgrwt>
</event>
<event>
 6    1  0.5026615E-004  0.1178826E+04  0.7818608E-02  0.9131595E-01
         -2   -1    0    0    0  501 -0.00000000000E+00  0.00000000000E+00  0.34942978048E+03  0.34942978048E+03  0.00000000000E+00 0. -1.
          2   -1    0    0  501    0  0.00000000000E+00 -0.00000000000E+00 -0.99421246661E+03  0.99421246661E+03  0.00000000000E+00 0.  1.
         23    2    1    2    0    0 -0.23155590362E+03 -0.47863893403E+03 -0.43764163706E+02  0.54118562523E+03  0.90847197297E+02 0.  0.
         11    1    3    3    0    0 -0.14195741575E+02 -0.36690562967E+02  0.20737736611E+02  0.44472128457E+02  0.00000000000E+00 0. -1.
        -11    1    3    3    0    0 -0.21736016205E+03 -0.44194837106E+03 -0.64501900317E+02  0.49671349677E+03  0.00000000000E+00 0.  1.
         22    1    1    2    0    0  0.23155590362E+03  0.47863893403E+03 -0.60101852243E+03  0.80245662186E+03  0.00000000000E+00 0.  1.
<mgrwt>
<rscale>  0 0.11788256E+04</rscale>
<asrwt>0</asrwt>
<pdfrwt beam="1">  1        2 0.15295577E+00 0.11788256E+04</pdfrwt>
<pdfrwt beam="2">  1       -2 0.53758427E-01 0.11788256E+04</pdfrwt>
<totfact> 0.81831319E+01</totfact>
</mgrwt>
</event>
<event>
 6    1  0.5026615E-004  0.3367925E+04  0.7818608E-02  0.8145824E-01
          2   -1    0    0  501    0  0.00000000000E+00  0.00000000000E+00  0.14227204485E+04  0.14227204485E+04  0.00000000000E+00 0.  1.
         -2   -1    0    0    0  501 -0.00000000000E+00 -0.00000000000E+00 -0.19931739061E+04  0.19931739061E+04  0.00000000000E+00 0. -1.
         23    2    1    2    0    0 -0.27930737656E+03 -0.15249027256E+04 -0.94806761835E+03  0.18202962261E+04  0.10632595474E+03 0.  0.
         13    1    3    3    0    0 -0.56056067957E+02 -0.59123638477E+03 -0.35609660875E+03  0.69246482957E+03  0.00000000000E+00 0.  1.
        -13    1    3    3    0    0 -0.22325130860E+03 -0.93366634086E+03 -0.59197100960E+03  0.11278313966E+04  0.00000000000E+00 0. -1.
         22    1    1    2    0    0  0.27930737656E+03  0.15249027256E+04  0.37761416081E+03  0.15955981285E+04  0.00000000000E+00 0.  1.
<mgrwt>
<rscale>  0 0.33679247E+04</rscale>
<asrwt>0</asrwt>
<pdfrwt beam="1">  1        2 0.21888007E+00 0.33679247E+04</pdfrwt>
<pdfrwt beam="2">  1       -2 0.30664214E+00 0.33679247E+04</pdfrwt>
<totfact> 0.33751385E-01</totfact>
</mgrwt>
</event>
<event>
 6    1  0.5026615E-004  0.2629760E+04  0.7818608E-02  0.8358162E-01
          2   -1    0    0  501    0  0.00000000000E+00  0.00000000000E+00  0.28325117486E+04  0.28325117486E+04  0.00000000000E+00 0.  1.
         -2   -1    0    0    0  501 -0.00000000000E+00 -0.00000000000E+00 -0.61038015452E+03  0.61038015452E+03  0.00000000000E+00 0. -1.
         23    2    1    2    0    0 -0.83102481433E+03 -0.91421816063E+03  0.16949469548E+04  0.20996418403E+04  0.96195586166E+02 0.  0.
         13    1    3    3    0    0 -0.72627119844E+03 -0.74687284838E+03  0.14285283059E+04  0.17680446900E+04  0.00000000000E+00 0. -1.
        -13    1    3    3    0    0 -0.10475361588E+03 -0.16734531226E+03  0.26641864896E+03  0.33159715030E+03  0.00000000000E+00 0.  1.
         22    1    1    2    0    0  0.83102481433E+03  0.91421816063E+03  0.52718463922E+03  0.13432500628E+04  0.00000000000E+00 0. -1.
<mgrwt>
<rscale>  0 0.26297597E+04</rscale>
<asrwt>0</asrwt>
<pdfrwt beam="1">  1        2 0.43577103E+00 0.26297597E+04</pdfrwt>
<pdfrwt beam="2">  1       -2 0.93904641E-01 0.26297597E+04</pdfrwt>
<totfact> 0.18666746E+00</totfact>
</mgrwt>
</event>
<event>
 6    1  0.5026615E-004  0.1924831E+04  0.7818608E-02  0.8642594E-01
          1   -1    0    0  501    0  0.00000000000E+00  0.00000000000E+00  0.26405999055E+04  0.26405999055E+04  0.00000000000E+00 0.  1.
         -1   -1    0    0    0  501 -0.00000000000E+00 -0.00000000000E+00 -0.35076997010E+03  0.35076997010E+03  0.00000000000E+00 0. -1.
         23    2    1    2    0    0 -0.33226316041E+03 -0.31053126554E+03 -0.16676364896E+03  0.49303432700E+03  0.91892645756E+02 0.  0.
         13    1    3    3    0    0 -0.20135002919E+02 -0.36673693709E+02 -0.42417099596E+02  0.59578423032E+02  0.00000000000E+00 0.  1.
        -13    1    3    3    0    0 -0.31212815749E+03 -0.27385757183E+03 -0.12434654937E+03  0.43345590397E+03  0.00000000000E+00 0. -1.
         22    1    1    2    0    0  0.33226316041E+03  0.31053126554E+03  0.24565935844E+04  0.24983355486E+04  0.00000000000E+00 0.  1.
<mgrwt>
<rscale>  0 0.19248305E+04</rscale>
<asrwt>0</asrwt>
<pdfrwt beam="1">  1        1 0.40624613E+00 0.19248305E+04</pdfrwt>
<pdfrwt beam="2">  1       -1 0.53964613E-01 0.19248305E+04</pdfrwt>
<totfact> 0.35011208E+00</totfact>
</mgrwt>
</event>
<event>
 6    1  0.5026615E-004  0.1891614E+04  0.7818608E-02  0.8659042E-01
         -2   -1    0    0    0  501 -0.00000000000E+00  0.00000000000E+00  0.14196872072E+04  0.14196872072E+04  0.00000000000E+00 0. -1.
          2   -1    0    0  501    0  0.00000000000E+00 -0.00000000000E+00 -0.63010393229E+03  0.63010393229E+03  0.00000000000E+00 0.  1.
         23    2    1    2    0    0 -0.85359034553E+03 -0.46783404614E+02  0.82863169230E+03  0.11940283548E+04  0.90928903799E+02 0.  0.
         13    1    3    3    0    0 -0.37375032137E+03  0.18140988135E+02  0.32893518737E+03  0.49821356431E+03  0.00000000000E+00 0. -1.
        -13    1    3    3    0    0 -0.47984002416E+03 -0.64924392750E+02  0.49969650493E+03  0.69581479044E+03  0.00000000000E+00 0.  1.
         22    1    1    2    0    0  0.85359034553E+03  0.46783404614E+02 -0.39048417340E+02  0.85576278478E+03  0.00000000000E+00 0. -1.
<mgrwt>
<rscale>  0 0.18916136E+04</rscale>
<asrwt>0</asrwt>
<pdfrwt beam="1">  1        2 0.96939067E-01 0.18916136E+04</pdfrwt>
<pdfrwt beam="2">  1       -2 0.21841342E+00 0.18916136E+04</pdfrwt>
<totfact> 0.44263232E+00</totfact>
</mgrwt>
</event>
<event>
 6    1  0.5026615E-004  0.2666894E+04  0.7818608E-02  0.8345827E-01
          2   -1    0    0  501    0  0.00000000000E+00  0.00000000000E+00  0.22133981397E+04  0.22133981397E+04  0.00000000000E+00 0.  1.
         -2   -1    0    0    0  501 -0.00000000000E+00 -0.00000000000E+00 -0.80332621765E+03  0.80332621765E+03  0.00000000000E+00 0. -1.
         23    2    1    2    0    0 -0.18879031039E+03  0.13078317482E+04  0.51648678215E+03  0.14215566341E+04  0.89437156331E+02 0.  0.
         11    1    3    3    0    0 -0.13293207329E+03  0.61442144984E+03  0.23572457821E+03  0.67137972184E+03  0.00000000000E+00 0.  1.
        -11    1    3    3    0    0 -0.55858237092E+02  0.69341029838E+03  0.28076220394E+03  0.75017691228E+03  0.00000000000E+00 0. -1.
         22    1    1    2    0    0  0.18879031039E+03 -0.13078317482E+04  0.89358513990E+03  0.15951677232E+04  0.00000000000E+00 0.  1.
<mgrwt>
<rscale>  0 0.26668939E+04</rscale>
<asrwt>0</asrwt>
<pdfrwt beam="1">  1        2 0.34052279E+00 0.26668939E+04</pdfrwt>
<pdfrwt beam="2">  1       -2 0.12358865E+00 0.26668939E+04</pdfrwt>
<totfact> 0.22021966E+00</totfact>
</mgrwt>
</event>
<event>
 6    1  0.5026615E-004  0.3951815E+04  0.7818608E-02  0.8014338E-01
         -2   -1    0    0    0  501 -0.00000000000E+00  0.00000000000E+00  0.87539967911E+03  0.87539967911E+03  0.00000000000E+00 0. -1.
          2   -1    0    0  501    0  0.00000000000E+00 -0.00000000000E+00 -0.44599183194E+04  0.44599183194E+04  0.00000000000E+00 0.  1.
         23    2    1    2    0    0 -0.22608987717E+03 -0.10502985992E+04 -0.40304071772E+04  0.41721067678E+04  0.89716706357E+02 0.  0.
         13    1    3    3    0    0 -0.16587452187E+02 -0.25772703404E+03 -0.94964370360E+03  0.98413491526E+03  0.00000000000E+00 0.  1.
        -13    1    3    3    0    0 -0.20950242499E+03 -0.79257156514E+03 -0.30807634736E+04  0.31879718525E+04  0.00000000000E+00 0. -1.
         22    1    1    2    0    0  0.22608987717E+03  0.10502985992E+04  0.44588853692E+03  0.11632112308E+04  0.00000000000E+00 0. -1.
<mgrwt>
<rscale>  0 0.39518153E+04</rscale>
<asrwt>0</asrwt>
<pdfrwt beam="1">  1        2 0.68614128E+00 0.39518153E+04</pdfrwt>
<pdfrwt beam="2">  1       -2 0.13467687E+00 0.39518153E+04</pdfrwt>
<totfact> 0.42036245E-02</totfact>
</mgrwt>
</event>
<event>
 6    1  0.5026615E-004  0.1027314E+04  0.7818608E-02  0.9279084E-01
         -2   -1    0    0    0  501 -0.00000000000E+00  0.00000000000E+00  0.22907015757E+03  0.22907015757E+03  0.00000000000E+00 0. -1.
          2   -1    0    0  501    0  0.00000000000E+00 -0.00000000000E+00 -0.11518026920E+04  0.11518026920E+04  0.00000000000E+00 0.  1.
         23    2    1    2    0    0 -0.42492516237E+03 -0.20613076354E+03 -0.20808772389E+03  0.52426997162E+03  0.92234576060E+02 0.  0.
         11    1    3    3    0    0 -0.30875314842E+03 -0.15923515900E+03 -0.10763133907E+03  0.36368784372E+03  0.00000000000E+00 0. -1.
        -11    1    3    3    0    0 -0.11617201395E+03 -0.46895604547E+02 -0.10045638483E+03  0.16058212791E+03  0.00000000000E+00 0.  1.
         22    1    1    2    0    0  0.42492516237E+03  0.20613076354E+03 -0.71464481056E+03  0.85660287797E+03  0.00000000000E+00 0.  1.
<mgrwt>
<rscale>  0 0.10273142E+04</rscale>
<asrwt>0</asrwt>
<pdfrwt beam="1">  1        2 0.17720041E+00 0.10273142E+04</pdfrwt>
<pdfrwt beam="2">  1       -2 0.35241563E-01 0.10273142E+04</pdfrwt>
<totfact> 0.15246003E+02</totfact>
</mgrwt>
</event>
<event>
 6    1  0.5026615E-004  0.2626881E+04  0.7818608E-02  0.8359127E-01
          1   -1    0    0  501    0  0.00000000000E+00  0.00000000000E+00  0.15358552388E+04  0.15358552388E+04  0.00000000000E+00 0.  1.
         -1   -1    0    0    0  501 -0.00000000000E+00 -0.00000000000E+00 -0.11232345924E+04  0.11232345924E+04  0.00000000000E+00 0. -1.
         23    2    1    2    0    0 -0.54560943942E+03  0.44332663109E+03  0.13277242413E+04  0.15051215684E+04  0.91165302982E+02 0.  0.
         11    1    3    3    0    0 -0.22300552846E+03  0.20159069636E+03  0.65823756116E+03  0.72363454969E+03  0.00000000000E+00 0. -1.
        -11    1    3    3    0    0 -0.32260391096E+03  0.24173593473E+03  0.66948668015E+03  0.78148701870E+03  0.00000000000E+00 0.  1.
         22    1    1    2    0    0  0.54560943942E+03 -0.44332663109E+03 -0.91510359487E+03  0.11539682628E+04  0.00000000000E+00 0. -1.
<mgrwt>
<rscale>  0 0.26268808E+04</rscale>
<asrwt>0</asrwt>
<pdfrwt beam="1">  1        1 0.23628542E+00 0.26268808E+04</pdfrwt>
<pdfrwt beam="2">  1       -1 0.17280532E+00 0.26268808E+04</pdfrwt>
<totfact> 0.12740738E+00</totfact>
</mgrwt>
</event>
<event>
 6    1  0.5026615E-004  0.2588376E+04  0.7818608E-02  0.8372160E-01
          1   -1    0    0  501    0  0.00000000000E+00  0.00000000000E+00  0.21007007971E+04  0.21007007971E+04  0.00000000000E+00 0.  1.
         -1   -1    0    0    0  501 -0.00000000000E+00 -0.00000000000E+00 -0.79731592764E+03  0.79731592764E+03  0.00000000000E+00 0. -1.
         23    2    1    2    0    0  0.64963211057E+03  0.10161999772E+04  0.11728674617E+04  0.16848724355E+04  0.92156218138E+02 0.  0.
         13    1    3    3    0    0  0.34358219911E+03  0.60210736933E+03  0.63183345545E+03  0.93797416125E+03  0.00000000000E+00 0. -1.
        -13    1    3    3    0    0  0.30604991146E+03  0.41409260785E+03  0.54103400628E+03  0.74689827428E+03  0.00000000000E+00 0.  1.
         22    1    1    2    0    0 -0.64963211057E+03 -0.10161999772E+04  0.13051740772E+03  0.12131442892E+04  0.00000000000E+00 0.  1.
<mgrwt>
<rscale>  0 0.25883757E+04</rscale>
<asrwt>0</asrwt>
<pdfrwt beam="1">  1        1 0.32318474E+00 0.25883757E+04</pdfrwt>
<pdfrwt beam="2">  1       -1 0.12266399E+00 0.25883757E+04</pdfrwt>
<totfact> 0.13159500E+00</totfact>
</mgrwt>
</event>
<event>
 6    1  0.5026615E-004  0.2360292E+04  0.7818608E-02  0.8454521E-01
         -2   -1    0    0    0  501 -0.00000000000E+00  0.00000000000E+00  0.35630476374E+03  0.35630476374E+03  0.00000000000E+00 0. -1.
          2   -1    0    0  501    0  0.00000000000E+00 -0.00000000000E+00 -0.39088580447E+04  0.39088580447E+04  0.00000000000E+00 0.  1.
         23    2    1    2    0    0 -0.16515304751E+03  0.53686082598E+03 -0.36508749477E+04  0.36949328322E+04  0.90253394397E+02 0.  0.
         13    1    3    3    0    0 -0.77872851623E+02  0.35988411143E+03 -0.21794996137E+04  0.22103844283E+04  0.00000000000E+00 0.  1.
        -13    1    3    3    0    0 -0.87280195883E+02  0.17697671456E+03 -0.14713753340E+04  0.14845484040E+04  0.00000000000E+00 0. -1.
         22    1    1    2    0    0  0.16515304751E+03 -0.53686082598E+03  0.98321666790E+02  0.57022997618E+03  0.00000000000E+00 0. -1.
<mgrwt>
<rscale>  0 0.23602921E+04</rscale>
<asrwt>0</asrwt>
<pdfrwt beam="1">  1        2 0.60136279E+00 0.23602921E+04</pdfrwt>
<pdfrwt beam="2">  1       -2 0.54816116E-01 0.23602921E+04</pdfrwt>
<totfact> 0.11476869E+00</totfact>
</mgrwt>
</event>
<event>
 6    1  0.5026615E-004  0.4500987E+03  0.7818608E-02  0.1027693E+00
         -2   -1    0    0    0  501 -0.00000000000E+00  0.00000000000E+00  0.45255426441E+02  0.45255426441E+02  0.00000000000E+00 0.  1.
          2   -1    0    0  501    0  0.00000000000E+00 -0.00000000000E+00 -0.11191412156E+04  0.11191412156E+04  0.00000000000E+00 0. -1.
         23    2    1    2    0    0 -0.24014692918E+02  0.17362076738E+03 -0.23290260081E+03  0.30534274418E+03  0.90937855814E+02 0.  0.
         13    1    3    3    0    0 -0.52936191456E+02  0.71368162072E+02 -0.82970669475E+02  0.12157214696E+03  0.00000000000E+00 0. -1.
        -13    1    3    3    0    0  0.28921498538E+02  0.10225260531E+03 -0.14993193134E+03  0.18377059722E+03  0.00000000000E+00 0.  1.
         22    1    1    2    0    0  0.24014692918E+02 -0.17362076738E+03 -0.84098318837E+03  0.85905389788E+03  0.00000000000E+00 0. -1.
<mgrwt>
<rscale>  0 0.45009871E+03</rscale>
<asrwt>0</asrwt>
<pdfrwt beam="1">  1        2 0.17217558E+00 0.45009871E+03</pdfrwt>
<pdfrwt beam="2">  1       -2 0.69623731E-02 0.45009871E+03</pdfrwt>
<totfact> 0.26197565E+03</totfact>
</mgrwt>
</event>
<event>
 6    1  0.5026615E-004  0.1602745E+04  0.7818608E-02  0.8818864E-01
          2   -1    0    0  501    0  0.00000000000E+00  0.00000000000E+00  0.21951709227E+04  0.21951709227E+04  0.00000000000E+00 0.  1.
         -2   -1    0    0    0  501 -0.00000000000E+00 -0.00000000000E+00 -0.29255015765E+03  0.29255015765E+03  0.00000000000E+00 0. -1.
         23    2    1    2    0    0  0.25390754080E+03 -0.74481306355E+03  0.11694300685E+04  0.14121820822E+04  0.86463919706E+02 0.  0.
         13    1    3    3    0    0  0.84535068647E+02 -0.27246731458E+03  0.35288996647E+03  0.45377962028E+03  0.00000000000E+00 0. -1.
        -13    1    3    3    0    0  0.16937247215E+03 -0.47234574897E+03  0.81654010199E+03  0.95840246194E+03  0.00000000000E+00 0.  1.
         22    1    1    2    0    0 -0.25390754080E+03  0.74481306355E+03  0.73319069654E+03  0.10755389981E+04  0.00000000000E+00 0. -1.
<mgrwt>
<rscale>  0 0.16027446E+04</rscale>
<asrwt>0</asrwt>
<pdfrwt beam="1">  1        2 0.33771859E+00 0.16027446E+04</pdfrwt>
<pdfrwt beam="2">  1       -2 0.45007718E-01 0.16027446E+04</pdfrwt>
<totfact> 0.23340038E+01</totfact>
</mgrwt>
</event>
<event>
 6    1  0.5026615E-004  0.2451587E+04  0.7818608E-02  0.8420439E-01
         -2   -1    0    0    0  501 -0.00000000000E+00  0.00000000000E+00  0.90135557613E+03  0.90135557613E+03  0.00000000000E+00 0. -1.
          2   -1    0    0  501    0  0.00000000000E+00 -0.00000000000E+00 -0.16670110209E+04  0.16670110209E+04  0.00000000000E+00 0.  1.
         23    2    1    2    0    0  0.11271973587E+04 -0.44166789404E+03 -0.19333356206E+03  0.12292636318E+04  0.89815344425E+02 0.  0.
         13    1    3    3    0    0  0.83876846142E+03 -0.30486917727E+03 -0.10901288594E+03  0.89908929280E+03  0.00000000000E+00 0. -1.
        -13    1    3    3    0    0  0.28842889729E+03 -0.13679871678E+03 -0.84320676126E+02  0.33017433899E+03  0.00000000000E+00 0.  1.
         22    1    1    2    0    0 -0.11271973587E+04  0.44166789404E+03 -0.57232188271E+03  0.13391029653E+04  0.00000000000E+00 0.  1.
<mgrwt>
<rscale>  0 0.24515870E+04</rscale>
<asrwt>0</asrwt>
<pdfrwt beam="1">  1        2 0.25646323E+00 0.24515870E+04</pdfrwt>
<pdfrwt beam="2">  1       -2 0.13867009E+00 0.24515870E+04</pdfrwt>
<totfact> 0.33734085E+00</totfact>
</mgrwt>
</event>
<event>
 6    1  0.5026615E-004  0.1854093E+04  0.7818608E-02  0.8678051E-01
         -2   -1    0    0    0  501 -0.00000000000E+00  0.00000000000E+00  0.45579741603E+03  0.45579741603E+03  0.00000000000E+00 0.  1.
          2   -1    0    0  501    0  0.00000000000E+00 -0.00000000000E+00 -0.18855199157E+04  0.18855199157E+04  0.00000000000E+00 0. -1.
         23    2    1    2    0    0  0.11427874642E+03 -0.42091276732E+03  0.31324499769E+03  0.54460842752E+03  0.90822470649E+02 0.  0.
         13    1    3    3    0    0  0.82618956611E+02 -0.14745551107E+03  0.13875246338E+03  0.21868073951E+03  0.00000000000E+00 0. -1.
        -13    1    3    3    0    0  0.31659789808E+02 -0.27345725625E+03  0.17449253431E+03  0.32592768802E+03  0.00000000000E+00 0.  1.
         22    1    1    2    0    0 -0.11427874642E+03  0.42091276732E+03 -0.17429674974E+04  0.17967089042E+04  0.00000000000E+00 0. -1.
<mgrwt>
<rscale>  0 0.18540929E+04</rscale>
<asrwt>0</asrwt>
<pdfrwt beam="1">  1        2 0.29007999E+00 0.18540929E+04</pdfrwt>
<pdfrwt beam="2">  1       -2 0.70122679E-01 0.18540929E+04</pdfrwt>
<totfact> 0.13463593E+01</totfact>
</mgrwt>
</event>
<event>
 6    1  0.5026615E-004  0.3007462E+04  0.7818608E-02  0.8241603E-01
          2   -1    0    0  501    0  0.00000000000E+00  0.00000000000E+00  0.20265947538E+04  0.20265947538E+04  0.00000000000E+00 0.  1.
         -2   -1    0    0    0  501 -0.00000000000E+00 -0.00000000000E+00 -0.11157663705E+04  0.11157663705E+04  0.00000000000E+00 0. -1.
         23    2    1    2    0    0 -0.41909023425E+02 -0.64419127909E+03  0.18732697408E+04  0.19834684903E+04  0.90933822283E+02 0.  0.
         13    1    3    3    0    0 -0.32731058072E+02 -0.82788439565E+02  0.21418461762E+03  0.23194891315E+03  0.00000000000E+00 0.  1.
        -13    1    3    3    0    0 -0.91779653527E+01 -0.56140283953E+03  0.16590851232E+04  0.17515195772E+04  0.00000000000E+00 0. -1.
         22    1    1    2    0    0  0.41909023425E+02  0.64419127909E+03 -0.96244135752E+03  0.11588926339E+04  0.00000000000E+00 0. -1.
<mgrwt>
<rscale>  0 0.30074616E+04</rscale>
<asrwt>0</asrwt>
<pdfrwt beam="1">  1        2 0.31178381E+00 0.30074616E+04</pdfrwt>
<pdfrwt beam="2">  1       -2 0.17165637E+00 0.30074616E+04</pdfrwt>
<totfact> 0.11460001E+00</totfact>
</mgrwt>
</event>
<event>
 6    1  0.5026615E-004  0.5179517E+04  0.7818608E-02  0.7801396E-01
          2   -1    0    0  501    0  0.00000000000E+00  0.00000000000E+00  0.37272805005E+04  0.37272805005E+04  0.00000000000E+00 0.  1.
         -2   -1    0    0    0  501 -0.00000000000E+00 -0.00000000000E+00 -0.17993947966E+04  0.17993947966E+04  0.00000000000E+00 0. -1.
         23    2    1    2    0    0  0.14067512954E+03 -0.34691162149E+03  0.36976762367E+04  0.37177265153E+04  0.92432275642E+02 0.  0.
         13    1    3    3    0    0  0.91156371094E+02 -0.10820681710E+03  0.12858469958E+04  0.12936076282E+04  0.00000000000E+00 0. -1.
        -13    1    3    3    0    0  0.49518758445E+02 -0.23870480438E+03  0.24118292410E+04  0.24241188871E+04  0.00000000000E+00 0.  1.
         22    1    1    2    0    0 -0.14067512954E+03  0.34691162149E+03 -0.17697905328E+04  0.18089487818E+04  0.00000000000E+00 0. -1.
<mgrwt>
<rscale>  0 0.51795170E+04</rscale>
<asrwt>0</asrwt>
<pdfrwt beam="1">  1        2 0.57342777E+00 0.51795170E+04</pdfrwt>
<pdfrwt beam="2">  1       -2 0.27682997E+00 0.51795170E+04</pdfrwt>
<totfact> 0.17551710E-02</totfact>
</mgrwt>
</event>
<event>
 6    1  0.5026615E-004  0.4635982E+04  0.7818608E-02  0.7887253E-01
          2   -1    0    0  501    0  0.00000000000E+00  0.00000000000E+00  0.33378763735E+04  0.33378763735E+04  0.00000000000E+00 0.  1.
         -2   -1    0    0    0  501 -0.00000000000E+00 -0.00000000000E+00 -0.16097306051E+04  0.16097306051E+04  0.00000000000E+00 0. -1.
         23    2    1    2    0    0  0.87516562309E+03  0.20598063254E+04  0.22297294819E+03  0.22505229635E+04  0.80123079582E+02 0.  0.
         11    1    3    3    0    0  0.67420042660E+03  0.16304756380E+04  0.20376637629E+03  0.17760962129E+04  0.00000000000E+00 0. -1.
        -11    1    3    3    0    0  0.20096519649E+03  0.42933068733E+03  0.19206571899E+02  0.47442675061E+03  0.00000000000E+00 0.  1.
         22    1    1    2    0    0 -0.87516562309E+03 -0.20598063254E+04  0.15051728202E+04  0.26970840151E+04  0.00000000000E+00 0.  1.
<mgrwt>
<rscale>  0 0.46359818E+04</rscale>
<asrwt>0</asrwt>
<pdfrwt beam="1">  1        2 0.51351944E+00 0.46359818E+04</pdfrwt>
<pdfrwt beam="2">  1       -2 0.24765086E+00 0.46359818E+04</pdfrwt>
<totfact> 0.52238540E-02</totfact>
</mgrwt>
</event>
<event>
 6    1  0.5026615E-004  0.1479011E+04  0.7818608E-02  0.8898532E-01
         -4   -1    0    0    0  501 -0.00000000000E+00  0.00000000000E+00  0.20209511976E+04  0.20209511976E+04  0.00000000000E+00 0. -1.
          4   -1    0    0  501    0  0.00000000000E+00 -0.00000000000E+00 -0.27059947525E+03  0.27059947525E+03  0.00000000000E+00 0.  1.
         23    2    1    2    0    0 -0.66972511960E+03 -0.11185081008E+02  0.13519394817E+04  0.15121989196E+04  0.10172693013E+03 0.  0.
         13    1    3    3    0    0 -0.18205783048E+03  0.24609912991E+02  0.29329375120E+03  0.34608080841E+03  0.00000000000E+00 0.  1.
        -13    1    3    3    0    0 -0.48766728912E+03 -0.35794993999E+02  0.10586457305E+04  0.11661181112E+04  0.00000000000E+00 0. -1.
         22    1    1    2    0    0  0.66972511960E+03  0.11185081008E+02  0.39841224068E+03  0.77935175331E+03  0.00000000000E+00 0. -1.
<mgrwt>
<rscale>  0 0.14790109E+04</rscale>
<asrwt>0</asrwt>
<pdfrwt beam="1">  1        4 0.41630690E-01 0.14790109E+04</pdfrwt>
<pdfrwt beam="2">  1       -4 0.31091556E+00 0.14790109E+04</pdfrwt>
<totfact> 0.28949242E-01</totfact>
</mgrwt>
</event>
<event>
 6    1  0.5026615E-004  0.3827508E+04  0.7818608E-02  0.8040277E-01
         -2   -1    0    0    0  501 -0.00000000000E+00  0.00000000000E+00  0.15572098429E+04  0.15572098429E+04  0.00000000000E+00 0. -1.
          2   -1    0    0  501    0  0.00000000000E+00 -0.00000000000E+00 -0.23519338015E+04  0.23519338015E+04  0.00000000000E+00 0.  1.
         23    2    1    2    0    0  0.40389210351E+03  0.12306097328E+04 -0.18350215697E+04  0.22478946368E+04  0.90537234568E+02 0.  0.
         13    1    3    3    0    0  0.21173002563E+03  0.78473619950E+03 -0.11570400765E+04  0.14139951362E+04  0.00000000000E+00 0. -1.
        -13    1    3    3    0    0  0.19216207788E+03  0.44587353332E+03 -0.67798149318E+03  0.83389950053E+03  0.00000000000E+00 0.  1.
         22    1    1    2    0    0 -0.40389210351E+03 -0.12306097328E+04  0.10402976111E+04  0.16612490077E+04  0.00000000000E+00 0. -1.
<mgrwt>
<rscale>  0 0.38275080E+04</rscale>
<asrwt>0</asrwt>
<pdfrwt beam="1">  1        2 0.36183597E+00 0.38275080E+04</pdfrwt>
<pdfrwt beam="2">  1       -2 0.23957075E+00 0.38275080E+04</pdfrwt>
<totfact> 0.25254190E-01</totfact>
</mgrwt>
</event>
<event>
 6    1  0.5026615E-004  0.9706078E+03  0.7818608E-02  0.9341382E-01
          2   -1    0    0  501    0  0.00000000000E+00  0.00000000000E+00  0.68860624278E+03  0.68860624278E+03  0.00000000000E+00 0.  1.
         -2   -1    0    0    0  501 -0.00000000000E+00 -0.00000000000E+00 -0.34202404278E+03  0.34202404278E+03  0.00000000000E+00 0. -1.
         23    2    1    2    0    0 -0.11495441130E+03 -0.43178420593E+03  0.35830686120E+03  0.58365200326E+03  0.11231089418E+03 0.  0.
         13    1    3    3    0    0 -0.12232768656E+03 -0.38874074908E+03  0.28151810416E+03  0.49531391649E+03  0.00000000000E+00 0. -1.
        -13    1    3    3    0    0  0.73732752626E+01 -0.43043456845E+02  0.76788757040E+02  0.88338086764E+02  0.00000000000E+00 0.  1.
         22    1    1    2    0    0  0.11495441130E+03  0.43178420593E+03 -0.11724661199E+02  0.44697828230E+03  0.00000000000E+00 0. -1.
<mgrwt>
<rscale>  0 0.97060783E+03</rscale>
<asrwt>0</asrwt>
<pdfrwt beam="1">  1        2 0.10593942E+00 0.97060783E+03</pdfrwt>
<pdfrwt beam="2">  1       -2 0.52619084E-01 0.97060783E+03</pdfrwt>
<totfact> 0.14256903E+02</totfact>
</mgrwt>
</event>
<event>
 6    1  0.5026615E-004  0.4063903E+04  0.7818608E-02  0.7991778E-01
         -2   -1    0    0    0  501 -0.00000000000E+00  0.00000000000E+00  0.14166656349E+04  0.14166656349E+04  0.00000000000E+00 0. -1.
          2   -1    0    0  501    0  0.00000000000E+00 -0.00000000000E+00 -0.29144686283E+04  0.29144686283E+04  0.00000000000E+00 0.  1.
         23    2    1    2    0    0  0.88039948662E+03  0.11702920300E+04 -0.22489027476E+04  0.26852796123E+04  0.92067021384E+02 0.  0.
         13    1    3    3    0    0  0.56977993620E+03  0.70645004452E+03 -0.14514830055E+04  0.17118772609E+04  0.00000000000E+00 0.  1.
        -13    1    3    3    0    0  0.31061955041E+03  0.46384198546E+03 -0.79741974212E+03  0.97340235140E+03  0.00000000000E+00 0. -1.
         22    1    1    2    0    0 -0.88039948662E+03 -0.11702920300E+04  0.75109975416E+03  0.16458546510E+04  0.00000000000E+00 0. -1.
<mgrwt>
<rscale>  0 0.40639033E+04</rscale>
<asrwt>0</asrwt>
<pdfrwt beam="1">  1        2 0.44837979E+00 0.40639033E+04</pdfrwt>
<pdfrwt beam="2">  1       -2 0.21794856E+00 0.40639033E+04</pdfrwt>
<totfact> 0.15725083E-01</totfact>
</mgrwt>
</event>
<event>
 6    1  0.5026615E-004  0.1745679E+04  0.7818608E-02  0.8735732E-01
         -2   -1    0    0    0  501 -0.00000000000E+00  0.00000000000E+00  0.20381781483E+03  0.20381781483E+03  0.00000000000E+00 0. -1.
          2   -1    0    0  501    0  0.00000000000E+00 -0.00000000000E+00 -0.37378923487E+04  0.37378923487E+04  0.00000000000E+00 0.  1.
         23    2    1    2    0    0 -0.74887678970E+03 -0.44350079227E+03 -0.18009157658E+04  0.20022904787E+04  0.91433945585E+02 0.  0.
         11    1    3    3    0    0 -0.54931381709E+03 -0.34577048268E+03 -0.12558252345E+04  0.14136477341E+04  0.00000000000E+00 0. -1.
        -11    1    3    3    0    0 -0.19956297261E+03 -0.97730309587E+02 -0.54509053129E+03  0.58864274458E+03  0.00000000000E+00 0.  1.
         22    1    1    2    0    0  0.74887678970E+03  0.44350079227E+03 -0.17331587681E+04  0.19394196849E+04  0.00000000000E+00 0.  1.
<mgrwt>
<rscale>  0 0.17456793E+04</rscale>
<asrwt>0</asrwt>
<pdfrwt beam="1">  1        2 0.57506032E+00 0.17456793E+04</pdfrwt>
<pdfrwt beam="2">  1       -2 0.31356589E-01 0.17456793E+04</pdfrwt>
<totfact> 0.49554018E+00</totfact>
</mgrwt>
</event>
<event>
 6    1  0.5026615E-004  0.3458635E+04  0.7818608E-02  0.8123663E-01
          2   -1    0    0  501    0  0.00000000000E+00  0.00000000000E+00  0.20923034197E+04  0.20923034197E+04  0.00000000000E+00 0.  1.
         -2   -1    0    0    0  501 -0.00000000000E+00 -0.00000000000E+00 -0.14293049118E+04  0.14293049118E+04  0.00000000000E+00 0. -1.
         23    2    1    2    0    0  0.74282012813E+03 -0.15575517721E+04  0.42648530751E+03  0.17798598538E+04  0.90896183667E+02 0.  0.
         11    1    3    3    0    0  0.51631618611E+03 -0.10116324936E+04  0.24906967974E+03  0.11627632654E+04  0.00000000000E+00 0. -1.
        -11    1    3    3    0    0  0.22650394203E+03 -0.54591927856E+03  0.17741562776E+03  0.61709658841E+03  0.00000000000E+00 0.  1.
         22    1    1    2    0    0 -0.74282012813E+03  0.15575517721E+04  0.23651320039E+03  0.17417484777E+04  0.00000000000E+00 0. -1.
<mgrwt>
<rscale>  0 0.34586353E+04</rscale>
<asrwt>0</asrwt>
<pdfrwt beam="1">  1        2 0.32189283E+00 0.34586353E+04</pdfrwt>
<pdfrwt beam="2">  1       -2 0.21989306E+00 0.34586353E+04</pdfrwt>
<totfact> 0.48436568E-01</totfact>
</mgrwt>
</event>
<event>
 6    1  0.5026615E-004  0.2783033E+04  0.7818608E-02  0.8308555E-01
          2   -1    0    0  501    0  0.00000000000E+00  0.00000000000E+00  0.21419009236E+04  0.21419009236E+04  0.00000000000E+00 0.  1.
         -2   -1    0    0    0  501 -0.00000000000E+00 -0.00000000000E+00 -0.90401885226E+03  0.90401885226E+03  0.00000000000E+00 0. -1.
         23    2    1    2    0    0 -0.30052766433E+02  0.55638109722E+03 -0.77407815468E+03  0.95823037242E+03  0.92441132366E+02 0.  0.
         11    1    3    3    0    0 -0.16875898905E+02  0.94120086068E+02 -0.19477409558E+03  0.21698003336E+03  0.00000000000E+00 0. -1.
        -11    1    3    3    0    0 -0.13176867527E+02  0.46226101115E+03 -0.57930405910E+03  0.74125033906E+03  0.00000000000E+00 0.  1.
         22    1    1    2    0    0  0.30052766433E+02 -0.55638109722E+03  0.20119602261E+04  0.20876894035E+04  0.00000000000E+00 0.  1.
<mgrwt>
<rscale>  0 0.27830335E+04</rscale>
<asrwt>0</asrwt>
<pdfrwt beam="1">  1        2 0.32952322E+00 0.27830335E+04</pdfrwt>
<pdfrwt beam="2">  1       -2 0.13907982E+00 0.27830335E+04</pdfrwt>
<totfact> 0.17722928E+00</totfact>
</mgrwt>
</event>
<event>
 6    1  0.5026615E-004  0.3800047E+04  0.7818608E-02  0.8046145E-01
         -2   -1    0    0    0  501 -0.00000000000E+00  0.00000000000E+00  0.19734060472E+04  0.19734060472E+04  0.00000000000E+00 0. -1.
          2   -1    0    0  501    0  0.00000000000E+00 -0.00000000000E+00 -0.18293694155E+04  0.18293694155E+04  0.00000000000E+00 0.  1.
         23    2    1    2    0    0  0.16620762036E+04 -0.83738182687E+03 -0.30532205870E+03  0.18881922539E+04  0.91338917268E+02 0.  0.
         11    1    3    3    0    0  0.59304341304E+03 -0.34521412124E+03 -0.97383800272E+02  0.69307783387E+03  0.00000000000E+00 0.  1.
        -11    1    3    3    0    0  0.10690327905E+04 -0.49216770563E+03 -0.20793825843E+03  0.11951144200E+04  0.00000000000E+00 0. -1.
         22    1    1    2    0    0 -0.16620762036E+04  0.83738182687E+03  0.44935869042E+03  0.19145832087E+04  0.00000000000E+00 0. -1.
<mgrwt>
<rscale>  0 0.38000467E+04</rscale>
<asrwt>0</asrwt>
<pdfrwt beam="1">  1        2 0.28144145E+00 0.38000467E+04</pdfrwt>
<pdfrwt beam="2">  1       -2 0.30360093E+00 0.38000467E+04</pdfrwt>
<totfact> 0.20129750E-01</totfact>
</mgrwt>
</event>
<event>
 6    1  0.5026615E-004  0.3121929E+03  0.7818608E-02  0.1079299E+00
          1   -1    0    0  501    0  0.00000000000E+00  0.00000000000E+00  0.38644906976E+02  0.38644906976E+02  0.00000000000E+00 0. -1.
         -1   -1    0    0    0  501 -0.00000000000E+00 -0.00000000000E+00 -0.63051275387E+03  0.63051275387E+03  0.00000000000E+00 0.  1.
         23    2    1    2    0    0 -0.43381671359E+02 -0.77188259657E+02 -0.56117727780E+03  0.57544582664E+03  0.91531226594E+02 0.  0.
         11    1    3    3    0    0 -0.59983819185E+02 -0.66348376359E+02 -0.28846261153E+03  0.30201133068E+03  0.00000000000E+00 0.  1.
        -11    1    3    3    0    0  0.16602147825E+02 -0.10839883298E+02 -0.27271466626E+03  0.27343449595E+03  0.00000000000E+00 0. -1.
         22    1    1    2    0    0  0.43381671359E+02  0.77188259657E+02 -0.30690569095E+02  0.93711834205E+02  0.00000000000E+00 0. -1.
<mgrwt>
<rscale>  0 0.31219293E+03</rscale>
<asrwt>0</asrwt>
<pdfrwt beam="1">  1        1 0.59453705E-02 0.31219293E+03</pdfrwt>
<pdfrwt beam="2">  1       -1 0.97001959E-01 0.31219293E+03</pdfrwt>
<totfact> 0.14142042E+03</totfact>
</mgrwt>
</event>
<event>
 6    1  0.5026615E-004  0.3377952E+04  0.7818608E-02  0.8143339E-01
         -1   -1    0    0    0  501 -0.00000000000E+00  0.00000000000E+00  0.10623804731E+04  0.10623804731E+04  0.00000000000E+00 0. -1.
          1   -1    0    0  501    0  0.00000000000E+00 -0.00000000000E+00 -0.26851404012E+04  0.26851404012E+04  0.00000000000E+00 0.  1.
         23    2    1    2    0    0  0.47064170404E+03  0.88008606931E+03 -0.23218407145E+04  0.25290098777E+04  0.94295042385E+02 0.  0.
         11    1    3    3    0    0  0.12879674775E+03  0.20698339208E+03 -0.66522173257E+03  0.70848477775E+03  0.00000000000E+00 0.  1.
        -11    1    3    3    0    0  0.34184495629E+03  0.67310267723E+03 -0.16566189819E+04  0.18205250999E+04  0.00000000000E+00 0. -1.
         22    1    1    2    0    0 -0.47064170404E+03 -0.88008606931E+03  0.69908078645E+03  0.12185109966E+04  0.00000000000E+00 0. -1.
<mgrwt>
<rscale>  0 0.33779525E+04</rscale>
<asrwt>0</asrwt>
<pdfrwt beam="1">  1        1 0.41309852E+00 0.33779525E+04</pdfrwt>
<pdfrwt beam="2">  1       -1 0.16344315E+00 0.33779525E+04</pdfrwt>
<totfact> 0.22800849E-01</totfact>
</mgrwt>
</event>
<event>
 6    1  0.5026615E-004  0.2608113E+04  0.7818608E-02  0.8365451E-01
         -2   -1    0    0    0  501 -0.00000000000E+00  0.00000000000E+00  0.39918525429E+03  0.39918525429E+03  0.00000000000E+00 0. -1.
          2   -1    0    0  501    0  0.00000000000E+00 -0.00000000000E+00 -0.42600848160E+04  0.42600848160E+04  0.00000000000E+00 0.  1.
         23    2    1    2    0    0 -0.63348399988E+03  0.12546825953E+03 -0.39534203877E+04  0.40068864672E+04  0.92531815649E+02 0.  0.
         11    1    3    3    0    0 -0.81463480599E+02 -0.46493298947E+01 -0.65487434405E+03  0.65993811940E+03  0.00000000000E+00 0.  1.
        -11    1    3    3    0    0 -0.55202051928E+03  0.13011758943E+03 -0.32985460437E+04  0.33469483478E+04  0.00000000000E+00 0. -1.
         22    1    1    2    0    0  0.63348399988E+03 -0.12546825953E+03  0.92520826038E+02  0.65238360304E+03  0.00000000000E+00 0. -1.
<mgrwt>
<rscale>  0 0.26081128E+04</rscale>
<asrwt>0</asrwt>
<pdfrwt beam="1">  1        2 0.65539767E+00 0.26081128E+04</pdfrwt>
<pdfrwt beam="2">  1       -2 0.61413115E-01 0.26081128E+04</pdfrwt>
<totfact> 0.45020556E-01</totfact>
</mgrwt>
</event>
<event>
 6    1  0.5026615E-004  0.3222567E+04  0.7818608E-02  0.8182882E-01
          2   -1    0    0  501    0  0.00000000000E+00  0.00000000000E+00  0.23505242625E+04  0.23505242625E+04  0.00000000000E+00 0. -1.
         -2   -1    0    0    0  501 -0.00000000000E+00 -0.00000000000E+00 -0.11045345177E+04  0.11045345177E+04  0.00000000000E+00 0.  1.
         23    2    1    2    0    0  0.33854938855E+03 -0.39175346127E+03  0.22577991510E+04  0.23184653007E+04  0.97662077597E+02 0.  0.
         13    1    3    3    0    0  0.22626268421E+03 -0.31330617207E+03  0.17767450436E+04  0.18182899960E+04  0.00000000000E+00 0.  1.
        -13    1    3    3    0    0  0.11228670434E+03 -0.78447289203E+02  0.48105410748E+03  0.50017530475E+03  0.00000000000E+00 0. -1.
         22    1    1    2    0    0 -0.33854938855E+03  0.39175346127E+03 -0.10118094063E+04  0.11365934795E+04  0.00000000000E+00 0.  1.
<mgrwt>
<rscale>  0 0.32225674E+04</rscale>
<asrwt>0</asrwt>
<pdfrwt beam="1">  1        2 0.36161911E+00 0.32225674E+04</pdfrwt>
<pdfrwt beam="2">  1       -2 0.16992839E+00 0.32225674E+04</pdfrwt>
<totfact> 0.76094509E-01</totfact>
</mgrwt>
</event>
<event>
 6    1  0.5026615E-004  0.3449750E+03  0.7818608E-02  0.1064697E+00
          1   -1    0    0  501    0  0.00000000000E+00  0.00000000000E+00  0.30319815565E+03  0.30319815565E+03  0.00000000000E+00 0.  1.
         -1   -1    0    0    0  501 -0.00000000000E+00 -0.00000000000E+00 -0.98127020828E+02  0.98127020828E+02  0.00000000000E+00 0. -1.
         23    2    1    2    0    0  0.11219140030E+03  0.34362945503E+02 -0.17547067970E+02  0.14967743351E+03  0.91256299422E+02 0.  0.
         11    1    3    3    0    0  0.10880334564E+03  0.11281666155E+02  0.14174547173E+02  0.11030123210E+03  0.00000000000E+00 0. -1.
        -11    1    3    3    0    0  0.33880546552E+01  0.23081279349E+02 -0.31721615143E+02  0.39376201417E+02  0.00000000000E+00 0.  1.
         22    1    1    2    0    0 -0.11219140030E+03 -0.34362945503E+02  0.22261820280E+03  0.25164774297E+03  0.00000000000E+00 0.  1.
<mgrwt>
<rscale>  0 0.34497497E+03</rscale>
<asrwt>0</asrwt>
<pdfrwt beam="1">  1        1 0.46645870E-01 0.34497497E+03</pdfrwt>
<pdfrwt beam="2">  1       -1 0.15096465E-01 0.34497497E+03</pdfrwt>
<totfact> 0.27572307E+03</totfact>
</mgrwt>
</event>
<event>
 6    1  0.5026615E-004  0.4416265E+04  0.7818608E-02  0.7925462E-01
         -1   -1    0    0    0  501 -0.00000000000E+00  0.00000000000E+00  0.17596411313E+04  0.17596411313E+04  0.00000000000E+00 0. -1.
          1   -1    0    0  501    0  0.00000000000E+00 -0.00000000000E+00 -0.27709341267E+04  0.27709341267E+04  0.00000000000E+00 0.  1.
         23    2    1    2    0    0 -0.67751366055E+03 -0.15119600848E+04 -0.20019896718E+04  0.26001535521E+04  0.88248457814E+02 0.  0.
         11    1    3    3    0    0 -0.24788558378E+03 -0.65929279273E+03 -0.85689931797E+03  0.11092297735E+04  0.00000000000E+00 0. -1.
        -11    1    3    3    0    0 -0.42962807678E+03 -0.85266729205E+03 -0.11450903538E+04  0.14909237786E+04  0.00000000000E+00 0.  1.
         22    1    1    2    0    0  0.67751366055E+03  0.15119600848E+04  0.99069667640E+03  0.19304217060E+04  0.00000000000E+00 0. -1.
<mgrwt>
<rscale>  0 0.44162652E+04</rscale>
<asrwt>0</asrwt>
<pdfrwt beam="1">  1        1 0.42629756E+00 0.44162652E+04</pdfrwt>
<pdfrwt beam="2">  1       -1 0.27071402E+00 0.44162652E+04</pdfrwt>
<totfact> 0.33804748E-02</totfact>
</mgrwt>
</event>
<event>
 6    1  0.5026615E-004  0.8631060E+03  0.7818608E-02  0.9472913E-01
          1   -1    0    0  501    0  0.00000000000E+00  0.00000000000E+00  0.48738176592E+03  0.48738176592E+03  0.00000000000E+00 0.  1.
         -1   -1    0    0    0  501 -0.00000000000E+00 -0.00000000000E+00 -0.38211935205E+03  0.38211935205E+03  0.00000000000E+00 0. -1.
         23    2    1    2    0    0  0.38496983283E+03  0.15238710779E+03  0.15681078136E+03  0.45227116099E+03  0.92390362611E+02 0.  0.
         13    1    3    3    0    0  0.15006463326E+03  0.69808828637E+02  0.11049749866E+03  0.19900342690E+03  0.00000000000E+00 0.  1.
        -13    1    3    3    0    0  0.23490519957E+03  0.82578279153E+02  0.46313282704E+02  0.25326773409E+03  0.00000000000E+00 0. -1.
         22    1    1    2    0    0 -0.38496983283E+03 -0.15238710779E+03 -0.51548367498E+02  0.41722995698E+03  0.00000000000E+00 0. -1.
<mgrwt>
<rscale>  0 0.86310603E+03</rscale>
<asrwt>0</asrwt>
<pdfrwt beam="1">  1        1 0.74981811E-01 0.86310603E+03</pdfrwt>
<pdfrwt beam="2">  1       -1 0.58787592E-01 0.86310603E+03</pdfrwt>
<totfact> 0.13595006E+02</totfact>
</mgrwt>
</event>
<event>
 6    1  0.5026615E-004  0.1532407E+04  0.7818608E-02  0.8863184E-01
          2   -1    0    0  501    0  0.00000000000E+00  0.00000000000E+00  0.24133193611E+04  0.24133193611E+04  0.00000000000E+00 0.  1.
         -2   -1    0    0    0  501 -0.00000000000E+00 -0.00000000000E+00 -0.24326168092E+03  0.24326168092E+03  0.00000000000E+00 0. -1.
         23    2    1    2    0    0 -0.69948351069E+02 -0.56454489967E+03  0.19716252751E+04  0.20541035446E+04  0.91822823242E+02 0.  0.
         11    1    3    3    0    0 -0.64416003464E+02 -0.19386946304E+03  0.63781206368E+03  0.66973055685E+03  0.00000000000E+00 0. -1.
        -11    1    3    3    0    0 -0.55323476052E+01 -0.37067543663E+03  0.13338132115E+04  0.13843729878E+04  0.00000000000E+00 0.  1.
         22    1    1    2    0    0  0.69948351069E+02  0.56454489967E+03  0.19843240510E+03  0.60247749746E+03  0.00000000000E+00 0. -1.
<mgrwt>
<rscale>  0 0.15324074E+04</rscale>
<asrwt>0</asrwt>
<pdfrwt beam="1">  1        2 0.37127989E+00 0.15324074E+04</pdfrwt>
<pdfrwt beam="2">  1       -2 0.37424876E-01 0.15324074E+04</pdfrwt>
<totfact> 0.25401327E+01</totfact>
</mgrwt>
</event>
<event>
 6    1  0.5026615E-004  0.3045379E+04  0.7818608E-02  0.8230890E-01
          2   -1    0    0  501    0  0.00000000000E+00  0.00000000000E+00  0.29935107661E+04  0.29935107661E+04  0.00000000000E+00 0.  1.
         -2   -1    0    0    0  501 -0.00000000000E+00 -0.00000000000E+00 -0.77453667710E+03  0.77453667710E+03  0.00000000000E+00 0. -1.
         23    2    1    2    0    0  0.37941962245E+03 -0.10947865772E+04 -0.10932380794E+03  0.11673767612E+04  0.91103830722E+02 0.  0.
         13    1    3    3    0    0  0.25380431188E+03 -0.67272462640E+03 -0.27878999744E+02  0.71955006102E+03  0.00000000000E+00 0. -1.
        -13    1    3    3    0    0  0.12561531057E+03 -0.42206195080E+03 -0.81444808197E+02  0.44782670013E+03  0.00000000000E+00 0.  1.
         22    1    1    2    0    0 -0.37941962245E+03  0.10947865772E+04  0.23282978969E+04  0.26006706820E+04  0.00000000000E+00 0.  1.
<mgrwt>
<rscale>  0 0.30453794E+04</rscale>
<asrwt>0</asrwt>
<pdfrwt beam="1">  1        2 0.46054011E+00 0.30453794E+04</pdfrwt>
<pdfrwt beam="2">  1       -2 0.11915949E+00 0.30453794E+04</pdfrwt>
<totfact> 0.80944164E-01</totfact>
</mgrwt>
</event>
<event>
 6    1  0.5026615E-004  0.4967051E+04  0.7818608E-02  0.7833610E-01
          2   -1    0    0  501    0  0.00000000000E+00  0.00000000000E+00  0.24978913677E+04  0.24978913677E+04  0.00000000000E+00 0.  1.
         -2   -1    0    0    0  501 -0.00000000000E+00 -0.00000000000E+00 -0.24692421311E+04  0.24692421311E+04  0.00000000000E+00 0. -1.
         23    2    1    2    0    0  0.45930803275E+03  0.21455662591E+03  0.24447254879E+04  0.24984450076E+04  0.92446362798E+02 0.  0.
         13    1    3    3    0    0  0.42767069396E+03  0.19120874836E+03  0.21077589582E+04  0.21591921715E+04  0.00000000000E+00 0.  1.
        -13    1    3    3    0    0  0.31637338791E+02  0.23347877547E+02  0.33696652974E+03  0.33925283604E+03  0.00000000000E+00 0. -1.
         22    1    1    2    0    0 -0.45930803275E+03 -0.21455662591E+03 -0.24160762513E+04  0.24686884912E+04  0.00000000000E+00 0. -1.
<mgrwt>
<rscale>  0 0.49670509E+04</rscale>
<asrwt>0</asrwt>
<pdfrwt beam="1">  1        2 0.38429098E+00 0.49670509E+04</pdfrwt>
<pdfrwt beam="2">  1       -2 0.37988341E+00 0.49670509E+04</pdfrwt>
<totfact> 0.25565254E-02</totfact>
</mgrwt>
</event>
<event>
 6    1  0.5026615E-004  0.1465129E+04  0.7818608E-02  0.8907979E-01
         -1   -1    0    0    0  501 -0.00000000000E+00  0.00000000000E+00  0.11911280961E+04  0.11911280961E+04  0.00000000000E+00 0. -1.
          1   -1    0    0  501    0  0.00000000000E+00 -0.00000000000E+00 -0.45053970432E+03  0.45053970432E+03  0.00000000000E+00 0.  1.
         23    2    1    2    0    0 -0.48286100856E+03  0.44339472540E+03  0.12192508182E+02  0.66171157724E+03  0.89218373066E+02 0.  0.
         11    1    3    3    0    0 -0.56311589535E+02  0.79817697689E+02 -0.22230435526E+02  0.10018009904E+03  0.00000000000E+00 0. -1.
        -11    1    3    3    0    0 -0.42654941903E+03  0.36357702771E+03  0.34422943708E+02  0.56153147819E+03  0.00000000000E+00 0.  1.
         22    1    1    2    0    0  0.48286100856E+03 -0.44339472540E+03  0.72839588355E+03  0.97995622314E+03  0.00000000000E+00 0.  1.
<mgrwt>
<rscale>  0 0.14651287E+04</rscale>
<asrwt>0</asrwt>
<pdfrwt beam="1">  1        1 0.69313802E-01 0.14651287E+04</pdfrwt>
<pdfrwt beam="2">  1       -1 0.18325047E+00 0.14651287E+04</pdfrwt>
<totfact> 0.97801700E+00</totfact>
</mgrwt>
</event>
<event>
 6    1  0.5026615E-004  0.2549801E+04  0.7818608E-02  0.8385455E-01
         -2   -1    0    0    0  501 -0.00000000000E+00  0.00000000000E+00  0.12057193048E+04  0.12057193048E+04  0.00000000000E+00 0. -1.
          2   -1    0    0  501    0  0.00000000000E+00 -0.00000000000E+00 -0.13480514854E+04  0.13480514854E+04  0.00000000000E+00 0.  1.
         23    2    1    2    0    0 -0.31465020133E+03  0.13558566816E+03  0.11569821047E+04  0.12100424566E+04  0.90592127734E+02 0.  0.
         13    1    3    3    0    0 -0.14925311175E+03  0.10307836878E+03  0.69462362784E+03  0.71791616908E+03  0.00000000000E+00 0.  1.
        -13    1    3    3    0    0 -0.16539708958E+03  0.32507299378E+02  0.46235847682E+03  0.49212628749E+03  0.00000000000E+00 0. -1.
         22    1    1    2    0    0  0.31465020133E+03 -0.13558566816E+03 -0.12993142853E+04  0.13437283336E+04  0.00000000000E+00 0.  1.
<mgrwt>
<rscale>  0 0.25498013E+04</rscale>
<asrwt>0</asrwt>
<pdfrwt beam="1">  1        2 0.20739254E+00 0.25498013E+04</pdfrwt>
<pdfrwt beam="2">  1       -2 0.18549528E+00 0.25498013E+04</pdfrwt>
<totfact> 0.22894399E+00</totfact>
</mgrwt>
</event>
<event>
 6    1  0.5026615E-004  0.2989912E+04  0.7818608E-02  0.8246617E-01
          2   -1    0    0  501    0  0.00000000000E+00  0.00000000000E+00  0.12218509013E+04  0.12218509013E+04  0.00000000000E+00 0.  1.
         -2   -1    0    0    0  501 -0.00000000000E+00 -0.00000000000E+00 -0.18291050775E+04  0.18291050775E+04  0.00000000000E+00 0. -1.
         23    2    1    2    0    0 -0.13534470758E+04 -0.18142096147E+03 -0.92129429762E+03  0.16497587228E+04  0.90488168329E+02 0.  0.
         11    1    3    3    0    0 -0.62731640413E+03 -0.46005570657E+02 -0.45351757296E+03  0.77544862654E+03  0.00000000000E+00 0. -1.
        -11    1    3    3    0    0 -0.72613067163E+03 -0.13541539082E+03 -0.46777672466E+03  0.87431009630E+03  0.00000000000E+00 0.  1.
         22    1    1    2    0    0  0.13534470758E+04  0.18142096147E+03  0.31404012146E+03  0.14011972559E+04  0.00000000000E+00 0.  1.
<mgrwt>
<rscale>  0 0.29899122E+04</rscale>
<asrwt>0</asrwt>
<pdfrwt beam="1">  1        2 0.18797706E+00 0.29899122E+04</pdfrwt>
<pdfrwt beam="2">  1       -2 0.28140078E+00 0.29899122E+04</pdfrwt>
<totfact> 0.65020564E-01</totfact>
</mgrwt>
</event>
<event>
 6    1  0.5026615E-004  0.3460781E+04  0.7818608E-02  0.8123148E-01
          2   -1    0    0  501    0  0.00000000000E+00  0.00000000000E+00  0.13861430627E+04  0.13861430627E+04  0.00000000000E+00 0.  1.
         -2   -1    0    0    0  501 -0.00000000000E+00 -0.00000000000E+00 -0.21601313600E+04  0.21601313600E+04  0.00000000000E+00 0. -1.
         23    2    1    2    0    0  0.16453719648E+04 -0.13961411696E+03 -0.91343545571E+03  0.18891122356E+04  0.87405394294E+02 0.  0.
         11    1    3    3    0    0  0.50070973644E+03 -0.75541736973E+01 -0.25395600202E+03  0.56148103856E+03  0.00000000000E+00 0. -1.
        -11    1    3    3    0    0  0.11446622283E+04 -0.13205994326E+03 -0.65947945370E+03  0.13276311971E+04  0.00000000000E+00 0.  1.
         22    1    1    2    0    0 -0.16453719648E+04  0.13961411696E+03  0.13944715837E+03  0.16571621870E+04  0.00000000000E+00 0.  1.
<mgrwt>
<rscale>  0 0.34607809E+04</rscale>
<asrwt>0</asrwt>
<pdfrwt beam="1">  1        2 0.21325278E+00 0.34607809E+04</pdfrwt>
<pdfrwt beam="2">  1       -2 0.33232790E+00 0.34607809E+04</pdfrwt>
<totfact> 0.24385385E-01</totfact>
</mgrwt>
</event>
<event>
 6    1  0.5026615E-004  0.1558290E+04  0.7818608E-02  0.8846590E-01
          1   -1    0    0  501    0  0.00000000000E+00  0.00000000000E+00  0.16955402721E+04  0.16955402721E+04  0.00000000000E+00 0. -1.
         -1   -1    0    0    0  501 -0.00000000000E+00 -0.00000000000E+00 -0.35803743664E+03  0.35803743664E+03  0.00000000000E+00 0.  1.
         23    2    1    2    0    0 -0.16504140975E+03  0.71143953611E+03  0.10187314498E+04  0.12567087881E+04  0.90101779576E+02 0.  0.
         13    1    3    3    0    0 -0.16225763012E+03  0.69186278713E+03  0.95771666972E+03  0.11925698614E+04  0.00000000000E+00 0.  1.
        -13    1    3    3    0    0 -0.27837796303E+01  0.19576748974E+02  0.61014780083E+02  0.64138926698E+02  0.00000000000E+00 0. -1.
         22    1    1    2    0    0  0.16504140975E+03 -0.71143953611E+03  0.31877138567E+03  0.79686892071E+03  0.00000000000E+00 0.  1.
<mgrwt>
<rscale>  0 0.15582900E+04</rscale>
<asrwt>0</asrwt>
<pdfrwt beam="1">  1        1 0.26085234E+00 0.15582900E+04</pdfrwt>
<pdfrwt beam="2">  1       -1 0.55082684E-01 0.15582900E+04</pdfrwt>
<totfact> 0.15394568E+01</totfact>
</mgrwt>
</event>
<event>
 6    1  0.5026615E-004  0.6080091E+04  0.7818608E-02  0.7680550E-01
         -2   -1    0    0    0  501 -0.00000000000E+00  0.00000000000E+00  0.21549818452E+04  0.21549818452E+04  0.00000000000E+00 0. -1.
          2   -1    0    0  501    0  0.00000000000E+00 -0.00000000000E+00 -0.42886104820E+04  0.42886104820E+04  0.00000000000E+00 0.  1.
         23    2    1    2    0    0 -0.96366639575E+03 -0.17761208653E+04 -0.34731286882E+04  0.40192328987E+04  0.91389051596E+02 0.  0.
         13    1    3    3    0    0 -0.47963644780E+03 -0.95479289140E+03 -0.18963544958E+04  0.21766582096E+04  0.00000000000E+00 0. -1.
        -13    1    3    3    0    0 -0.48402994795E+03 -0.82132797394E+03 -0.15767741924E+04  0.18425746891E+04  0.00000000000E+00 0.  1.
         22    1    1    2    0    0  0.96366639575E+03  0.17761208653E+04  0.13395000515E+04  0.24243594285E+04  0.00000000000E+00 0. -1.
<mgrwt>
<rscale>  0 0.60800914E+04</rscale>
<asrwt>0</asrwt>
<pdfrwt beam="1">  1        2 0.65978622E+00 0.60800914E+04</pdfrwt>
<pdfrwt beam="2">  1       -2 0.33153567E+00 0.60800914E+04</pdfrwt>
<totfact> 0.26153062E-03</totfact>
</mgrwt>
</event>
<event>
 6    1  0.5026615E-004  0.1740351E+04  0.7818608E-02  0.8738680E-01
          2   -1    0    0  501    0  0.00000000000E+00  0.00000000000E+00  0.13192795504E+04  0.13192795504E+04  0.00000000000E+00 0.  1.
         -2   -1    0    0    0  501 -0.00000000000E+00 -0.00000000000E+00 -0.57395358073E+03  0.57395358073E+03  0.00000000000E+00 0. -1.
         23    2    1    2    0    0 -0.70043624676E+03 -0.28999235261E+03  0.83352523538E+03  0.11300256817E+04  0.86528740346E+02 0.  0.
         13    1    3    3    0    0 -0.32624961302E+03 -0.17713559205E+03  0.37796359120E+03  0.52978514913E+03  0.00000000000E+00 0. -1.
        -13    1    3    3    0    0 -0.37418663374E+03 -0.11285676056E+03  0.45556164419E+03  0.60024053256E+03  0.00000000000E+00 0.  1.
         22    1    1    2    0    0  0.70043624676E+03  0.28999235261E+03 -0.88199265756E+02  0.76320744940E+03  0.00000000000E+00 0. -1.
<mgrwt>
<rscale>  0 0.17403508E+04</rscale>
<asrwt>0</asrwt>
<pdfrwt beam="1">  1        2 0.20296608E+00 0.17403508E+04</pdfrwt>
<pdfrwt beam="2">  1       -2 0.88300551E-01 0.17403508E+04</pdfrwt>
<totfact> 0.16875428E+01</totfact>
</mgrwt>
</event>
<event>
 6    1  0.5026615E-004  0.2036592E+04  0.7818608E-02  0.8589701E-01
          1   -1    0    0  501    0  0.00000000000E+00  0.00000000000E+00  0.13481409768E+04  0.13481409768E+04  0.00000000000E+00 0.  1.
         -1   -1    0    0    0  501 -0.00000000000E+00 -0.00000000000E+00 -0.76915334906E+03  0.76915334906E+03  0.00000000000E+00 0. -1.
         23    2    1    2    0    0  0.98752698938E+03  0.20392325962E+03  0.15865377358E+03  0.10248316036E+04  0.91184128227E+02 0.  0.
         13    1    3    3    0    0  0.40318826369E+03  0.63697649275E+02  0.23331909408E+02  0.40885516322E+03  0.00000000000E+00 0.  1.
        -13    1    3    3    0    0  0.58433872570E+03  0.14022561034E+03  0.13532186417E+03  0.61597644035E+03  0.00000000000E+00 0. -1.
         22    1    1    2    0    0 -0.98752698938E+03 -0.20392325962E+03  0.42033385412E+03  0.10924627222E+04  0.00000000000E+00 0. -1.
<mgrwt>
<rscale>  0 0.20365924E+04</rscale>
<asrwt>0</asrwt>
<pdfrwt beam="1">  1        1 0.20740630E+00 0.20365924E+04</pdfrwt>
<pdfrwt beam="2">  1       -1 0.11833128E+00 0.20365924E+04</pdfrwt>
<totfact> 0.49523452E+00</totfact>
</mgrwt>
</event>
<event>
 6    1  0.5026615E-004  0.1990393E+04  0.7818608E-02  0.8611125E-01
          2   -1    0    0  501    0  0.00000000000E+00  0.00000000000E+00  0.15156782176E+04  0.15156782176E+04  0.00000000000E+00 0.  1.
         -2   -1    0    0    0  501 -0.00000000000E+00 -0.00000000000E+00 -0.65344774147E+03  0.65344774147E+03  0.00000000000E+00 0. -1.
         23    2    1    2    0    0  0.73159251477E+03 -0.54201637022E+01  0.11639437625E+04  0.13777424282E+04  0.90289149042E+02 0.  0.
         11    1    3    3    0    0  0.24974891327E+03 -0.11744929175E+02  0.32230401607E+03  0.40791217415E+03  0.00000000000E+00 0. -1.
        -11    1    3    3    0    0  0.48184360150E+03  0.63247654733E+01  0.84163974641E+03  0.96983025406E+03  0.00000000000E+00 0.  1.
         22    1    1    2    0    0 -0.73159251477E+03  0.54201637022E+01 -0.30171328631E+03  0.79138353090E+03  0.00000000000E+00 0. -1.
<mgrwt>
<rscale>  0 0.19903934E+04</rscale>
<asrwt>0</asrwt>
<pdfrwt beam="1">  1        2 0.23318126E+00 0.19903934E+04</pdfrwt>
<pdfrwt beam="2">  1       -2 0.10053042E+00 0.19903934E+04</pdfrwt>
<totfact> 0.94338393E+00</totfact>
</mgrwt>
</event>
<event>
 6    1  0.5026615E-004  0.1004262E+04  0.7818608E-02  0.9303882E-01
         -1   -1    0    0    0  501 -0.00000000000E+00  0.00000000000E+00  0.22152881228E+03  0.22152881228E+03  0.00000000000E+00 0.  1.
          1   -1    0    0  501    0  0.00000000000E+00 -0.00000000000E+00 -0.11381624481E+04  0.11381624481E+04  0.00000000000E+00 0. -1.
         23    2    1    2    0    0  0.16375141876E+03 -0.17842432299E+03 -0.10512502410E+04  0.10826147428E+04  0.90982667799E+02 0.  0.
         13    1    3    3    0    0  0.96116904073E+01 -0.65264617276E+02 -0.22141541998E+03  0.23103385697E+03  0.00000000000E+00 0.  1.
        -13    1    3    3    0    0  0.15413972836E+03 -0.11315970572E+03 -0.82983482103E+03  0.85158088579E+03  0.00000000000E+00 0. -1.
         22    1    1    2    0    0 -0.16375141876E+03  0.17842432299E+03  0.13461660524E+03  0.27707651757E+03  0.00000000000E+00 0.  1.
<mgrwt>
<rscale>  0 0.10042625E+04</rscale>
<asrwt>0</asrwt>
<pdfrwt beam="1">  1        1 0.17510191E+00 0.10042625E+04</pdfrwt>
<pdfrwt beam="2">  1       -1 0.34081356E-01 0.10042625E+04</pdfrwt>
<totfact> 0.96731935E+01</totfact>
</mgrwt>
</event>
<event>
 6    1  0.5026615E-004  0.3859791E+04  0.7818608E-02  0.8033444E-01
         -2   -1    0    0    0  501 -0.00000000000E+00  0.00000000000E+00  0.15308834604E+04  0.15308834604E+04  0.00000000000E+00 0. -1.
          2   -1    0    0  501    0  0.00000000000E+00 -0.00000000000E+00 -0.24329069540E+04  0.24329069540E+04  0.00000000000E+00 0.  1.
         23    2    1    2    0    0  0.15971429172E+04 -0.10404867068E+04 -0.75375246414E+03  0.20518640605E+04  0.92332336952E+02 0.  0.
         13    1    3    3    0    0  0.13617512250E+04 -0.85632215095E+03 -0.61235889753E+03  0.17212313744E+04  0.00000000000E+00 0. -1.
        -13    1    3    3    0    0  0.23539169224E+03 -0.18416455584E+03 -0.14139356661E+03  0.33063268604E+03  0.00000000000E+00 0.  1.
         22    1    1    2    0    0 -0.15971429172E+04  0.10404867068E+04 -0.14827102948E+03  0.19119263540E+04  0.00000000000E+00 0. -1.
<mgrwt>
<rscale>  0 0.38597912E+04</rscale>
<asrwt>0</asrwt>
<pdfrwt beam="1">  1        2 0.37429337E+00 0.38597912E+04</pdfrwt>
<pdfrwt beam="2">  1       -2 0.23552053E+00 0.38597912E+04</pdfrwt>
<totfact> 0.23984522E-01</totfact>
</mgrwt>
</event>
<event>
 6    1  0.8528761E-004  0.3825726E+04  0.7818608E-02  0.8040657E-01
         -2   -1    0    0    0  501 -0.00000000000E+00  0.00000000000E+00  0.19117996489E+04  0.19117996489E+04  0.00000000000E+00 0. -1.
          2   -1    0    0  501    0  0.00000000000E+00 -0.00000000000E+00 -0.19139271282E+04  0.19139271282E+04  0.00000000000E+00 0.  1.
         23    2    1    2    0    0  0.27233971803E+03 -0.10170560730E+04 -0.15967357263E+04  0.19148768512E+04  0.92824554537E+02 0.  0.
         13    1    3    3    0    0  0.21749505745E+03 -0.79560158806E+03 -0.11783543624E+04  0.14383341024E+04  0.00000000000E+00 0.  1.
        -13    1    3    3    0    0  0.54844660576E+02 -0.22145448498E+03 -0.41838136399E+03  0.47654274881E+03  0.00000000000E+00 0. -1.
         22    1    1    2    0    0 -0.27233971803E+03  0.10170560730E+04  0.15946082471E+04  0.19108499259E+04  0.00000000000E+00 0. -1.
<mgrwt>
<rscale>  0 0.38257262E+04</rscale>
<asrwt>0</asrwt>
<pdfrwt beam="1">  1        2 0.29445033E+00 0.38257262E+04</pdfrwt>
<pdfrwt beam="2">  1       -2 0.29412302E+00 0.38257262E+04</pdfrwt>
<totfact> 0.20607674E-01</totfact>
</mgrwt>
</event>
<event>
 6    1  0.5026615E-004  0.3001152E+04  0.7818608E-02  0.8243402E-01
         -2   -1    0    0    0  501 -0.00000000000E+00  0.00000000000E+00  0.16813415263E+04  0.16813415263E+04  0.00000000000E+00 0. -1.
          2   -1    0    0  501    0  0.00000000000E+00 -0.00000000000E+00 -0.13392449224E+04  0.13392449224E+04  0.00000000000E+00 0.  1.
         23    2    1    2    0    0  0.11579759705E+03  0.12364470428E+04 -0.67404944010E+03  0.14159795946E+04  0.91897723834E+02 0.  0.
         11    1    3    3    0    0  0.72023578039E+02  0.36965175880E+03 -0.22671684154E+03  0.43957973658E+03  0.00000000000E+00 0.  1.
        -11    1    3    3    0    0  0.43774019016E+02  0.86679528399E+03 -0.44733259856E+03  0.97639985807E+03  0.00000000000E+00 0. -1.
         22    1    1    2    0    0 -0.11579759705E+03 -0.12364470428E+04  0.10161460440E+04  0.16046068540E+04  0.00000000000E+00 0. -1.
<mgrwt>
<rscale>  0 0.30011518E+04</rscale>
<asrwt>0</asrwt>
<pdfrwt beam="1">  1        2 0.20603768E+00 0.30011518E+04</pdfrwt>
<pdfrwt beam="2">  1       -2 0.25866793E+00 0.30011518E+04</pdfrwt>
<totfact> 0.76324249E-01</totfact>
</mgrwt>
</event>
<event>
 6    1  0.5026615E-004  0.1856510E+04  0.7818608E-02  0.8676812E-01
         -2   -1    0    0    0  501 -0.00000000000E+00  0.00000000000E+00  0.11543166257E+04  0.11543166257E+04  0.00000000000E+00 0. -1.
          2   -1    0    0  501    0  0.00000000000E+00 -0.00000000000E+00 -0.74646556701E+03  0.74646556701E+03  0.00000000000E+00 0.  1.
         23    2    1    2    0    0  0.24017615116E+02  0.59931416213E+03  0.92671388214E+03  0.11077040501E+04  0.91952881878E+02 0.  0.
         11    1    3    3    0    0  0.50270607540E+02  0.36894188405E+03  0.61989058420E+03  0.72312487454E+03  0.00000000000E+00 0. -1.
        -11    1    3    3    0    0 -0.26252992423E+02  0.23037227808E+03  0.30682329794E+03  0.38457917556E+03  0.00000000000E+00 0.  1.
         22    1    1    2    0    0 -0.24017615116E+02 -0.59931416213E+03 -0.51886282344E+03  0.79307814263E+03  0.00000000000E+00 0.  1.
<mgrwt>
<rscale>  0 0.18565103E+04</rscale>
<asrwt>0</asrwt>
<pdfrwt beam="1">  1        2 0.11484086E+00 0.18565103E+04</pdfrwt>
<pdfrwt beam="2">  1       -2 0.17758717E+00 0.18565103E+04</pdfrwt>
<totfact> 0.66785609E+00</totfact>
</mgrwt>
</event>
<event>
 6    1  0.5026615E-004  0.6290766E+03  0.7818608E-02  0.9846852E-01
          2   -1    0    0  501    0  0.00000000000E+00  0.00000000000E+00  0.28286437912E+03  0.28286437912E+03  0.00000000000E+00 0.  1.
         -2   -1    0    0    0  501 -0.00000000000E+00 -0.00000000000E+00 -0.34975894748E+03  0.34975894748E+03  0.00000000000E+00 0. -1.
         23    2    1    2    0    0 -0.18560973928E+03 -0.13987258703E+03 -0.23693936164E+03  0.34464668234E+03  0.92874962344E+02 0.  0.
         11    1    3    3    0    0 -0.60831549231E+02 -0.85143656827E+01 -0.26323768676E+02  0.66827483883E+02  0.00000000000E+00 0.  1.
        -11    1    3    3    0    0 -0.12477819005E+03 -0.13135822135E+03 -0.21061559297E+03  0.27781919845E+03  0.00000000000E+00 0. -1.
         22    1    1    2    0    0  0.18560973928E+03  0.13987258703E+03  0.17004479328E+03  0.28797664427E+03  0.00000000000E+00 0.  1.
<mgrwt>
<rscale>  0 0.62907662E+03</rscale>
<asrwt>0</asrwt>
<pdfrwt beam="1">  1        2 0.43517597E-01 0.62907662E+03</pdfrwt>
<pdfrwt beam="2">  1       -2 0.53809069E-01 0.62907662E+03</pdfrwt>
<totfact> 0.38508026E+02</totfact>
</mgrwt>
</event>
<event>
 6    1  0.5026615E-004  0.2030107E+04  0.7818608E-02  0.8592673E-01
         -2   -1    0    0    0  501 -0.00000000000E+00  0.00000000000E+00  0.59922041753E+03  0.59922041753E+03  0.00000000000E+00 0.  1.
          2   -1    0    0  501    0  0.00000000000E+00 -0.00000000000E+00 -0.17194560524E+04  0.17194560524E+04  0.00000000000E+00 0. -1.
         23    2    1    2    0    0 -0.37169341115E+03 -0.88816264746E+03 -0.92125227648E+03  0.13355268083E+04  0.89091068952E+02 0.  0.
         13    1    3    3    0    0 -0.16450914011E+03 -0.44837257085E+03 -0.40256187862E+03  0.62462571640E+03  0.00000000000E+00 0. -1.
        -13    1    3    3    0    0 -0.20718427104E+03 -0.43979007661E+03 -0.51869039786E+03  0.71090109191E+03  0.00000000000E+00 0.  1.
         22    1    1    2    0    0  0.37169341115E+03  0.88816264746E+03 -0.19898335839E+03  0.98314966162E+03  0.00000000000E+00 0.  1.
<mgrwt>
<rscale>  0 0.20301066E+04</rscale>
<asrwt>0</asrwt>
<pdfrwt beam="1">  1        2 0.26453170E+00 0.20301066E+04</pdfrwt>
<pdfrwt beam="2">  1       -2 0.92187757E-01 0.20301066E+04</pdfrwt>
<totfact> 0.88619258E+00</totfact>
</mgrwt>
</event>
<event>
 6    1  0.5026615E-004  0.1620494E+04  0.7818608E-02  0.8808056E-01
          2   -1    0    0  501    0  0.00000000000E+00  0.00000000000E+00  0.14194549036E+04  0.14194549036E+04  0.00000000000E+00 0.  1.
         -2   -1    0    0    0  501 -0.00000000000E+00 -0.00000000000E+00 -0.46250149110E+03  0.46250149110E+03  0.00000000000E+00 0. -1.
         23    2    1    2    0    0 -0.79175264131E+02  0.61007653454E+03  0.10877764096E+04  0.12530074643E+04  0.91148713221E+02 0.  0.
         11    1    3    3    0    0 -0.21254462260E+01  0.91159915297E+02  0.23143708933E+03  0.24875243516E+03  0.00000000000E+00 0. -1.
        -11    1    3    3    0    0 -0.77049817905E+02  0.51891661924E+03  0.85633932023E+03  0.10042550291E+04  0.00000000000E+00 0.  1.
         22    1    1    2    0    0  0.79175264131E+02 -0.61007653454E+03 -0.13082299710E+03  0.62894893037E+03  0.00000000000E+00 0. -1.
<mgrwt>
<rscale>  0 0.16204938E+04</rscale>
<asrwt>0</asrwt>
<pdfrwt beam="1">  1        2 0.21837767E+00 0.16204938E+04</pdfrwt>
<pdfrwt beam="2">  1       -2 0.71154076E-01 0.16204938E+04</pdfrwt>
<totfact> 0.24218879E+01</totfact>
</mgrwt>
</event>
<event>
 6    1  0.5026615E-004  0.3228070E+04  0.7818608E-02  0.8181443E-01
          2   -1    0    0  501    0  0.00000000000E+00  0.00000000000E+00  0.33379204239E+04  0.33379204239E+04  0.00000000000E+00 0.  1.
         -2   -1    0    0    0  501 -0.00000000000E+00 -0.00000000000E+00 -0.78045888876E+03  0.78045888876E+03  0.00000000000E+00 0. -1.
         23    2    1    2    0    0 -0.97472918922E+03 -0.27680860362E+03  0.28804680129E+04  0.30548694725E+04  0.91714367302E+02 0.  0.
         11    1    3    3    0    0 -0.85345139460E+03 -0.23996383225E+03  0.24201258401E+04  0.25773961678E+04  0.00000000000E+00 0. -1.
        -11    1    3    3    0    0 -0.12127779462E+03 -0.36844771362E+02  0.46034217282E+03  0.47747330473E+03  0.00000000000E+00 0.  1.
         22    1    1    2    0    0  0.97472918922E+03  0.27680860362E+03 -0.32300647781E+03  0.10635098401E+04  0.00000000000E+00 0. -1.
<mgrwt>
<rscale>  0 0.32280704E+04</rscale>
<asrwt>0</asrwt>
<pdfrwt beam="1">  1        2 0.51352621E+00 0.32280704E+04</pdfrwt>
<pdfrwt beam="2">  1       -2 0.12007060E+00 0.32280704E+04</pdfrwt>
<totfact> 0.46741813E-01</totfact>
</mgrwt>
</event>
<event>
 6    1  0.5026615E-004  0.2480225E+04  0.7818608E-02  0.8410065E-01
         -4   -1    0    0    0  501 -0.00000000000E+00  0.00000000000E+00  0.12871439140E+04  0.12871439140E+04  0.00000000000E+00 0.  1.
          4   -1    0    0  501    0  0.00000000000E+00 -0.00000000000E+00 -0.11947995597E+04  0.11947995597E+04  0.00000000000E+00 0. -1.
         23    2    1    2    0    0  0.12285572644E+04  0.14465783878E+03 -0.12654036830E+02  0.12404510233E+04  0.90993265273E+02 0.  0.
         11    1    3    3    0    0  0.62565236298E+03  0.10142394113E+03  0.29704471382E+02  0.63451560324E+03  0.00000000000E+00 0. -1.
        -11    1    3    3    0    0  0.60290490144E+03  0.43233897647E+02 -0.42358508211E+02  0.60593542008E+03  0.00000000000E+00 0.  1.
         22    1    1    2    0    0 -0.12285572644E+04 -0.14465783878E+03  0.10499839107E+03  0.12414924504E+04  0.00000000000E+00 0.  1.
<mgrwt>
<rscale>  0 0.24802250E+04</rscale>
<asrwt>0</asrwt>
<pdfrwt beam="1">  1        4 0.18381532E+00 0.24802250E+04</pdfrwt>
<pdfrwt beam="2">  1       -4 0.19802214E+00 0.24802250E+04</pdfrwt>
<totfact> 0.40879919E-02</totfact>
</mgrwt>
</event>
<event>
 6    1  0.5026615E-004  0.3314347E+04  0.7818608E-02  0.8159254E-01
          2   -1    0    0  501    0  0.00000000000E+00  0.00000000000E+00  0.18774765958E+04  0.18774765958E+04  0.00000000000E+00 0.  1.
         -2   -1    0    0    0  501 -0.00000000000E+00 -0.00000000000E+00 -0.14627210173E+04  0.14627210173E+04  0.00000000000E+00 0. -1.
         23    2    1    2    0    0 -0.15674434308E+04 -0.40183624238E+03  0.56201717371E+03  0.17153784687E+04  0.91152141564E+02 0.  0.
         11    1    3    3    0    0 -0.93737016639E+03 -0.23962323323E+03  0.28856480117E+03  0.10096295198E+04  0.00000000000E+00 0.  1.
        -11    1    3    3    0    0 -0.63007326443E+03 -0.16221300915E+03  0.27345237254E+03  0.70574894894E+03  0.00000000000E+00 0. -1.
         22    1    1    2    0    0  0.15674434308E+04  0.40183624238E+03 -0.14726159523E+03  0.16248191444E+04  0.00000000000E+00 0.  1.
<mgrwt>
<rscale>  0 0.33143473E+04</rscale>
<asrwt>0</asrwt>
<pdfrwt beam="1">  1        2 0.28884255E+00 0.33143473E+04</pdfrwt>
<pdfrwt beam="2">  1       -2 0.22503400E+00 0.33143473E+04</pdfrwt>
<totfact> 0.59894165E-01</totfact>
</mgrwt>
</event>
<event>
 6    1  0.5026615E-004  0.3628203E+03  0.7818608E-02  0.1057473E+00
         -2   -1    0    0    0  501 -0.00000000000E+00  0.00000000000E+00  0.28701172994E+02  0.28701172994E+02  0.00000000000E+00 0. -1.
          2   -1    0    0  501    0  0.00000000000E+00 -0.00000000000E+00 -0.11466308190E+04  0.11466308190E+04  0.00000000000E+00 0.  1.
         23    2    1    2    0    0  0.16014596680E+03  0.21466177164E+02 -0.42297926352E+03  0.46184508843E+03  0.91004949803E+02 0.  0.
         13    1    3    3    0    0  0.38535063916E+02 -0.26590409832E+02 -0.17914053944E+03  0.18515759211E+03  0.00000000000E+00 0. -1.
        -13    1    3    3    0    0  0.12161090289E+03  0.48056586996E+02 -0.24383872409E+03  0.27668749632E+03  0.00000000000E+00 0.  1.
         22    1    1    2    0    0 -0.16014596680E+03 -0.21466177164E+02 -0.69495038245E+03  0.71348690353E+03  0.00000000000E+00 0. -1.
<mgrwt>
<rscale>  0 0.36282034E+03</rscale>
<asrwt>0</asrwt>
<pdfrwt beam="1">  1        2 0.17640471E+00 0.36282034E+03</pdfrwt>
<pdfrwt beam="2">  1       -2 0.44155660E-02 0.36282034E+03</pdfrwt>
<totfact> 0.50960177E+03</totfact>
</mgrwt>
</event>
<event>
 6    1  0.5026615E-004  0.2138815E+04  0.7818608E-02  0.8544335E-01
          2   -1    0    0  501    0  0.00000000000E+00  0.00000000000E+00  0.23468004195E+04  0.23468004195E+04  0.00000000000E+00 0.  1.
         -2   -1    0    0    0  501 -0.00000000000E+00 -0.00000000000E+00 -0.48731576501E+03  0.48731576501E+03  0.00000000000E+00 0. -1.
         23    2    1    2    0    0  0.17706653950E+02 -0.31810336287E+03  0.22814446570E+04  0.23053879757E+04  0.91217982904E+02 0.  0.
         11    1    3    3    0    0  0.44664902077E+02 -0.10109815933E+03  0.89623160237E+03  0.90302097228E+03  0.00000000000E+00 0. -1.
        -11    1    3    3    0    0 -0.26958248127E+02 -0.21700520353E+03  0.13852130547E+04  0.14023670034E+04  0.00000000000E+00 0.  1.
         22    1    1    2    0    0 -0.17706653950E+02  0.31810336287E+03 -0.42196000253E+03  0.52872820882E+03  0.00000000000E+00 0. -1.
<mgrwt>
<rscale>  0 0.21388154E+04</rscale>
<asrwt>0</asrwt>
<pdfrwt beam="1">  1        2 0.36104621E+00 0.21388154E+04</pdfrwt>
<pdfrwt beam="2">  1       -2 0.74971657E-01 0.21388154E+04</pdfrwt>
<totfact> 0.62601152E+00</totfact>
</mgrwt>
</event>
<event>
 6    1  0.5026615E-004  0.4423855E+04  0.7818608E-02  0.7924105E-01
         -2   -1    0    0    0  501 -0.00000000000E+00  0.00000000000E+00  0.14542385553E+04  0.14542385553E+04  0.00000000000E+00 0. -1.
          2   -1    0    0  501    0  0.00000000000E+00 -0.00000000000E+00 -0.33643882821E+04  0.33643882821E+04  0.00000000000E+00 0.  1.
         23    2    1    2    0    0  0.10874099784E+04  0.10193702456E+04 -0.27342819192E+04  0.31154621273E+04  0.90722071814E+02 0.  0.
         11    1    3    3    0    0  0.80777798826E+03  0.71937556639E+03 -0.20431901408E+04  0.23118461098E+04  0.00000000000E+00 0. -1.
        -11    1    3    3    0    0  0.27963199019E+03  0.29999467923E+03 -0.69109177842E+03  0.80361601757E+03  0.00000000000E+00 0.  1.
         22    1    1    2    0    0 -0.10874099784E+04 -0.10193702456E+04  0.82413219240E+03  0.17031647100E+04  0.00000000000E+00 0. -1.
<mgrwt>
<rscale>  0 0.44238550E+04</rscale>
<asrwt>0</asrwt>
<pdfrwt beam="1">  1        2 0.51759819E+00 0.44238550E+04</pdfrwt>
<pdfrwt beam="2">  1       -2 0.22372901E+00 0.44238550E+04</pdfrwt>
<totfact> 0.71844911E-02</totfact>
</mgrwt>
</event>
<event>
 6    1  0.5026615E-004  0.1662911E+04  0.7818608E-02  0.8782805E-01
         -2   -1    0    0    0  501 -0.00000000000E+00  0.00000000000E+00  0.24903413335E+04  0.24903413335E+04  0.00000000000E+00 0. -1.
          2   -1    0    0  501    0  0.00000000000E+00 -0.00000000000E+00 -0.27759984238E+03  0.27759984238E+03  0.00000000000E+00 0.  1.
         23    2    1    2    0    0  0.43092551924E+03  0.14906229139E+03  0.22620002558E+04  0.23093097381E+04  0.91378002521E+02 0.  0.
         13    1    3    3    0    0  0.22288860325E+03  0.12083823416E+03  0.11424571802E+04  0.11702519459E+04  0.00000000000E+00 0. -1.
        -13    1    3    3    0    0  0.20803691599E+03  0.28224057236E+02  0.11195430756E+04  0.11390577922E+04  0.00000000000E+00 0.  1.
         22    1    1    2    0    0 -0.43092551924E+03 -0.14906229139E+03 -0.49258764659E+02  0.45863143780E+03  0.00000000000E+00 0.  1.
<mgrwt>
<rscale>  0 0.16629111E+04</rscale>
<asrwt>0</asrwt>
<pdfrwt beam="1">  1        2 0.42707670E-01 0.16629111E+04</pdfrwt>
<pdfrwt beam="2">  1       -2 0.38312942E+00 0.16629111E+04</pdfrwt>
<totfact> 0.10987372E+00</totfact>
</mgrwt>
</event>
<event>
 6    1  0.5026615E-004  0.3258657E+04  0.7818608E-02  0.8173495E-01
          2   -1    0    0  501    0  0.00000000000E+00  0.00000000000E+00  0.25171790776E+04  0.25171790776E+04  0.00000000000E+00 0.  1.
         -2   -1    0    0    0  501 -0.00000000000E+00 -0.00000000000E+00 -0.10546376523E+04  0.10546376523E+04  0.00000000000E+00 0. -1.
         23    2    1    2    0    0 -0.60912365899E+03  0.22696344769E+03 -0.90418798566E+03  0.11174426461E+04  0.92618116399E+02 0.  0.
         11    1    3    3    0    0 -0.10054753262E+03  0.61462536736E+01 -0.11384159026E+03  0.15201148122E+03  0.00000000000E+00 0.  1.
        -11    1    3    3    0    0 -0.50857612638E+03  0.22081719402E+03 -0.79034639540E+03  0.96543116493E+03  0.00000000000E+00 0. -1.
         22    1    1    2    0    0  0.60912365899E+03 -0.22696344769E+03  0.23667294109E+04  0.24543740838E+04  0.00000000000E+00 0.  1.
<mgrwt>
<rscale>  0 0.32586573E+04</rscale>
<asrwt>0</asrwt>
<pdfrwt beam="1">  1        2 0.38725832E+00 0.32586573E+04</pdfrwt>
<pdfrwt beam="2">  1       -2 0.16225195E+00 0.32586573E+04</pdfrwt>
<totfact> 0.69109816E-01</totfact>
</mgrwt>
</event>
<event>
 6    1  0.5026615E-004  0.2280030E+04  0.7818608E-02  0.8485837E-01
         -1   -1    0    0    0  501 -0.00000000000E+00  0.00000000000E+00  0.35663436424E+03  0.35663436424E+03  0.00000000000E+00 0.  1.
          1   -1    0    0  501    0  0.00000000000E+00 -0.00000000000E+00 -0.36441642603E+04  0.36441642603E+04  0.00000000000E+00 0. -1.
         23    2    1    2    0    0  0.64141459731E+02 -0.12104373312E+03 -0.36290488721E+04  0.36328299802E+04  0.93232165293E+02 0.  0.
         13    1    3    3    0    0  0.82581312973E+02 -0.11023812437E+03 -0.26769610485E+04  0.26805022985E+04  0.00000000000E+00 0. -1.
        -13    1    3    3    0    0 -0.18439853241E+02 -0.10805608750E+02 -0.95208782367E+03  0.95232768171E+03  0.00000000000E+00 0.  1.
         22    1    1    2    0    0 -0.64141459731E+02  0.12104373312E+03  0.34151897608E+03  0.36796864433E+03  0.00000000000E+00 0.  1.
<mgrwt>
<rscale>  0 0.22800300E+04</rscale>
<asrwt>0</asrwt>
<pdfrwt beam="1">  1        1 0.56064069E+00 0.22800300E+04</pdfrwt>
<pdfrwt beam="2">  1       -1 0.54866822E-01 0.22800300E+04</pdfrwt>
<totfact> 0.58403457E-01</totfact>
</mgrwt>
</event>
<event>
 6    1  0.5026615E-004  0.1542552E+04  0.7818608E-02  0.8856639E-01
          2   -1    0    0  501    0  0.00000000000E+00  0.00000000000E+00  0.15444046882E+04  0.15444046882E+04  0.00000000000E+00 0.  1.
         -2   -1    0    0    0  501 -0.00000000000E+00 -0.00000000000E+00 -0.38517531467E+03  0.38517531467E+03  0.00000000000E+00 0. -1.
         23    2    1    2    0    0  0.34544133842E+03  0.28983259501E+03 -0.19690366145E+03  0.50044408911E+03  0.91326792365E+02 0.  0.
         11    1    3    3    0    0  0.30356190598E+03  0.21141914344E+03 -0.17304152646E+03  0.40840085070E+03  0.00000000000E+00 0.  1.
        -11    1    3    3    0    0  0.41879432444E+02  0.78413451571E+02 -0.23862134990E+02  0.92043238402E+02  0.00000000000E+00 0. -1.
         22    1    1    2    0    0 -0.34544133842E+03 -0.28983259501E+03  0.13561330350E+04  0.14291359137E+04  0.00000000000E+00 0.  1.
<mgrwt>
<rscale>  0 0.15425519E+04</rscale>
<asrwt>0</asrwt>
<pdfrwt beam="1">  1        2 0.23760072E+00 0.15425519E+04</pdfrwt>
<pdfrwt beam="2">  1       -2 0.59257741E-01 0.15425519E+04</pdfrwt>
<totfact> 0.30682443E+01</totfact>
</mgrwt>
</event>
<event>
 6    1  0.5026615E-004  0.1419242E+04  0.7818608E-02  0.8940007E-01
          2   -1    0    0  501    0  0.00000000000E+00  0.00000000000E+00  0.13555245644E+04  0.13555245644E+04  0.00000000000E+00 0.  1.
         -2   -1    0    0    0  501 -0.00000000000E+00 -0.00000000000E+00 -0.37148853675E+03  0.37148853675E+03  0.00000000000E+00 0. -1.
         23    2    1    2    0    0 -0.23431445822E+03 -0.52593778127E+02 -0.31421891290E+03  0.40673462239E+03  0.95027138226E+02 0.  0.
         13    1    3    3    0    0 -0.10969273200E+03 -0.65840058993E+02 -0.19850287799E+03  0.23615842435E+03  0.00000000000E+00 0. -1.
        -13    1    3    3    0    0 -0.12462172622E+03  0.13246280866E+02 -0.11571603491E+03  0.17057619804E+03  0.00000000000E+00 0.  1.
         22    1    1    2    0    0  0.23431445822E+03  0.52593778127E+02  0.12982549405E+04  0.13202784788E+04  0.00000000000E+00 0.  1.
<mgrwt>
<rscale>  0 0.14192418E+04</rscale>
<asrwt>0</asrwt>
<pdfrwt beam="1">  1        2 0.20854224E+00 0.14192418E+04</pdfrwt>
<pdfrwt beam="2">  1       -2 0.57152083E-01 0.14192418E+04</pdfrwt>
<totfact> 0.42800403E+01</totfact>
</mgrwt>
</event>
<event>
 6    1  0.5026615E-004  0.3102558E+04  0.7818608E-02  0.8215036E-01
          2   -1    0    0  501    0  0.00000000000E+00  0.00000000000E+00  0.22882661351E+04  0.22882661351E+04  0.00000000000E+00 0.  1.
         -2   -1    0    0    0  501 -0.00000000000E+00 -0.00000000000E+00 -0.10516549435E+04  0.10516549435E+04  0.00000000000E+00 0. -1.
         23    2    1    2    0    0 -0.69835815973E+02 -0.75110217658E+03  0.20764956177E+04  0.22110112638E+04  0.87779481555E+02 0.  0.
         11    1    3    3    0    0 -0.32262941806E+02 -0.58359201878E+03  0.16862837113E+04  0.17847053809E+04  0.00000000000E+00 0. -1.
        -11    1    3    3    0    0 -0.37572874167E+02 -0.16751015781E+03  0.39021190640E+03  0.42630588284E+03  0.00000000000E+00 0.  1.
         22    1    1    2    0    0  0.69835815973E+02  0.75110217658E+03 -0.83988442605E+03  0.11289098148E+04  0.00000000000E+00 0. -1.
<mgrwt>
<rscale>  0 0.31025579E+04</rscale>
<asrwt>0</asrwt>
<pdfrwt beam="1">  1        2 0.35204094E+00 0.31025579E+04</pdfrwt>
<pdfrwt beam="2">  1       -2 0.16179307E+00 0.31025579E+04</pdfrwt>
<totfact> 0.95476636E-01</totfact>
</mgrwt>
</event>
<event>
 6    1  0.5026615E-004  0.1144394E+04  0.7818608E-02  0.9162971E-01
          1   -1    0    0  501    0  0.00000000000E+00  0.00000000000E+00  0.13444575424E+04  0.13444575424E+04  0.00000000000E+00 0.  1.
         -1   -1    0    0    0  501 -0.00000000000E+00 -0.00000000000E+00 -0.24352521253E+03  0.24352521253E+03  0.00000000000E+00 0. -1.
         23    2    1    2    0    0 -0.44273014162E+03  0.35339625110E+03  0.48528356059E+03  0.75136916689E+03  0.90313909114E+02 0.  0.
         11    1    3    3    0    0 -0.10018159850E+03  0.48050921473E+02  0.62866959720E+02  0.12766165578E+03  0.00000000000E+00 0.  1.
        -11    1    3    3    0    0 -0.34254854312E+03  0.30534532963E+03  0.42241660087E+03  0.62370751111E+03  0.00000000000E+00 0. -1.
         22    1    1    2    0    0  0.44273014162E+03 -0.35339625110E+03  0.61564876931E+03  0.83661358807E+03  0.00000000000E+00 0.  1.
<mgrwt>
<rscale>  0 0.11443938E+04</rscale>
<asrwt>0</asrwt>
<pdfrwt beam="1">  1        1 0.20683962E+00 0.11443938E+04</pdfrwt>
<pdfrwt beam="2">  1       -1 0.37465418E-01 0.11443938E+04</pdfrwt>
<totfact> 0.57309531E+01</totfact>
</mgrwt>
</event>
<event>
 6    1  0.5026615E-004  0.2860401E+04  0.7818608E-02  0.8284758E-01
         -2   -1    0    0    0  501 -0.00000000000E+00  0.00000000000E+00  0.17300207449E+04  0.17300207449E+04  0.00000000000E+00 0. -1.
          2   -1    0    0  501    0  0.00000000000E+00 -0.00000000000E+00 -0.11823404268E+04  0.11823404268E+04  0.00000000000E+00 0.  1.
         23    2    1    2    0    0  0.86631361163E+03 -0.51572170155E+03 -0.75649114269E+03  0.12639281745E+04  0.93634578476E+02 0.  0.
         11    1    3    3    0    0  0.38548855263E+03 -0.28073545421E+03 -0.33693654446E+03  0.58390072311E+03  0.00000000000E+00 0. -1.
        -11    1    3    3    0    0  0.48082505900E+03 -0.23498624735E+03 -0.41955459823E+03  0.68002745143E+03  0.00000000000E+00 0.  1.
         22    1    1    2    0    0 -0.86631361163E+03  0.51572170155E+03  0.13041714607E+04  0.16484329971E+04  0.00000000000E+00 0. -1.
<mgrwt>
<rscale>  0 0.28604010E+04</rscale>
<asrwt>0</asrwt>
<pdfrwt beam="1">  1        2 0.18189853E+00 0.28604010E+04</pdfrwt>
<pdfrwt beam="2">  1       -2 0.26615704E+00 0.28604010E+04</pdfrwt>
<totfact> 0.85974282E-01</totfact>
</mgrwt>
</event>
<event>
 6    1  0.5026615E-004  0.2092639E+04  0.7818608E-02  0.8564493E-01
         -2   -1    0    0    0  501 -0.00000000000E+00  0.00000000000E+00  0.16205135165E+04  0.16205135165E+04  0.00000000000E+00 0. -1.
          2   -1    0    0  501    0  0.00000000000E+00 -0.00000000000E+00 -0.67557873224E+03  0.67557873224E+03  0.00000000000E+00 0.  1.
         23    2    1    2    0    0  0.48181888059E+03 -0.92531366470E+03  0.42533769152E+03  0.11306155435E+04  0.94997597740E+02 0.  0.
         13    1    3    3    0    0  0.28673915109E+03 -0.50116376797E+03  0.19043098923E+03  0.60798719127E+03  0.00000000000E+00 0.  1.
        -13    1    3    3    0    0  0.19507972951E+03 -0.42414989673E+03  0.23490670229E+03  0.52262835222E+03  0.00000000000E+00 0. -1.
         22    1    1    2    0    0 -0.48181888059E+03  0.92531366470E+03  0.51959709279E+03  0.11654767053E+04  0.00000000000E+00 0.  1.
<mgrwt>
<rscale>  0 0.20926390E+04</rscale>
<asrwt>0</asrwt>
<pdfrwt beam="1">  1        2 0.10393519E+00 0.20926390E+04</pdfrwt>
<pdfrwt beam="2">  1       -2 0.24930977E+00 0.20926390E+04</pdfrwt>
<totfact> 0.25635397E+00</totfact>
</mgrwt>
</event>
<event>
 6    1  0.5026615E-004  0.1995986E+04  0.7818608E-02  0.8608499E-01
         -2   -1    0    0    0  501 -0.00000000000E+00  0.00000000000E+00  0.10007958729E+04  0.10007958729E+04  0.00000000000E+00 0. -1.
          2   -1    0    0  501    0  0.00000000000E+00 -0.00000000000E+00 -0.99519837017E+03  0.99519837017E+03  0.00000000000E+00 0.  1.
         23    2    1    2    0    0 -0.75305730736E+03  0.61947348563E+03 -0.19947735928E+03  0.99955136632E+03  0.92027221448E+02 0.  0.
         13    1    3    3    0    0 -0.52408954338E+03  0.48299420214E+03 -0.15366454810E+03  0.72908575772E+03  0.00000000000E+00 0.  1.
        -13    1    3    3    0    0 -0.22896776399E+03  0.13647928349E+03 -0.45812811183E+02  0.27046560860E+03  0.00000000000E+00 0. -1.
         22    1    1    2    0    0  0.75305730736E+03 -0.61947348563E+03  0.20507486199E+03  0.99644287673E+03  0.00000000000E+00 0. -1.
<mgrwt>
<rscale>  0 0.19959864E+04</rscale>
<asrwt>0</asrwt>
<pdfrwt beam="1">  1        2 0.15310744E+00 0.19959864E+04</pdfrwt>
<pdfrwt beam="2">  1       -2 0.15396860E+00 0.19959864E+04</pdfrwt>
<totfact> 0.65882612E+00</totfact>
</mgrwt>
</event>
<event>
 6    1  0.5026615E-004  0.9572343E+03  0.7818608E-02  0.9356734E-01
          2   -1    0    0  501    0  0.00000000000E+00  0.00000000000E+00  0.60334509730E+03  0.60334509730E+03  0.00000000000E+00 0.  1.
         -2   -1    0    0    0  501 -0.00000000000E+00 -0.00000000000E+00 -0.37967390501E+03  0.37967390501E+03  0.00000000000E+00 0. -1.
         23    2    1    2    0    0 -0.42933203127E+03  0.96038236584E+01  0.32032132643E+03  0.54283781810E+03  0.87458093292E+02 0.  0.
         11    1    3    3    0    0 -0.33480206084E+03  0.16730582395E+02  0.29016118012E+03  0.44335746614E+03  0.00000000000E+00 0. -1.
        -11    1    3    3    0    0 -0.94529970435E+02 -0.71267587369E+01  0.30160146308E+02  0.99480351959E+02  0.00000000000E+00 0.  1.
         22    1    1    2    0    0  0.42933203127E+03 -0.96038236584E+01 -0.96650134143E+02  0.44018118421E+03  0.00000000000E+00 0.  1.
<mgrwt>
<rscale>  0 0.95723433E+03</rscale>
<asrwt>0</asrwt>
<pdfrwt beam="1">  1        2 0.92822322E-01 0.95723433E+03</pdfrwt>
<pdfrwt beam="2">  1       -2 0.58411370E-01 0.95723433E+03</pdfrwt>
<totfact> 0.13517690E+02</totfact>
</mgrwt>
</event>
<event>
 6    1  0.5026615E-004  0.1690933E+04  0.7818608E-02  0.8766552E-01
          2   -1    0    0  501    0  0.00000000000E+00  0.00000000000E+00  0.13369296817E+04  0.13369296817E+04  0.00000000000E+00 0.  1.
         -2   -1    0    0    0  501 -0.00000000000E+00 -0.00000000000E+00 -0.53466822788E+03  0.53466822788E+03  0.00000000000E+00 0. -1.
         23    2    1    2    0    0  0.34574136460E+03 -0.11810874549E+03 -0.43858598385E+03  0.57807978812E+03  0.91278744756E+02 0.  0.
         13    1    3    3    0    0  0.71715046872E+02 -0.23778899103E+01 -0.13598537510E+03  0.15375540494E+03  0.00000000000E+00 0.  1.
        -13    1    3    3    0    0  0.27402631773E+03 -0.11573085558E+03 -0.30260060876E+03  0.42432438318E+03  0.00000000000E+00 0. -1.
         22    1    1    2    0    0 -0.34574136460E+03  0.11810874549E+03  0.12408474377E+04  0.12935181214E+04  0.00000000000E+00 0.  1.
<mgrwt>
<rscale>  0 0.16909333E+04</rscale>
<asrwt>0</asrwt>
<pdfrwt beam="1">  1        2 0.20568149E+00 0.16909333E+04</pdfrwt>
<pdfrwt beam="2">  1       -2 0.82256651E-01 0.16909333E+04</pdfrwt>
<totfact> 0.19450039E+01</totfact>
</mgrwt>
</event>
<event>
 6    1  0.5026615E-004  0.1008301E+04  0.7818608E-02  0.9299488E-01
         -2   -1    0    0    0  501 -0.00000000000E+00  0.00000000000E+00  0.15902004542E+03  0.15902004542E+03  0.00000000000E+00 0. -1.
          2   -1    0    0  501    0  0.00000000000E+00 -0.00000000000E+00 -0.15983361365E+04  0.15983361365E+04  0.00000000000E+00 0.  1.
         23    2    1    2    0    0  0.41288097007E+03  0.16405450131E+03 -0.11258501363E+04  0.12136232698E+04  0.89209511195E+02 0.  0.
         11    1    3    3    0    0  0.20971458284E+03  0.62405758848E+02 -0.66017825534E+03  0.69549264110E+03  0.00000000000E+00 0.  1.
        -11    1    3    3    0    0  0.20316638723E+03  0.10164874247E+03 -0.46567188091E+03  0.51813062872E+03  0.00000000000E+00 0. -1.
         22    1    1    2    0    0 -0.41288097007E+03 -0.16405450131E+03 -0.31346595479E+03  0.54373291206E+03  0.00000000000E+00 0. -1.
<mgrwt>
<rscale>  0 0.10083005E+04</rscale>
<asrwt>0</asrwt>
<pdfrwt beam="1">  1        2 0.24589785E+00 0.10083005E+04</pdfrwt>
<pdfrwt beam="2">  1       -2 0.24464624E-01 0.10083005E+04</pdfrwt>
<totfact> 0.16635085E+02</totfact>
</mgrwt>
</event>
<event>
 6    1  0.5026615E-004  0.3714294E+04  0.7818608E-02  0.8064801E-01
          2   -1    0    0  501    0  0.00000000000E+00  0.00000000000E+00  0.34177851336E+04  0.34177851336E+04  0.00000000000E+00 0.  1.
         -2   -1    0    0    0  501 -0.00000000000E+00 -0.00000000000E+00 -0.10091318414E+04  0.10091318414E+04  0.00000000000E+00 0. -1.
         23    2    1    2    0    0  0.38206981441E+03 -0.98648939499E+03  0.30226778215E+04  0.32037388227E+04  0.90678344203E+02 0.  0.
         11    1    3    3    0    0  0.61867030229E+02 -0.10042366050E+03  0.28333328084E+03  0.30690420174E+03  0.00000000000E+00 0. -1.
        -11    1    3    3    0    0  0.32020278418E+03 -0.88606573449E+03  0.27393445406E+04  0.28968346210E+04  0.00000000000E+00 0.  1.
         22    1    1    2    0    0 -0.38206981441E+03  0.98648939499E+03 -0.61402452933E+03  0.12231781522E+04  0.00000000000E+00 0. -1.
<mgrwt>
<rscale>  0 0.37142944E+04</rscale>
<asrwt>0</asrwt>
<pdfrwt beam="1">  1        2 0.52581309E+00 0.37142944E+04</pdfrwt>
<pdfrwt beam="2">  1       -2 0.15525105E+00 0.37142944E+04</pdfrwt>
<totfact> 0.20428484E-01</totfact>
</mgrwt>
</event>
<event>
 6    1  0.5026615E-004  0.2473679E+04  0.7818608E-02  0.8412423E-01
         -2   -1    0    0    0  501 -0.00000000000E+00  0.00000000000E+00  0.78307076349E+03  0.78307076349E+03  0.00000000000E+00 0. -1.
          2   -1    0    0  501    0  0.00000000000E+00 -0.00000000000E+00 -0.19535555348E+04  0.19535555348E+04  0.00000000000E+00 0.  1.
         23    2    1    2    0    0  0.52884781724E+03  0.11094317370E+04 -0.72246818771E+03  0.14284834728E+04  0.89921949106E+02 0.  0.
         13    1    3    3    0    0  0.15613102273E+03  0.40325739980E+03 -0.28644074423E+03  0.51869232373E+03  0.00000000000E+00 0.  1.
        -13    1    3    3    0    0  0.37271679451E+03  0.70617433718E+03 -0.43602744349E+03  0.90979114904E+03  0.00000000000E+00 0. -1.
         22    1    1    2    0    0 -0.52884781724E+03 -0.11094317370E+04 -0.44801658361E+03  0.13081428255E+04  0.00000000000E+00 0. -1.
<mgrwt>
<rscale>  0 0.24736792E+04</rscale>
<asrwt>0</asrwt>
<pdfrwt beam="1">  1        2 0.30054700E+00 0.24736792E+04</pdfrwt>
<pdfrwt beam="2">  1       -2 0.12047243E+00 0.24736792E+04</pdfrwt>
<totfact> 0.33326740E+00</totfact>
</mgrwt>
</event>
<event>
 6    1  0.5026615E-004  0.1087856E+04  0.7818608E-02  0.9217110E-01
         -2   -1    0    0    0  501 -0.00000000000E+00  0.00000000000E+00  0.19448181060E+03  0.19448181060E+03  0.00000000000E+00 0. -1.
          2   -1    0    0  501    0  0.00000000000E+00 -0.00000000000E+00 -0.15212603542E+04  0.15212603542E+04  0.00000000000E+00 0.  1.
         23    2    1    2    0    0  0.20261693941E+03 -0.98027620396E+02 -0.14423910708E+04  0.14627020594E+04  0.91336055029E+02 0.  0.
         13    1    3    3    0    0 -0.75231904292E+01 -0.13806624649E+02 -0.12726968698E+03  0.12823725864E+03  0.00000000000E+00 0. -1.
        -13    1    3    3    0    0  0.21014012984E+03 -0.84220995746E+02 -0.13151213839E+04  0.13344648008E+04  0.00000000000E+00 0.  1.
         22    1    1    2    0    0 -0.20261693941E+03  0.98027620396E+02  0.11561252720E+03  0.25304010540E+03  0.00000000000E+00 0. -1.
<mgrwt>
<rscale>  0 0.10878556E+04</rscale>
<asrwt>0</asrwt>
<pdfrwt beam="1">  1        2 0.23404005E+00 0.10878556E+04</pdfrwt>
<pdfrwt beam="2">  1       -2 0.29920279E-01 0.10878556E+04</pdfrwt>
<totfact> 0.12634014E+02</totfact>
</mgrwt>
</event>
<event>
 6    1  0.5026615E-004  0.1305248E+04  0.7818608E-02  0.9025414E-01
          2   -1    0    0  501    0  0.00000000000E+00  0.00000000000E+00  0.52102891086E+03  0.52102891086E+03  0.00000000000E+00 0.  1.
         -2   -1    0    0    0  501 -0.00000000000E+00 -0.00000000000E+00 -0.81745614508E+03  0.81745614508E+03  0.00000000000E+00 0. -1.
         23    2    1    2    0    0  0.12848759036E+03 -0.22441004628E+03 -0.75987267513E+03  0.80777740906E+03  0.90713452276E+02 0.  0.
         11    1    3    3    0    0  0.70350137365E+02 -0.47932587775E+02 -0.29832441053E+03  0.31023237857E+03  0.00000000000E+00 0.  1.
        -11    1    3    3    0    0  0.58137452999E+02 -0.17647745851E+03 -0.46154826460E+03  0.49754503049E+03  0.00000000000E+00 0. -1.
         22    1    1    2    0    0 -0.12848759036E+03  0.22441004628E+03  0.46344544092E+03  0.53070764688E+03  0.00000000000E+00 0.  1.
<mgrwt>
<rscale>  0 0.13052483E+04</rscale>
<asrwt>0</asrwt>
<pdfrwt beam="1">  1        2 0.80158294E-01 0.13052483E+04</pdfrwt>
<pdfrwt beam="2">  1       -2 0.12576248E+00 0.13052483E+04</pdfrwt>
<totfact> 0.27140385E+01</totfact>
</mgrwt>
</event>
<event>
 6    1  0.5026615E-004  0.1192930E+04  0.7818608E-02  0.9119068E-01
         -2   -1    0    0    0  501 -0.00000000000E+00  0.00000000000E+00  0.19158784525E+03  0.19158784525E+03  0.00000000000E+00 0. -1.
          2   -1    0    0  501    0  0.00000000000E+00 -0.00000000000E+00 -0.18569563237E+04  0.18569563237E+04  0.00000000000E+00 0.  1.
         23    2    1    2    0    0 -0.19162251236E+03  0.41811071614E+03 -0.14798714984E+04  0.15526158598E+04  0.95187174641E+02 0.  0.
         13    1    3    3    0    0 -0.10662800665E+03  0.30735812658E+03 -0.11306282814E+04  0.11765028094E+04  0.00000000000E+00 0. -1.
        -13    1    3    3    0    0 -0.84994505707E+02  0.11075258956E+03 -0.34924321692E+03  0.37611305038E+03  0.00000000000E+00 0.  1.
         22    1    1    2    0    0  0.19162251236E+03 -0.41811071614E+03 -0.18549698006E+03  0.49592830914E+03  0.00000000000E+00 0. -1.
<mgrwt>
<rscale>  0 0.11929296E+04</rscale>
<asrwt>0</asrwt>
<pdfrwt beam="1">  1        2 0.28568558E+00 0.11929296E+04</pdfrwt>
<pdfrwt beam="2">  1       -2 0.29475054E-01 0.11929296E+04</pdfrwt>
<totfact> 0.83980898E+01</totfact>
</mgrwt>
</event>
<event>
 6    1  0.5026615E-004  0.2659010E+04  0.7818608E-02  0.8348429E-01
         -2   -1    0    0    0  501 -0.00000000000E+00  0.00000000000E+00  0.76308197948E+03  0.76308197948E+03  0.00000000000E+00 0. -1.
          2   -1    0    0  501    0  0.00000000000E+00 -0.00000000000E+00 -0.23163747149E+04  0.23163747149E+04  0.00000000000E+00 0.  1.
         23    2    1    2    0    0 -0.16991307275E+03  0.66159393353E+03 -0.20963937431E+04  0.22067965717E+04  0.92235553900E+02 0.  0.
         11    1    3    3    0    0 -0.61851671397E+02  0.22571368359E+03 -0.86385870539E+03  0.89499953022E+03  0.00000000000E+00 0.  1.
        -11    1    3    3    0    0 -0.10806140135E+03  0.43588024994E+03 -0.12325350378E+04  0.13117970415E+04  0.00000000000E+00 0. -1.
         22    1    1    2    0    0  0.16991307275E+03 -0.66159393353E+03  0.54310100770E+03  0.87266012270E+03  0.00000000000E+00 0. -1.
<mgrwt>
<rscale>  0 0.26590102E+04</rscale>
<asrwt>0</asrwt>
<pdfrwt beam="1">  1        2 0.35636534E+00 0.26590102E+04</pdfrwt>
<pdfrwt beam="2">  1       -2 0.11739723E+00 0.26590102E+04</pdfrwt>
<totfact> 0.21894618E+00</totfact>
</mgrwt>
</event>
<event>
 6    1  0.5026615E-004  0.1162358E+04  0.7818608E-02  0.9146457E-01
          2   -1    0    0  501    0  0.00000000000E+00  0.00000000000E+00  0.13047928388E+04  0.13047928388E+04  0.00000000000E+00 0. -1.
         -2   -1    0    0    0  501 -0.00000000000E+00 -0.00000000000E+00 -0.25886813949E+03  0.25886813949E+03  0.00000000000E+00 0.  1.
         23    2    1    2    0    0 -0.25134115124E+03  0.55845106309E+02 -0.16915678550E+03  0.32160056713E+03  0.92313901959E+02 0.  0.
         13    1    3    3    0    0 -0.11134389949E+03  0.47100098871E+01 -0.12208351508E+03  0.16529982698E+03  0.00000000000E+00 0. -1.
        -13    1    3    3    0    0 -0.13999725175E+03  0.51135096422E+02 -0.47073270424E+02  0.15630074015E+03  0.00000000000E+00 0.  1.
         22    1    1    2    0    0  0.25134115124E+03 -0.55845106309E+02  0.12150814848E+04  0.12420604112E+04  0.00000000000E+00 0. -1.
<mgrwt>
<rscale>  0 0.11623585E+04</rscale>
<asrwt>0</asrwt>
<pdfrwt beam="1">  1        2 0.20073736E+00 0.11623585E+04</pdfrwt>
<pdfrwt beam="2">  1       -2 0.39825868E-01 0.11623585E+04</pdfrwt>
<totfact> 0.96843169E+01</totfact>
</mgrwt>
</event>
<event>
 6    1  0.5026615E-004  0.1221981E+04  0.7818608E-02  0.9093831E-01
         -2   -1    0    0    0  501 -0.00000000000E+00  0.00000000000E+00  0.75729180536E+03  0.75729180536E+03  0.00000000000E+00 0. -1.
          2   -1    0    0  501    0  0.00000000000E+00 -0.00000000000E+00 -0.49295299392E+03  0.49295299392E+03  0.00000000000E+00 0.  1.
         23    2    1    2    0    0  0.37319824064E+03  0.23468832370E+03 -0.29497227788E+03  0.53807597748E+03  0.90341445226E+02 0.  0.
         13    1    3    3    0    0  0.25245701771E+03  0.17158031995E+03 -0.15349185974E+03  0.34166372794E+03  0.00000000000E+00 0. -1.
        -13    1    3    3    0    0  0.12074122293E+03  0.63108003750E+02 -0.14148041813E+03  0.19641224954E+03  0.00000000000E+00 0.  1.
         22    1    1    2    0    0 -0.37319824064E+03 -0.23468832370E+03  0.55931108932E+03  0.71216882180E+03  0.00000000000E+00 0.  1.
<mgrwt>
<rscale>  0 0.12219808E+04</rscale>
<asrwt>0</asrwt>
<pdfrwt beam="1">  1        2 0.75838922E-01 0.12219808E+04</pdfrwt>
<pdfrwt beam="2">  1       -2 0.11650643E+00 0.12219808E+04</pdfrwt>
<totfact> 0.35226009E+01</totfact>
</mgrwt>
</event>
<event>
 6    1  0.5026615E-004  0.1757572E+04  0.7818608E-02  0.8729193E-01
          2   -1    0    0  501    0  0.00000000000E+00  0.00000000000E+00  0.45001764345E+03  0.45001764345E+03  0.00000000000E+00 0.  1.
         -2   -1    0    0    0  501 -0.00000000000E+00 -0.00000000000E+00 -0.17160769166E+04  0.17160769166E+04  0.00000000000E+00 0. -1.
         23    2    1    2    0    0  0.25943201110E+03 -0.15275023843E+03 -0.16490833304E+04  0.16789138624E+04  0.92942578347E+02 0.  0.
         11    1    3    3    0    0  0.12562937889E+03 -0.79052651284E+02 -0.56722741501E+03  0.58632670317E+03  0.00000000000E+00 0. -1.
        -11    1    3    3    0    0  0.13380263222E+03 -0.73697587150E+02 -0.10818559154E+04  0.10925871592E+04  0.00000000000E+00 0.  1.
         22    1    1    2    0    0 -0.25943201110E+03  0.15275023843E+03  0.38302405728E+03  0.48718069767E+03  0.00000000000E+00 0.  1.
<mgrwt>
<rscale>  0 0.17575721E+04</rscale>
<asrwt>0</asrwt>
<pdfrwt beam="1">  1        2 0.69233484E-01 0.17575721E+04</pdfrwt>
<pdfrwt beam="2">  1       -2 0.26401183E+00 0.17575721E+04</pdfrwt>
<totfact> 0.34751059E+00</totfact>
</mgrwt>
</event>
<event>
 6    1  0.5026615E-004  0.2273025E+04  0.7818608E-02  0.8488633E-01
          2   -1    0    0  501    0  0.00000000000E+00  0.00000000000E+00  0.29950827035E+04  0.29950827035E+04  0.00000000000E+00 0.  1.
         -2   -1    0    0    0  501 -0.00000000000E+00 -0.00000000000E+00 -0.43126048056E+03  0.43126048056E+03  0.00000000000E+00 0. -1.
         23    2    1    2    0    0 -0.70902406920E+03 -0.16767311778E+03  0.25952448327E+04  0.26970854892E+04  0.90249593455E+02 0.  0.
         13    1    3    3    0    0 -0.39780746914E+03 -0.11494882763E+03  0.16169022430E+04  0.16690826459E+04  0.00000000000E+00 0.  1.
        -13    1    3    3    0    0 -0.31121660006E+03 -0.52724290157E+02  0.97834258971E+03  0.10280028433E+04  0.00000000000E+00 0. -1.
         22    1    1    2    0    0  0.70902406920E+03  0.16767311778E+03 -0.31422609775E+02  0.72925769488E+03  0.00000000000E+00 0. -1.
<mgrwt>
<rscale>  0 0.22730251E+04</rscale>
<asrwt>0</asrwt>
<pdfrwt beam="1">  1        2 0.46078194E+00 0.22730251E+04</pdfrwt>
<pdfrwt beam="2">  1       -2 0.66347768E-01 0.22730251E+04</pdfrwt>
<totfact> 0.33307739E+00</totfact>
</mgrwt>
</event>
<event>
 6    1  0.5026615E-004  0.3200351E+04  0.7818608E-02  0.8188724E-01
         -2   -1    0    0    0  501 -0.00000000000E+00  0.00000000000E+00  0.28840980756E+04  0.28840980756E+04  0.00000000000E+00 0. -1.
          2   -1    0    0  501    0  0.00000000000E+00 -0.00000000000E+00 -0.88782064048E+03  0.88782064048E+03  0.00000000000E+00 0.  1.
         23    2    1    2    0    0  0.44988621241E+03  0.12663643878E+04 -0.22746678772E+02  0.13465249874E+04  0.80844069151E+02 0.  0.
         11    1    3    3    0    0  0.34538825524E+03  0.95850539898E+03  0.17118551671E+02  0.10189792400E+04  0.00000000000E+00 0.  1.
        -11    1    3    3    0    0  0.10449795717E+03  0.30785898879E+03 -0.39865230444E+02  0.32754574739E+03  0.00000000000E+00 0. -1.
         22    1    1    2    0    0 -0.44988621241E+03 -0.12663643878E+04  0.20190241139E+04  0.24253937287E+04  0.00000000000E+00 0.  1.
<mgrwt>
<rscale>  0 0.32003511E+04</rscale>
<asrwt>0</asrwt>
<pdfrwt beam="1">  1        2 0.13658779E+00 0.32003511E+04</pdfrwt>
<pdfrwt beam="2">  1       -2 0.44370739E+00 0.32003511E+04</pdfrwt>
<totfact> 0.96000268E-02</totfact>
</mgrwt>
</event>
<event>
 6    1  0.5026615E-004  0.2661037E+04  0.7818608E-02  0.8347759E-01
         -2   -1    0    0    0  501 -0.00000000000E+00  0.00000000000E+00  0.75159324631E+03  0.75159324631E+03  0.00000000000E+00 0. -1.
          2   -1    0    0  501    0  0.00000000000E+00 -0.00000000000E+00 -0.23553692141E+04  0.23553692141E+04  0.00000000000E+00 0.  1.
         23    2    1    2    0    0  0.10832607471E+04 -0.48162781812E+03 -0.15042189324E+04  0.19172856956E+04  0.88829277600E+02 0.  0.
         13    1    3    3    0    0  0.87610278000E+03 -0.36782179149E+03 -0.12503279099E+04  0.15704040352E+04  0.00000000000E+00 0.  1.
        -13    1    3    3    0    0  0.20715796712E+03 -0.11380602663E+03 -0.25389102249E+03  0.34688166043E+03  0.00000000000E+00 0. -1.
         22    1    1    2    0    0 -0.10832607471E+04  0.48162781812E+03 -0.99557035402E+02  0.11896767648E+04  0.00000000000E+00 0.  1.
<mgrwt>
<rscale>  0 0.26610371E+04</rscale>
<asrwt>0</asrwt>
<pdfrwt beam="1">  1        2 0.36236450E+00 0.26610371E+04</pdfrwt>
<pdfrwt beam="2">  1       -2 0.11562973E+00 0.26610371E+04</pdfrwt>
<totfact> 0.21586548E+00</totfact>
</mgrwt>
</event>
<event>
 6    1  0.5026615E-004  0.2059661E+04  0.7818608E-02  0.8579224E-01
         -2   -1    0    0    0  501 -0.00000000000E+00  0.00000000000E+00  0.56478986316E+03  0.56478986316E+03  0.00000000000E+00 0. -1.
          2   -1    0    0  501    0  0.00000000000E+00 -0.00000000000E+00 -0.18777792919E+04  0.18777792919E+04  0.00000000000E+00 0.  1.
         23    2    1    2    0    0  0.57959162370E+03 -0.60545713081E+03  0.47340005193E+02  0.84475785320E+03  0.94180501877E+02 0.  0.
         13    1    3    3    0    0  0.13345337301E+03 -0.86387821534E+02  0.10192935716E+02  0.15930020219E+03  0.00000000000E+00 0.  1.
        -13    1    3    3    0    0  0.44613825069E+03 -0.51906930928E+03  0.37147069477E+02  0.68545765101E+03  0.00000000000E+00 0. -1.
         22    1    1    2    0    0 -0.57959162370E+03  0.60545713081E+03 -0.13603294339E+04  0.15978113018E+04  0.00000000000E+00 0.  1.
<mgrwt>
<rscale>  0 0.20596609E+04</rscale>
<asrwt>0</asrwt>
<pdfrwt beam="1">  1        2 0.28888912E+00 0.20596609E+04</pdfrwt>
<pdfrwt beam="2">  1       -2 0.86890749E-01 0.20596609E+04</pdfrwt>
<totfact> 0.82758157E+00</totfact>
</mgrwt>
</event>
<event>
 6    1  0.5026615E-004  0.2723347E+04  0.7818608E-02  0.8327469E-01
          2   -1    0    0  501    0  0.00000000000E+00  0.00000000000E+00  0.18387805725E+04  0.18387805725E+04  0.00000000000E+00 0.  1.
         -2   -1    0    0    0  501 -0.00000000000E+00 -0.00000000000E+00 -0.10083613251E+04  0.10083613251E+04  0.00000000000E+00 0. -1.
         23    2    1    2    0    0 -0.40965184870E+03 -0.62019923459E+03 -0.77503240757E+03  0.10779791735E+04  0.94351142472E+02 0.  0.
         13    1    3    3    0    0 -0.30257991766E+03 -0.39000154129E+03 -0.54606728848E+03  0.73610141444E+03  0.00000000000E+00 0. -1.
        -13    1    3    3    0    0 -0.10707193103E+03 -0.23019769329E+03 -0.22896511909E+03  0.34187775911E+03  0.00000000000E+00 0.  1.
         22    1    1    2    0    0  0.40965184870E+03  0.62019923459E+03  0.16054516549E+04  0.17691627240E+04  0.00000000000E+00 0.  1.
<mgrwt>
<rscale>  0 0.27233474E+04</rscale>
<asrwt>0</asrwt>
<pdfrwt beam="1">  1        2 0.28288932E+00 0.27233474E+04</pdfrwt>
<pdfrwt beam="2">  1       -2 0.15513251E+00 0.27233474E+04</pdfrwt>
<totfact> 0.19696228E+00</totfact>
</mgrwt>
</event>
<event>
 6    1  0.5026615E-004  0.3203846E+04  0.7818608E-02  0.8187802E-01
         -2   -1    0    0    0  501 -0.00000000000E+00  0.00000000000E+00  0.24359783020E+04  0.24359783020E+04  0.00000000000E+00 0. -1.
          2   -1    0    0  501    0  0.00000000000E+00 -0.00000000000E+00 -0.10534400027E+04  0.10534400027E+04  0.00000000000E+00 0.  1.
         23    2    1    2    0    0  0.70390372487E+02  0.12457900179E+04  0.17837374721E+04  0.21787282766E+04  0.90498399901E+02 0.  0.
         11    1    3    3    0    0  0.14637310057E+02  0.91384770528E+03  0.12760518870E+04  0.15695987696E+04  0.00000000000E+00 0. -1.
        -11    1    3    3    0    0  0.55753062430E+02  0.33194231267E+03  0.50768558513E+03  0.60912950697E+03  0.00000000000E+00 0.  1.
         22    1    1    2    0    0 -0.70390372487E+02 -0.12457900179E+04 -0.40119917281E+03  0.13106900280E+04  0.00000000000E+00 0.  1.
<mgrwt>
<rscale>  0 0.32038458E+04</rscale>
<asrwt>0</asrwt>
<pdfrwt beam="1">  1        2 0.16206769E+00 0.32038458E+04</pdfrwt>
<pdfrwt beam="2">  1       -2 0.37476589E+00 0.32038458E+04</pdfrwt>
<totfact> 0.21202774E-01</totfact>
</mgrwt>
</event>
<event>
 6    1  0.5026615E-004  0.2717845E+04  0.7818608E-02  0.8329238E-01
          2   -1    0    0  501    0  0.00000000000E+00  0.00000000000E+00  0.10740761735E+04  0.10740761735E+04  0.00000000000E+00 0.  1.
         -2   -1    0    0    0  501 -0.00000000000E+00 -0.00000000000E+00 -0.17193104486E+04  0.17193104486E+04  0.00000000000E+00 0. -1.
         23    2    1    2    0    0  0.68395595203E+03  0.10369863362E+04 -0.88539320147E+03  0.15281543447E+04  0.90543769422E+02 0.  0.
         13    1    3    3    0    0  0.25153851377E+03  0.45984982395E+03 -0.38673001201E+03  0.65137822091E+03  0.00000000000E+00 0.  1.
        -13    1    3    3    0    0  0.43241743826E+03  0.57713651228E+03 -0.49866318946E+03  0.87677612379E+03  0.00000000000E+00 0. -1.
         22    1    1    2    0    0 -0.68395595203E+03 -0.10369863362E+04  0.24015892631E+03  0.12652322774E+04  0.00000000000E+00 0. -1.
<mgrwt>
<rscale>  0 0.27178450E+04</rscale>
<asrwt>0</asrwt>
<pdfrwt beam="1">  1        2 0.16524249E+00 0.27178450E+04</pdfrwt>
<pdfrwt beam="2">  1       -2 0.26450930E+00 0.27178450E+04</pdfrwt>
<totfact> 0.10369933E+00</totfact>
</mgrwt>
</event>
<event>
 6    1  0.5026615E-004  0.4240649E+04  0.7818608E-02  0.7957685E-01
          2   -1    0    0  501    0  0.00000000000E+00  0.00000000000E+00  0.15053915025E+04  0.15053915025E+04  0.00000000000E+00 0.  1.
         -2   -1    0    0    0  501 -0.00000000000E+00 -0.00000000000E+00 -0.29864490404E+04  0.29864490404E+04  0.00000000000E+00 0. -1.
         23    2    1    2    0    0  0.21151691352E+04 -0.10164185812E+03 -0.63705858036E+03  0.22122340466E+04  0.62163528211E+02 0.  0.
         13    1    3    3    0    0  0.20189277732E+04 -0.88695441799E+02 -0.61814956485E+03  0.21133019470E+04  0.00000000000E+00 0. -1.
        -13    1    3    3    0    0  0.96241362006E+02 -0.12946416319E+02 -0.18909015511E+02  0.98932099562E+02  0.00000000000E+00 0.  1.
         22    1    1    2    0    0 -0.21151691352E+04  0.10164185812E+03 -0.84399895752E+03  0.22796064963E+04  0.00000000000E+00 0. -1.
<mgrwt>
<rscale>  0 0.42406485E+04</rscale>
<asrwt>0</asrwt>
<pdfrwt beam="1">  1        2 0.23159870E+00 0.42406485E+04</pdfrwt>
<pdfrwt beam="2">  1       -2 0.45945369E+00 0.42406485E+04</pdfrwt>
<totfact> 0.29347730E-02</totfact>
</mgrwt>
</event>
<event>
 6    1  0.5026615E-004  0.1733075E+04  0.7818608E-02  0.8742722E-01
         -2   -1    0    0    0  501 -0.00000000000E+00  0.00000000000E+00  0.14852493357E+04  0.14852493357E+04  0.00000000000E+00 0. -1.
          2   -1    0    0  501    0  0.00000000000E+00 -0.00000000000E+00 -0.50556301214E+03  0.50556301214E+03  0.00000000000E+00 0.  1.
         23    2    1    2    0    0 -0.83313513511E+03 -0.44810581347E+02  0.23305022086E+03  0.87117508003E+03  0.92257645049E+02 0.  0.
         11    1    3    3    0    0 -0.22417601477E+03 -0.49946292567E+02  0.47267121749E+02  0.23448603058E+03  0.00000000000E+00 0. -1.
        -11    1    3    3    0    0 -0.60895912035E+03  0.51357112198E+01  0.18578309911E+03  0.63668904946E+03  0.00000000000E+00 0.  1.
         22    1    1    2    0    0  0.83313513511E+03  0.44810581347E+02  0.74663610266E+03  0.11196372678E+04  0.00000000000E+00 0. -1.
<mgrwt>
<rscale>  0 0.17330749E+04</rscale>
<asrwt>0</asrwt>
<pdfrwt beam="1">  1        2 0.77778926E-01 0.17330749E+04</pdfrwt>
<pdfrwt beam="2">  1       -2 0.22849990E+00 0.17330749E+04</pdfrwt>
<totfact> 0.50380889E+00</totfact>
</mgrwt>
</event>
<event>
 6    1  0.5026615E-004  0.1715583E+04  0.7818608E-02  0.8752526E-01
         -2   -1    0    0    0  501 -0.00000000000E+00  0.00000000000E+00  0.11629917956E+04  0.11629917956E+04  0.00000000000E+00 0. -1.
          2   -1    0    0  501    0  0.00000000000E+00 -0.00000000000E+00 -0.63268416309E+03  0.63268416309E+03  0.00000000000E+00 0.  1.
         23    2    1    2    0    0  0.85075178606E+03 -0.33694873396E+01  0.17640857036E+03  0.87424527706E+03  0.96927116087E+02 0.  0.
         13    1    3    3    0    0  0.31644665703E+03 -0.17825659905E+02  0.21156130524E+02  0.31765362071E+03  0.00000000000E+00 0. -1.
        -13    1    3    3    0    0  0.53430512903E+03  0.14456172565E+02  0.15525243983E+03  0.55659165634E+03  0.00000000000E+00 0.  1.
         22    1    1    2    0    0 -0.85075178606E+03  0.33694873396E+01  0.35389906220E+03  0.92143068169E+03  0.00000000000E+00 0.  1.
<mgrwt>
<rscale>  0 0.17155833E+04</rscale>
<asrwt>0</asrwt>
<pdfrwt beam="1">  1        2 0.97336025E-01 0.17155833E+04</pdfrwt>
<pdfrwt beam="2">  1       -2 0.17892181E+00 0.17155833E+04</pdfrwt>
<totfact> 0.81431229E+00</totfact>
</mgrwt>
</event>
<event>
 6    1  0.5026615E-004  0.1236210E+04  0.7818608E-02  0.9081739E-01
         -2   -1    0    0    0  501 -0.00000000000E+00  0.00000000000E+00  0.38682215348E+03  0.38682215348E+03  0.00000000000E+00 0. -1.
          2   -1    0    0  501    0  0.00000000000E+00 -0.00000000000E+00 -0.98767335778E+03  0.98767335778E+03  0.00000000000E+00 0.  1.
         23    2    1    2    0    0  0.44409669831E+03  0.16181331503E+03  0.13480825096E+03  0.50008127275E+03  0.92209481392E+02 0.  0.
         11    1    3    3    0    0  0.42588636503E+03  0.15856756616E+03  0.14734265770E+03  0.47773709060E+03  0.00000000000E+00 0. -1.
        -11    1    3    3    0    0  0.18210333280E+02  0.32457488673E+01 -0.12534406734E+02  0.22344182152E+02  0.00000000000E+00 0.  1.
         22    1    1    2    0    0 -0.44409669831E+03 -0.16181331503E+03 -0.73565945527E+03  0.87441423850E+03  0.00000000000E+00 0.  1.
<mgrwt>
<rscale>  0 0.12362102E+04</rscale>
<asrwt>0</asrwt>
<pdfrwt beam="1">  1        2 0.15194975E+00 0.12362102E+04</pdfrwt>
<pdfrwt beam="2">  1       -2 0.59511101E-01 0.12362102E+04</pdfrwt>
<totfact> 0.66556572E+01</totfact>
</mgrwt>
</event>
<event>
 6    1  0.5026615E-004  0.8478107E+03  0.7818608E-02  0.9493280E-01
          2   -1    0    0  501    0  0.00000000000E+00  0.00000000000E+00  0.22834076459E+04  0.22834076459E+04  0.00000000000E+00 0.  1.
         -2   -1    0    0    0  501 -0.00000000000E+00 -0.00000000000E+00 -0.78696308242E+02  0.78696308242E+02  0.00000000000E+00 0. -1.
         23    2    1    2    0    0  0.47877129300E+02 -0.35795806314E+03  0.52768490693E+03  0.64663205293E+03  0.96205282598E+02 0.  0.
         13    1    3    3    0    0  0.43224753644E+02 -0.16180831083E+03  0.16984735844E+03  0.23853392620E+03  0.00000000000E+00 0. -1.
        -13    1    3    3    0    0  0.46523756568E+01 -0.19614975231E+03  0.35783754848E+03  0.40809812672E+03  0.00000000000E+00 0.  1.
         22    1    1    2    0    0 -0.47877129300E+02  0.35795806314E+03  0.16770264308E+04  0.17154719012E+04  0.00000000000E+00 0.  1.
<mgrwt>
<rscale>  0 0.84781071E+03</rscale>
<asrwt>0</asrwt>
<pdfrwt beam="1">  1        2 0.35129343E+00 0.84781071E+03</pdfrwt>
<pdfrwt beam="2">  1       -2 0.12107126E-01 0.84781071E+03</pdfrwt>
<totfact> 0.23758237E+02</totfact>
</mgrwt>
</event>
<event>
 6    1  0.5026615E-004  0.3814632E+04  0.7818608E-02  0.8043022E-01
         -2   -1    0    0    0  501 -0.00000000000E+00  0.00000000000E+00  0.16510758539E+04  0.16510758539E+04  0.00000000000E+00 0. -1.
          2   -1    0    0  501    0  0.00000000000E+00 -0.00000000000E+00 -0.22033231708E+04  0.22033231708E+04  0.00000000000E+00 0.  1.
         23    2    1    2    0    0  0.41835444181E+03 -0.16629520740E+04  0.56668823490E+03  0.18068524908E+04  0.56127786670E+02 0.  0.
         13    1    3    3    0    0  0.95564520699E+02 -0.47589336789E+03  0.15035426698E+03  0.50814710549E+03  0.00000000000E+00 0.  1.
        -13    1    3    3    0    0  0.32278992111E+03 -0.11870587062E+04  0.41633396792E+03  0.12987053853E+04  0.00000000000E+00 0. -1.
         22    1    1    2    0    0 -0.41835444181E+03  0.16629520740E+04 -0.11189355517E+04  0.20475465339E+04  0.00000000000E+00 0. -1.
<mgrwt>
<rscale>  0 0.38146317E+04</rscale>
<asrwt>0</asrwt>
<pdfrwt beam="1">  1        2 0.33897279E+00 0.38146317E+04</pdfrwt>
<pdfrwt beam="2">  1       -2 0.25401167E+00 0.38146317E+04</pdfrwt>
<totfact> 0.25001819E-01</totfact>
</mgrwt>
</event>
<event>
 6    1  0.5026615E-004  0.2640670E+04  0.7818608E-02  0.8354516E-01
          2   -1    0    0  501    0  0.00000000000E+00  0.00000000000E+00  0.10325843135E+04  0.10325843135E+04  0.00000000000E+00 0. -1.
         -2   -1    0    0    0  501 -0.00000000000E+00 -0.00000000000E+00 -0.16882730849E+04  0.16882730849E+04  0.00000000000E+00 0.  1.
         23    2    1    2    0    0 -0.62468460224E+03 -0.76383995138E+03 -0.12297132726E+04  0.15792854770E+04  0.90915133891E+02 0.  0.
         13    1    3    3    0    0 -0.17004770100E+03 -0.19124855174E+03 -0.38244714366E+03  0.46017175799E+03  0.00000000000E+00 0. -1.
        -13    1    3    3    0    0 -0.45463690124E+03 -0.57259139964E+03 -0.84726612896E+03  0.11191137191E+04  0.00000000000E+00 0.  1.
         22    1    1    2    0    0  0.62468460224E+03  0.76383995138E+03  0.57402450118E+03  0.11415719213E+04  0.00000000000E+00 0. -1.
<mgrwt>
<rscale>  0 0.26406698E+04</rscale>
<asrwt>0</asrwt>
<pdfrwt beam="1">  1        2 0.15885912E+00 0.26406698E+04</pdfrwt>
<pdfrwt beam="2">  1       -2 0.25973432E+00 0.26406698E+04</pdfrwt>
<totfact> 0.11852987E+00</totfact>
</mgrwt>
</event>
<event>
 6    1  0.5026615E-004  0.1496587E+04  0.7818608E-02  0.8886725E-01
          2   -1    0    0  501    0  0.00000000000E+00  0.00000000000E+00  0.37973832006E+04  0.37973832006E+04  0.00000000000E+00 0.  1.
         -2   -1    0    0    0  501 -0.00000000000E+00 -0.00000000000E+00 -0.14745509146E+03  0.14745509146E+03  0.00000000000E+00 0. -1.
         23    2    1    2    0    0  0.59659822589E+03 -0.38248117313E+02  0.65801997871E+03  0.89378820683E+03  0.92058159260E+02 0.  0.
         11    1    3    3    0    0  0.37564216015E+03  0.90727787803E+01  0.36591991075E+03  0.52448711031E+03  0.00000000000E+00 0.  1.
        -11    1    3    3    0    0  0.22095606574E+03 -0.47320896094E+02  0.29210006796E+03  0.36930109653E+03  0.00000000000E+00 0. -1.
         22    1    1    2    0    0 -0.59659822589E+03  0.38248117313E+02  0.29919081304E+04  0.30510500852E+04  0.00000000000E+00 0.  1.
<mgrwt>
<rscale>  0 0.14965874E+04</rscale>
<asrwt>0</asrwt>
<pdfrwt beam="1">  1        2 0.58421273E+00 0.14965874E+04</pdfrwt>
<pdfrwt beam="2">  1       -2 0.22685402E-01 0.14965874E+04</pdfrwt>
<totfact> 0.83120152E+00</totfact>
</mgrwt>
</event>
<event>
 6    1  0.5026615E-004  0.1602312E+04  0.7818608E-02  0.8819129E-01
         -2   -1    0    0    0  501 -0.00000000000E+00  0.00000000000E+00  0.36336681333E+03  0.36336681333E+03  0.00000000000E+00 0. -1.
          2   -1    0    0  501    0  0.00000000000E+00 -0.00000000000E+00 -0.17663990987E+04  0.17663990987E+04  0.00000000000E+00 0.  1.
         23    2    1    2    0    0  0.34826830095E+03 -0.30334558705E+03 -0.15696382757E+04  0.16387802598E+04  0.92342129392E+02 0.  0.
         11    1    3    3    0    0  0.17320540705E+03 -0.14675632102E+03 -0.93224121593E+03  0.95948486985E+03  0.00000000000E+00 0. -1.
        -11    1    3    3    0    0  0.17506289389E+03 -0.15658926603E+03 -0.63739705978E+03  0.67929539000E+03  0.00000000000E+00 0.  1.
         22    1    1    2    0    0 -0.34826830095E+03  0.30334558705E+03  0.16660599034E+03  0.49098565218E+03  0.00000000000E+00 0. -1.
<mgrwt>
<rscale>  0 0.16023118E+04</rscale>
<asrwt>0</asrwt>
<pdfrwt beam="1">  1        2 0.27175371E+00 0.16023118E+04</pdfrwt>
<pdfrwt beam="2">  1       -2 0.55902586E-01 0.16023118E+04</pdfrwt>
<totfact> 0.25951517E+01</totfact>
</mgrwt>
</event>
<event>
 6    1  0.5026615E-004  0.2009597E+04  0.7818608E-02  0.8602147E-01
          2   -1    0    0  501    0  0.00000000000E+00  0.00000000000E+00  0.19111312585E+04  0.19111312585E+04  0.00000000000E+00 0.  1.
         -2   -1    0    0    0  501 -0.00000000000E+00 -0.00000000000E+00 -0.52828404244E+03  0.52828404244E+03  0.00000000000E+00 0. -1.
         23    2    1    2    0    0  0.71976455467E+03  0.51396906081E+03  0.12665716386E+04  0.15473697754E+04  0.89018517726E+02 0.  0.
         11    1    3    3    0    0  0.35144234675E+03  0.22124854709E+03  0.52923302393E+03  0.67271854166E+03  0.00000000000E+00 0.  1.
        -11    1    3    3    0    0  0.36832220792E+03  0.29272051373E+03  0.73733861470E+03  0.87465123377E+03  0.00000000000E+00 0. -1.
         22    1    1    2    0    0 -0.71976455467E+03 -0.51396906081E+03  0.11627557739E+03  0.89204552548E+03  0.00000000000E+00 0. -1.
<mgrwt>
<rscale>  0 0.20095971E+04</rscale>
<asrwt>0</asrwt>
<pdfrwt beam="1">  1        2 0.29402019E+00 0.20095971E+04</pdfrwt>
<pdfrwt beam="2">  1       -2 0.81274469E-01 0.20095971E+04</pdfrwt>
<totfact> 0.92693966E+00</totfact>
</mgrwt>
</event>
<event>
 6    1  0.5026615E-004  0.1488027E+04  0.7818608E-02  0.8892454E-01
          2   -1    0    0  501    0  0.00000000000E+00  0.00000000000E+00  0.60949947820E+03  0.60949947820E+03  0.00000000000E+00 0.  1.
         -2   -1    0    0    0  501 -0.00000000000E+00 -0.00000000000E+00 -0.90821428340E+03  0.90821428340E+03  0.00000000000E+00 0. -1.
         23    2    1    2    0    0 -0.33621127289E+03  0.41582493990E+03  0.37374998731E+03  0.65855295139E+03  0.89747067439E+02 0.  0.
         11    1    3    3    0    0 -0.15187818643E+03  0.25849385387E+03  0.21170730455E+03  0.36702321289E+03  0.00000000000E+00 0. -1.
        -11    1    3    3    0    0 -0.18433308646E+03  0.15733108603E+03  0.16204268275E+03  0.29152973850E+03  0.00000000000E+00 0.  1.
         22    1    1    2    0    0  0.33621127289E+03 -0.41582493990E+03 -0.67246479250E+03  0.85916081022E+03  0.00000000000E+00 0. -1.
<mgrwt>
<rscale>  0 0.14880271E+04</rscale>
<asrwt>0</asrwt>
<pdfrwt beam="1">  1        2 0.93769150E-01 0.14880271E+04</pdfrwt>
<pdfrwt beam="2">  1       -2 0.13972527E+00 0.14880271E+04</pdfrwt>
<totfact> 0.16977495E+01</totfact>
</mgrwt>
</event>
<event>
 6    1  0.5026615E-004  0.2536635E+04  0.7818608E-02  0.8390049E-01
         -2   -1    0    0    0  501 -0.00000000000E+00  0.00000000000E+00  0.53463690644E+03  0.53463690644E+03  0.00000000000E+00 0. -1.
          2   -1    0    0  501    0  0.00000000000E+00 -0.00000000000E+00 -0.30088251590E+04  0.30088251590E+04  0.00000000000E+00 0.  1.
         23    2    1    2    0    0  0.86459780040E+03 -0.63110588347E+03 -0.29291693823E+03  0.11136948874E+04  0.93230772668E+02 0.  0.
         13    1    3    3    0    0  0.35883508253E+03 -0.28977463687E+03 -0.16800200399E+03  0.49087333394E+03  0.00000000000E+00 0.  1.
        -13    1    3    3    0    0  0.50576271787E+03 -0.34133124659E+03 -0.12491493424E+03  0.62282155348E+03  0.00000000000E+00 0. -1.
         22    1    1    2    0    0 -0.86459780040E+03  0.63110588347E+03 -0.21812713143E+04  0.24297671780E+04  0.00000000000E+00 0.  1.
<mgrwt>
<rscale>  0 0.25366348E+04</rscale>
<asrwt>0</asrwt>
<pdfrwt beam="1">  1        2 0.46289617E+00 0.25366348E+04</pdfrwt>
<pdfrwt beam="2">  1       -2 0.82251832E-01 0.25366348E+04</pdfrwt>
<totfact> 0.19847583E+00</totfact>
</mgrwt>
</event>
<event>
 6    1  0.5026615E-004  0.3607771E+04  0.7818608E-02  0.8088714E-01
         -2   -1    0    0    0  501 -0.00000000000E+00  0.00000000000E+00  0.29355366853E+04  0.29355366853E+04  0.00000000000E+00 0. -1.
          2   -1    0    0  501    0  0.00000000000E+00 -0.00000000000E+00 -0.11084865983E+04  0.11084865983E+04  0.00000000000E+00 0.  1.
         23    2    1    2    0    0 -0.21298732551E+03 -0.17875856245E+04  0.10206068202E+04  0.20714167065E+04  0.91120385914E+02 0.  0.
         13    1    3    3    0    0 -0.17280080513E+03 -0.13689676925E+04  0.73863229320E+03  0.15650911558E+04  0.00000000000E+00 0. -1.
        -13    1    3    3    0    0 -0.40186520384E+02 -0.41861793196E+03  0.28197452704E+03  0.50632555069E+03  0.00000000000E+00 0.  1.
         22    1    1    2    0    0  0.21298732551E+03  0.17875856245E+04  0.80644326678E+03  0.19726065771E+04  0.00000000000E+00 0.  1.
<mgrwt>
<rscale>  0 0.36077711E+04</rscale>
<asrwt>0</asrwt>
<pdfrwt beam="1">  1        2 0.17053640E+00 0.36077711E+04</pdfrwt>
<pdfrwt beam="2">  1       -2 0.45162102E+00 0.36077711E+04</pdfrwt>
<totfact> 0.59316817E-02</totfact>
</mgrwt>
</event>
<event>
 6    1  0.5026615E-004  0.1945408E+04  0.7818608E-02  0.8632578E-01
         -2   -1    0    0    0  501 -0.00000000000E+00  0.00000000000E+00  0.37049004951E+03  0.37049004951E+03  0.00000000000E+00 0.  1.
          2   -1    0    0  501    0  0.00000000000E+00 -0.00000000000E+00 -0.25537880346E+04  0.25537880346E+04  0.00000000000E+00 0. -1.
         23    2    1    2    0    0 -0.70675114951E+03 -0.46620674952E+03 -0.38061439305E+03  0.93266716487E+03  0.90303951121E+02 0.  0.
         13    1    3    3    0    0 -0.32396224345E+03 -0.23843451660E+03 -0.13678603062E+03  0.42486818198E+03  0.00000000000E+00 0. -1.
        -13    1    3    3    0    0 -0.38278890606E+03 -0.22777223292E+03 -0.24382836243E+03  0.50779898288E+03  0.00000000000E+00 0.  1.
         22    1    1    2    0    0  0.70675114951E+03  0.46620674952E+03 -0.18026835921E+04  0.19916109193E+04  0.00000000000E+00 0. -1.
<mgrwt>
<rscale>  0 0.19454080E+04</rscale>
<asrwt>0</asrwt>
<pdfrwt beam="1">  1        2 0.39289047E+00 0.19454080E+04</pdfrwt>
<pdfrwt beam="2">  1       -2 0.56998468E-01 0.19454080E+04</pdfrwt>
<totfact> 0.87291714E+00</totfact>
</mgrwt>
</event>
<event>
 6    1  0.5026615E-004  0.2391754E+04  0.7818608E-02  0.8442597E-01
          2   -1    0    0  501    0  0.00000000000E+00  0.00000000000E+00  0.15207648597E+04  0.15207648597E+04  0.00000000000E+00 0.  1.
         -2   -1    0    0    0  501 -0.00000000000E+00 -0.00000000000E+00 -0.94039617806E+03  0.94039617806E+03  0.00000000000E+00 0. -1.
         23    2    1    2    0    0 -0.88570560739E+03  0.75241683546E+03  0.78271435049E+01  0.11656266576E+04  0.89547325469E+02 0.  0.
         13    1    3    3    0    0 -0.12886278477E+03  0.11080601698E+03 -0.30557760115E+02  0.17267706101E+03  0.00000000000E+00 0.  1.
        -13    1    3    3    0    0 -0.75684282262E+03  0.64161081848E+03  0.38384903620E+02  0.99294959659E+03  0.00000000000E+00 0. -1.
         22    1    1    2    0    0  0.88570560739E+03 -0.75241683546E+03  0.57254153811E+03  0.12955343801E+04  0.00000000000E+00 0. -1.
<mgrwt>
<rscale>  0 0.23917537E+04</rscale>
<asrwt>0</asrwt>
<pdfrwt beam="1">  1        2 0.23396383E+00 0.23917537E+04</pdfrwt>
<pdfrwt beam="2">  1       -2 0.14467633E+00 0.23917537E+04</pdfrwt>
<totfact> 0.36652485E+00</totfact>
</mgrwt>
</event>
<event>
 6    1  0.5026615E-004  0.2002100E+04  0.7818608E-02  0.8605639E-01
         -2   -1    0    0    0  501 -0.00000000000E+00  0.00000000000E+00  0.59488291750E+03  0.59488291750E+03  0.00000000000E+00 0. -1.
          2   -1    0    0  501    0  0.00000000000E+00 -0.00000000000E+00 -0.16845352542E+04  0.16845352542E+04  0.00000000000E+00 0.  1.
         23    2    1    2    0    0 -0.30317637991E+03 -0.50051678696E+03 -0.14677570016E+04  0.15827144262E+04  0.90781978152E+02 0.  0.
         11    1    3    3    0    0 -0.23727294616E+03 -0.44403043150E+03 -0.12939062229E+04  0.13884000824E+04  0.00000000000E+00 0.  1.
        -11    1    3    3    0    0 -0.65903433749E+02 -0.56486355465E+02 -0.17385077870E+03  0.19431434376E+03  0.00000000000E+00 0. -1.
         22    1    1    2    0    0  0.30317637991E+03  0.50051678696E+03  0.37810466496E+03  0.69670374553E+03  0.00000000000E+00 0. -1.
<mgrwt>
<rscale>  0 0.20021001E+04</rscale>
<asrwt>0</asrwt>
<pdfrwt beam="1">  1        2 0.25915927E+00 0.20021001E+04</pdfrwt>
<pdfrwt beam="2">  1       -2 0.91520449E-01 0.20021001E+04</pdfrwt>
<totfact> 0.94466411E+00</totfact>
</mgrwt>
</event>
<event>
 6    1  0.5026615E-004  0.1895709E+04  0.7818608E-02  0.8656995E-01
         -2   -1    0    0    0  501 -0.00000000000E+00  0.00000000000E+00  0.94304336762E+03  0.94304336762E+03  0.00000000000E+00 0. -1.
          2   -1    0    0  501    0  0.00000000000E+00 -0.00000000000E+00 -0.95269061071E+03  0.95269061071E+03  0.00000000000E+00 0.  1.
         23    2    1    2    0    0 -0.43842260892E+03  0.69133627046E+03  0.46851096920E+03  0.94768572067E+03  0.91899260283E+02 0.  0.
         11    1    3    3    0    0 -0.34549982714E+03  0.49431984144E+03  0.37824767567E+03  0.71189433229E+03  0.00000000000E+00 0. -1.
        -11    1    3    3    0    0 -0.92922781777E+02  0.19701642902E+03  0.90263293534E+02  0.23579138838E+03  0.00000000000E+00 0.  1.
         22    1    1    2    0    0  0.43842260892E+03 -0.69133627046E+03 -0.47815821229E+03  0.94804825766E+03  0.00000000000E+00 0.  1.
<mgrwt>
<rscale>  0 0.18957094E+04</rscale>
<asrwt>0</asrwt>
<pdfrwt beam="1">  1        2 0.14656779E+00 0.18957094E+04</pdfrwt>
<pdfrwt beam="2">  1       -2 0.14508360E+00 0.18957094E+04</pdfrwt>
<totfact> 0.82872663E+00</totfact>
</mgrwt>
</event>
<event>
 6    1  0.5026615E-004  0.3913754E+04  0.7818608E-02  0.8022175E-01
          2   -1    0    0  501    0  0.00000000000E+00  0.00000000000E+00  0.25120686692E+04  0.25120686692E+04  0.00000000000E+00 0.  1.
         -2   -1    0    0    0  501 -0.00000000000E+00 -0.00000000000E+00 -0.15243884837E+04  0.15243884837E+04  0.00000000000E+00 0. -1.
         23    2    1    2    0    0  0.14063339324E+04  0.13432003169E+04  0.70899031719E+03  0.20718629802E+04  0.89368440416E+02 0.  0.
         11    1    3    3    0    0  0.10851849862E+04  0.10303805452E+04  0.58495021826E+03  0.16066976318E+04  0.00000000000E+00 0. -1.
        -11    1    3    3    0    0  0.32114894618E+03  0.31281977172E+03  0.12404009892E+03  0.46516534840E+03  0.00000000000E+00 0.  1.
         22    1    1    2    0    0 -0.14063339324E+04 -0.13432003169E+04  0.27868986828E+03  0.19645941727E+04  0.00000000000E+00 0. -1.
<mgrwt>
<rscale>  0 0.39137545E+04</rscale>
<asrwt>0</asrwt>
<pdfrwt beam="1">  1        2 0.38647210E+00 0.39137545E+04</pdfrwt>
<pdfrwt beam="2">  1       -2 0.23452131E+00 0.39137545E+04</pdfrwt>
<totfact> 0.21799747E-01</totfact>
</mgrwt>
</event>
<event>
 6    1  0.5026615E-004  0.4282338E+04  0.7818608E-02  0.7949892E-01
         -2   -1    0    0    0  501 -0.00000000000E+00  0.00000000000E+00  0.17888318364E+04  0.17888318364E+04  0.00000000000E+00 0. -1.
          2   -1    0    0  501    0  0.00000000000E+00 -0.00000000000E+00 -0.25629043588E+04  0.25629043588E+04  0.00000000000E+00 0.  1.
         23    2    1    2    0    0  0.25931507327E+03  0.19859316810E+04 -0.11538000388E+04  0.23132657059E+04  0.93673623174E+02 0.  0.
         13    1    3    3    0    0  0.15984615380E+03  0.14137774319E+04 -0.85903904949E+03  0.16620064706E+04  0.00000000000E+00 0. -1.
        -13    1    3    3    0    0  0.99468919466E+02  0.57215424911E+03 -0.29476098933E+03  0.65125923528E+03  0.00000000000E+00 0.  1.
         22    1    1    2    0    0 -0.25931507327E+03 -0.19859316810E+04  0.37972751647E+03  0.20384704893E+04  0.00000000000E+00 0. -1.
<mgrwt>
<rscale>  0 0.42823381E+04</rscale>
<asrwt>0</asrwt>
<pdfrwt beam="1">  1        2 0.39429298E+00 0.42823381E+04</pdfrwt>
<pdfrwt beam="2">  1       -2 0.27520490E+00 0.42823381E+04</pdfrwt>
<totfact> 0.11113907E-01</totfact>
</mgrwt>
</event>
<event>
 6    1  0.5026615E-004  0.1936602E+04  0.7818608E-02  0.8636849E-01
         -2   -1    0    0    0  501 -0.00000000000E+00  0.00000000000E+00  0.50433154087E+03  0.50433154087E+03  0.00000000000E+00 0. -1.
          2   -1    0    0  501    0  0.00000000000E+00 -0.00000000000E+00 -0.18591073995E+04  0.18591073995E+04  0.00000000000E+00 0.  1.
         23    2    1    2    0    0  0.72256210287E+03  0.48666885242E+00  0.10389834867E+03  0.73561011878E+03  0.90725688964E+02 0.  0.
         13    1    3    3    0    0  0.16971497474E+03 -0.31105371375E+02  0.47716267071E+02  0.17901832008E+03  0.00000000000E+00 0.  1.
        -13    1    3    3    0    0  0.55284712813E+03  0.31592040227E+02  0.56182081595E+02  0.55659179870E+03  0.00000000000E+00 0. -1.
         22    1    1    2    0    0 -0.72256210287E+03 -0.48666885242E+00 -0.14586742073E+04  0.16278288216E+04  0.00000000000E+00 0.  1.
<mgrwt>
<rscale>  0 0.19366017E+04</rscale>
<asrwt>0</asrwt>
<pdfrwt beam="1">  1        2 0.28601652E+00 0.19366017E+04</pdfrwt>
<pdfrwt beam="2">  1       -2 0.77589469E-01 0.19366017E+04</pdfrwt>
<totfact> 0.11060532E+01</totfact>
</mgrwt>
</event>
<event>
 6    1  0.5026615E-004  0.2276711E+04  0.7818608E-02  0.8487161E-01
          2   -1    0    0  501    0  0.00000000000E+00  0.00000000000E+00  0.13840683897E+04  0.13840683897E+04  0.00000000000E+00 0.  1.
         -2   -1    0    0    0  501 -0.00000000000E+00 -0.00000000000E+00 -0.93626368320E+03  0.93626368320E+03  0.00000000000E+00 0. -1.
         23    2    1    2    0    0 -0.57869029505E+03 -0.93916723846E+01  0.12211591883E+04  0.13543880705E+04  0.90369360903E+02 0.  0.
         13    1    3    3    0    0 -0.35868825800E+03  0.18377769948E+02  0.83735005687E+03  0.91112574686E+03  0.00000000000E+00 0.  1.
        -13    1    3    3    0    0 -0.22000203705E+03 -0.27769442332E+02  0.38380913141E+03  0.44326232367E+03  0.00000000000E+00 0. -1.
         22    1    1    2    0    0  0.57869029505E+03  0.93916723846E+01 -0.77335448182E+03  0.96594400233E+03  0.00000000000E+00 0. -1.
<mgrwt>
<rscale>  0 0.22767108E+04</rscale>
<asrwt>0</asrwt>
<pdfrwt beam="1">  1        2 0.21293360E+00 0.22767108E+04</pdfrwt>
<pdfrwt beam="2">  1       -2 0.14404057E+00 0.22767108E+04</pdfrwt>
<totfact> 0.44767547E+00</totfact>
</mgrwt>
</event>
<event>
 6    1  0.5026615E-004  0.1453417E+04  0.7818608E-02  0.8916035E-01
         -2   -1    0    0    0  501 -0.00000000000E+00  0.00000000000E+00  0.30733776453E+03  0.30733776453E+03  0.00000000000E+00 0. -1.
          2   -1    0    0  501    0  0.00000000000E+00 -0.00000000000E+00 -0.17183226171E+04  0.17183226171E+04  0.00000000000E+00 0.  1.
         23    2    1    2    0    0  0.41735214803E+03 -0.56491152639E+03 -0.46100096269E+03  0.84423021478E+03  0.83035653987E+02 0.  0.
         13    1    3    3    0    0  0.84347183279E+02 -0.67084830118E+02 -0.58653264968E+02  0.12269892930E+03  0.00000000000E+00 0.  1.
        -13    1    3    3    0    0  0.33300496475E+03 -0.49782669627E+03 -0.40234769772E+03  0.72153128548E+03  0.00000000000E+00 0. -1.
         22    1    1    2    0    0 -0.41735214803E+03  0.56491152639E+03 -0.94998388989E+03  0.11814301669E+04  0.00000000000E+00 0. -1.
<mgrwt>
<rscale>  0 0.14534173E+04</rscale>
<asrwt>0</asrwt>
<pdfrwt beam="1">  1        2 0.26435733E+00 0.14534173E+04</pdfrwt>
<pdfrwt beam="2">  1       -2 0.47282732E-01 0.14534173E+04</pdfrwt>
<totfact> 0.39368777E+01</totfact>
</mgrwt>
</event>
<event>
 6    1  0.5026615E-004  0.2398622E+04  0.7818608E-02  0.8440020E-01
          2   -1    0    0  501    0  0.00000000000E+00  0.00000000000E+00  0.19250840188E+04  0.19250840188E+04  0.00000000000E+00 0.  1.
         -2   -1    0    0    0  501 -0.00000000000E+00 -0.00000000000E+00 -0.74716044664E+03  0.74716044664E+03  0.00000000000E+00 0. -1.
         23    2    1    2    0    0  0.84559639562E+03  0.55442638375E+03 -0.12536220808E+03  0.10227064379E+04  0.88266050269E+02 0.  0.
         11    1    3    3    0    0  0.36469764775E+03  0.20162412035E+03 -0.21320804319E+02  0.41726638600E+03  0.00000000000E+00 0.  1.
        -11    1    3    3    0    0  0.48089874787E+03  0.35280226340E+03 -0.10404140376E+03  0.60544005191E+03  0.00000000000E+00 0. -1.
         22    1    1    2    0    0 -0.84559639562E+03 -0.55442638375E+03  0.13032857802E+04  0.16495380275E+04  0.00000000000E+00 0.  1.
<mgrwt>
<rscale>  0 0.23986218E+04</rscale>
<asrwt>0</asrwt>
<pdfrwt beam="1">  1        2 0.29616677E+00 0.23986218E+04</pdfrwt>
<pdfrwt beam="2">  1       -2 0.11494776E+00 0.23986218E+04</pdfrwt>
<totfact> 0.39040106E+00</totfact>
</mgrwt>
</event>
<event>
 6    1  0.5026615E-004  0.5293541E+04  0.7818608E-02  0.7784755E-01
         -2   -1    0    0    0  501 -0.00000000000E+00  0.00000000000E+00  0.24037928507E+04  0.24037928507E+04  0.00000000000E+00 0. -1.
          2   -1    0    0  501    0  0.00000000000E+00 -0.00000000000E+00 -0.29143081106E+04  0.29143081106E+04  0.00000000000E+00 0.  1.
         23    2    1    2    0    0 -0.17033258484E+04 -0.68086409580E+03 -0.21710829611E+04  0.28437566132E+04  0.91954274025E+02 0.  0.
         13    1    3    3    0    0 -0.65103257745E+03 -0.21545783968E+03 -0.83528797784E+03  0.10807273030E+04  0.00000000000E+00 0.  1.
        -13    1    3    3    0    0 -0.10522932709E+04 -0.46540625612E+03 -0.13357949832E+04  0.17630293102E+04  0.00000000000E+00 0. -1.
         22    1    1    2    0    0  0.17033258484E+04  0.68086409580E+03  0.16605677012E+04  0.24743443481E+04  0.00000000000E+00 0. -1.
<mgrwt>
<rscale>  0 0.52935406E+04</rscale>
<asrwt>0</asrwt>
<pdfrwt beam="1">  1        2 0.44835510E+00 0.52935406E+04</pdfrwt>
<pdfrwt beam="2">  1       -2 0.36981428E+00 0.52935406E+04</pdfrwt>
<totfact> 0.16301829E-02</totfact>
</mgrwt>
</event>
<event>
 6    1  0.5026615E-004  0.1278680E+04  0.7818608E-02  0.9046645E-01
          2   -1    0    0  501    0  0.00000000000E+00  0.00000000000E+00  0.70297463274E+03  0.70297463274E+03  0.00000000000E+00 0.  1.
         -2   -1    0    0    0  501 -0.00000000000E+00 -0.00000000000E+00 -0.58146562881E+03  0.58146562881E+03  0.00000000000E+00 0. -1.
         23    2    1    2    0    0 -0.15523748501E+03 -0.57623702692E+03 -0.15964568371E+03  0.62474658542E+03  0.93133043127E+02 0.  0.
         13    1    3    3    0    0 -0.78547210723E+02 -0.22179337792E+03 -0.19987441045E+02  0.23613865545E+03  0.00000000000E+00 0. -1.
        -13    1    3    3    0    0 -0.76690274283E+02 -0.35444364901E+03 -0.13965824266E+03  0.38860792997E+03  0.00000000000E+00 0.  1.
         22    1    1    2    0    0  0.15523748501E+03  0.57623702692E+03  0.28115468764E+03  0.65969367613E+03  0.00000000000E+00 0. -1.
<mgrwt>
<rscale>  0 0.12786799E+04</rscale>
<asrwt>0</asrwt>
<pdfrwt beam="1">  1        2 0.10814994E+00 0.12786799E+04</pdfrwt>
<pdfrwt beam="2">  1       -2 0.89456250E-01 0.12786799E+04</pdfrwt>
<totfact> 0.42888471E+01</totfact>
</mgrwt>
</event>
<event>
 6    1  0.5026615E-004  0.2520748E+04  0.7818608E-02  0.8395631E-01
         -2   -1    0    0    0  501 -0.00000000000E+00  0.00000000000E+00  0.25515198852E+04  0.25515198852E+04  0.00000000000E+00 0. -1.
          2   -1    0    0  501    0  0.00000000000E+00 -0.00000000000E+00 -0.62258666015E+03  0.62258666015E+03  0.00000000000E+00 0.  1.
         23    2    1    2    0    0 -0.11187681412E+04  0.27695467141E+03  0.32867324629E+03  0.12020066383E+04  0.91911978961E+02 0.  0.
         13    1    3    3    0    0 -0.53274684002E+03  0.17568189554E+03  0.17762731070E+03  0.58841718659E+03  0.00000000000E+00 0.  1.
        -13    1    3    3    0    0 -0.58602130120E+03  0.10127277587E+03  0.15104593559E+03  0.61358945171E+03  0.00000000000E+00 0. -1.
         22    1    1    2    0    0  0.11187681412E+04 -0.27695467141E+03  0.16002599788E+04  0.19720999071E+04  0.00000000000E+00 0.  1.
<mgrwt>
<rscale>  0 0.25207477E+04</rscale>
<asrwt>0</asrwt>
<pdfrwt beam="1">  1        2 0.95782565E-01 0.25207477E+04</pdfrwt>
<pdfrwt beam="2">  1       -2 0.39254152E+00 0.25207477E+04</pdfrwt>
<totfact> 0.35062086E-01</totfact>
</mgrwt>
</event>
<event>
 6    1  0.5026615E-004  0.2766876E+04  0.7818608E-02  0.8313627E-01
          2   -1    0    0  501    0  0.00000000000E+00  0.00000000000E+00  0.19544097694E+04  0.19544097694E+04  0.00000000000E+00 0.  1.
         -2   -1    0    0    0  501 -0.00000000000E+00 -0.00000000000E+00 -0.97927274008E+03  0.97927274008E+03  0.00000000000E+00 0. -1.
         23    2    1    2    0    0  0.40315701433E+03 -0.14588515544E+03  0.18810547569E+04  0.19314325477E+04  0.90810963562E+02 0.  0.
         11    1    3    3    0    0  0.18064163224E+03 -0.30078988578E+02  0.66365600746E+03  0.68845874321E+03  0.00000000000E+00 0. -1.
        -11    1    3    3    0    0  0.22251538209E+03 -0.11580616686E+03  0.12173987494E+04  0.12429738045E+04  0.00000000000E+00 0.  1.
         22    1    1    2    0    0 -0.40315701433E+03  0.14588515544E+03 -0.90591772757E+03  0.10022499618E+04  0.00000000000E+00 0. -1.
<mgrwt>
<rscale>  0 0.27668756E+04</rscale>
<asrwt>0</asrwt>
<pdfrwt beam="1">  1        2 0.30067843E+00 0.27668756E+04</pdfrwt>
<pdfrwt beam="2">  1       -2 0.15065734E+00 0.27668756E+04</pdfrwt>
<totfact> 0.18304196E+00</totfact>
</mgrwt>
</event>
<event>
 6    1  0.5026615E-004  0.5405751E+04  0.7818608E-02  0.7768793E-01
          1   -1    0    0  501    0  0.00000000000E+00  0.00000000000E+00  0.39705394055E+04  0.39705394055E+04  0.00000000000E+00 0. -1.
         -1   -1    0    0    0  501 -0.00000000000E+00 -0.00000000000E+00 -0.18399351680E+04  0.18399351680E+04  0.00000000000E+00 0.  1.
         23    2    1    2    0    0 -0.60484398304E+03 -0.24235311179E+04  0.21734214526E+04  0.33122406699E+04  0.88533165244E+02 0.  0.
         13    1    3    3    0    0 -0.45386861409E+03 -0.18021613167E+04  0.16673160122E+04  0.24967428412E+04  0.00000000000E+00 0. -1.
        -13    1    3    3    0    0 -0.15097536894E+03 -0.62136980121E+03  0.50610544041E+03  0.81549782875E+03  0.00000000000E+00 0.  1.
         22    1    1    2    0    0  0.60484398304E+03  0.24235311179E+04 -0.42817215124E+02  0.24982339036E+04  0.00000000000E+00 0.  1.
<mgrwt>
<rscale>  0 0.54057507E+04</rscale>
<asrwt>0</asrwt>
<pdfrwt beam="1">  1        1 0.61085222E+00 0.54057507E+04</pdfrwt>
<pdfrwt beam="2">  1       -1 0.28306695E+00 0.54057507E+04</pdfrwt>
<totfact> 0.30177196E-03</totfact>
</mgrwt>
</event>
<event>
 6    1  0.5026615E-004  0.1508301E+04  0.7818608E-02  0.8878952E-01
          2   -1    0    0  501    0  0.00000000000E+00  0.00000000000E+00  0.12268570648E+04  0.12268570648E+04  0.00000000000E+00 0.  1.
         -2   -1    0    0    0  501 -0.00000000000E+00 -0.00000000000E+00 -0.46357710373E+03  0.46357710373E+03  0.00000000000E+00 0. -1.
         23    2    1    2    0    0  0.34573908615E+03  0.35974906736E+03  0.10125825224E+04  0.11326647948E+04  0.93012178950E+02 0.  0.
         11    1    3    3    0    0  0.64483543803E+02  0.36768835105E+02  0.21368997856E+03  0.22621556444E+03  0.00000000000E+00 0.  1.
        -11    1    3    3    0    0  0.28125554235E+03  0.32298023226E+03  0.79889254384E+03  0.90644923031E+03  0.00000000000E+00 0. -1.
         22    1    1    2    0    0 -0.34573908615E+03 -0.35974906736E+03 -0.24930256138E+03  0.55776937373E+03  0.00000000000E+00 0. -1.
<mgrwt>
<rscale>  0 0.15083008E+04</rscale>
<asrwt>0</asrwt>
<pdfrwt beam="1">  1        2 0.18874724E+00 0.15083008E+04</pdfrwt>
<pdfrwt beam="2">  1       -2 0.71319555E-01 0.15083008E+04</pdfrwt>
<totfact> 0.31455767E+01</totfact>
</mgrwt>
</event>
<event>
 6    1  0.5026615E-004  0.2573721E+04  0.7818608E-02  0.8377183E-01
          2   -1    0    0  501    0  0.00000000000E+00  0.00000000000E+00  0.15542772072E+04  0.15542772072E+04  0.00000000000E+00 0.  1.
         -2   -1    0    0    0  501 -0.00000000000E+00 -0.00000000000E+00 -0.10654531524E+04  0.10654531524E+04  0.00000000000E+00 0. -1.
         23    2    1    2    0    0  0.40458415858E+03  0.12165124591E+04  0.33859907404E+03  0.13289327576E+04  0.88442279972E+02 0.  0.
         11    1    3    3    0    0  0.27889520911E+03  0.70213722978E+03  0.19249254500E+03  0.77963620170E+03  0.00000000000E+00 0. -1.
        -11    1    3    3    0    0  0.12568894947E+03  0.51437522927E+03  0.14610652904E+03  0.54929655591E+03  0.00000000000E+00 0.  1.
         22    1    1    2    0    0 -0.40458415858E+03 -0.12165124591E+04  0.15022498070E+03  0.12907976020E+04  0.00000000000E+00 0. -1.
<mgrwt>
<rscale>  0 0.25737207E+04</rscale>
<asrwt>0</asrwt>
<pdfrwt beam="1">  1        2 0.23911957E+00 0.25737207E+04</pdfrwt>
<pdfrwt beam="2">  1       -2 0.16391587E+00 0.25737207E+04</pdfrwt>
<totfact> 0.24728999E+00</totfact>
</mgrwt>
</event>
<event>
 6    1  0.5026615E-004  0.1527013E+04  0.7818608E-02  0.8866686E-01
          2   -1    0    0  501    0  0.00000000000E+00  0.00000000000E+00  0.68822854510E+03  0.68822854510E+03  0.00000000000E+00 0.  1.
         -2   -1    0    0    0  501 -0.00000000000E+00 -0.00000000000E+00 -0.84701796462E+03  0.84701796462E+03  0.00000000000E+00 0. -1.
         23    2    1    2    0    0  0.32654737803E+03  0.34573261527E+03  0.51711783920E+03  0.70879938270E+03  0.93922701969E+02 0.  0.
         13    1    3    3    0    0  0.20189905403E+03  0.14652162500E+03  0.25389214024E+03  0.35593964866E+03  0.00000000000E+00 0. -1.
        -13    1    3    3    0    0  0.12464832400E+03  0.19921099026E+03  0.26322569895E+03  0.35285973404E+03  0.00000000000E+00 0.  1.
         22    1    1    2    0    0 -0.32654737803E+03 -0.34573261527E+03 -0.67590725872E+03  0.82644712701E+03  0.00000000000E+00 0. -1.
<mgrwt>
<rscale>  0 0.15270127E+04</rscale>
<asrwt>0</asrwt>
<pdfrwt beam="1">  1        2 0.10588131E+00 0.15270127E+04</pdfrwt>
<pdfrwt beam="2">  1       -2 0.13031046E+00 0.15270127E+04</pdfrwt>
<totfact> 0.17419291E+01</totfact>
</mgrwt>
</event>
<event>
 6    1  0.5026615E-004  0.1091488E+04  0.7818608E-02  0.9213528E-01
          2   -1    0    0  501    0  0.00000000000E+00  0.00000000000E+00  0.11073000971E+04  0.11073000971E+04  0.00000000000E+00 0.  1.
         -2   -1    0    0    0  501 -0.00000000000E+00 -0.00000000000E+00 -0.26897563611E+03  0.26897563611E+03  0.00000000000E+00 0. -1.
         23    2    1    2    0    0 -0.49093995356E+03 -0.61755872980E+02  0.14321253513E+03  0.52303695343E+03  0.90675236885E+02 0.  0.
         13    1    3    3    0    0 -0.34681404349E+03 -0.45956132047E+02  0.57304598357E+02  0.35450777682E+03  0.00000000000E+00 0.  1.
        -13    1    3    3    0    0 -0.14412591007E+03 -0.15799740933E+02  0.85907936771E+02  0.16852917660E+03  0.00000000000E+00 0. -1.
         22    1    1    2    0    0  0.49093995356E+03  0.61755872980E+02  0.69511192590E+03  0.85323877981E+03  0.00000000000E+00 0.  1.
<mgrwt>
<rscale>  0 0.10914884E+04</rscale>
<asrwt>0</asrwt>
<pdfrwt beam="1">  1        2 0.17035386E+00 0.10914884E+04</pdfrwt>
<pdfrwt beam="2">  1       -2 0.41380868E-01 0.10914884E+04</pdfrwt>
<totfact> 0.11840910E+02</totfact>
</mgrwt>
</event>
<event>
 6    1  0.5026615E-004  0.8590504E+03  0.7818608E-02  0.9478270E-01
         -2   -1    0    0    0  501 -0.00000000000E+00  0.00000000000E+00  0.18174872867E+03  0.18174872867E+03  0.00000000000E+00 0. -1.
          2   -1    0    0  501    0  0.00000000000E+00 -0.00000000000E+00 -0.10150931322E+04  0.10150931322E+04  0.00000000000E+00 0.  1.
         23    2    1    2    0    0 -0.29630020616E+03  0.23395273160E+01 -0.84462469455E+03  0.90031778006E+03  0.96860440269E+02 0.  0.
         13    1    3    3    0    0 -0.17313625323E+03  0.24354331421E+02 -0.36610745076E+03  0.40571413722E+03  0.00000000000E+00 0. -1.
        -13    1    3    3    0    0 -0.12316395293E+03 -0.22014804105E+02 -0.47851724379E+03  0.49460364284E+03  0.00000000000E+00 0.  1.
         22    1    1    2    0    0  0.29630020616E+03 -0.23395273160E+01  0.11280290980E+02  0.29652408085E+03  0.00000000000E+00 0. -1.
<mgrwt>
<rscale>  0 0.85905037E+03</rscale>
<asrwt>0</asrwt>
<pdfrwt beam="1">  1        2 0.15616817E+00 0.85905037E+03</pdfrwt>
<pdfrwt beam="2">  1       -2 0.27961343E-01 0.85905037E+03</pdfrwt>
<totfact> 0.28856975E+02</totfact>
</mgrwt>
</event>
<event>
 6    1  0.5026615E-004  0.2266806E+04  0.7818608E-02  0.8491125E-01
          2   -1    0    0  501    0  0.00000000000E+00  0.00000000000E+00  0.16797911585E+04  0.16797911585E+04  0.00000000000E+00 0.  1.
         -2   -1    0    0    0  501 -0.00000000000E+00 -0.00000000000E+00 -0.76473944175E+03  0.76473944175E+03  0.00000000000E+00 0. -1.
         23    2    1    2    0    0 -0.99510882049E+02 -0.51113617758E+03 -0.62515000532E+03  0.81868191345E+03  0.90911707635E+02 0.  0.
         13    1    3    3    0    0 -0.32907222167E+02 -0.28362585250E+03 -0.40225903040E+03  0.49329386477E+03  0.00000000000E+00 0.  1.
        -13    1    3    3    0    0 -0.66603659882E+02 -0.22751032508E+03 -0.22289097492E+03  0.32538804868E+03  0.00000000000E+00 0. -1.
         22    1    1    2    0    0  0.99510882049E+02  0.51113617758E+03  0.15402017221E+04  0.16258486868E+04  0.00000000000E+00 0.  1.
<mgrwt>
<rscale>  0 0.22668062E+04</rscale>
<asrwt>0</asrwt>
<pdfrwt beam="1">  1        2 0.25842941E+00 0.22668062E+04</pdfrwt>
<pdfrwt beam="2">  1       -2 0.11765222E+00 0.22668062E+04</pdfrwt>
<totfact> 0.51023857E+00</totfact>
</mgrwt>
</event>
<event>
 6    1  0.5026615E-004  0.1165130E+04  0.7818608E-02  0.9143938E-01
         -2   -1    0    0    0  501 -0.00000000000E+00  0.00000000000E+00  0.12396889433E+03  0.12396889433E+03  0.00000000000E+00 0. -1.
          2   -1    0    0  501    0  0.00000000000E+00 -0.00000000000E+00 -0.27376377866E+04  0.27376377866E+04  0.00000000000E+00 0.  1.
         23    2    1    2    0    0  0.13210140289E+03 -0.12846125777E+03 -0.26629349130E+04  0.26708706953E+04  0.91514178766E+02 0.  0.
         13    1    3    3    0    0  0.90399712153E+01 -0.57382105353E+01 -0.74514302142E+03  0.74521994774E+03  0.00000000000E+00 0.  1.
        -13    1    3    3    0    0  0.12306143168E+03 -0.12272304724E+03 -0.19177918916E+04  0.19256507476E+04  0.00000000000E+00 0. -1.
         22    1    1    2    0    0 -0.13210140289E+03  0.12846125777E+03  0.49266020744E+02  0.19073598558E+03  0.00000000000E+00 0. -1.
<mgrwt>
<rscale>  0 0.11651299E+04</rscale>
<asrwt>0</asrwt>
<pdfrwt beam="1">  1        2 0.42117503E+00 0.11651299E+04</pdfrwt>
<pdfrwt beam="2">  1       -2 0.19072138E-01 0.11651299E+04</pdfrwt>
<totfact> 0.58564433E+01</totfact>
</mgrwt>
</event>
<event>
 6    1  0.5026615E-004  0.1251067E+04  0.7818608E-02  0.9069296E-01
          2   -1    0    0  501    0  0.00000000000E+00  0.00000000000E+00  0.55508931787E+03  0.55508931787E+03  0.00000000000E+00 0.  1.
         -2   -1    0    0    0  501 -0.00000000000E+00 -0.00000000000E+00 -0.70491754616E+03  0.70491754616E+03  0.00000000000E+00 0. -1.
         23    2    1    2    0    0  0.18342398718E+03 -0.98016606226E+02  0.51516572432E+03  0.56325111690E+03  0.92760352557E+02 0.  0.
         11    1    3    3    0    0  0.14121434493E+03 -0.27894132799E+02  0.36243031125E+03  0.38996833765E+03  0.00000000000E+00 0. -1.
        -11    1    3    3    0    0  0.42209642255E+02 -0.70122473426E+02  0.15273541306E+03  0.17328277924E+03  0.00000000000E+00 0.  1.
         22    1    1    2    0    0 -0.18342398718E+03  0.98016606226E+02 -0.66499395260E+03  0.69675574713E+03  0.00000000000E+00 0. -1.
<mgrwt>
<rscale>  0 0.12510671E+04</rscale>
<asrwt>0</asrwt>
<pdfrwt beam="1">  1        2 0.85398357E-01 0.12510671E+04</pdfrwt>
<pdfrwt beam="2">  1       -2 0.10844885E+00 0.12510671E+04</pdfrwt>
<totfact> 0.36415730E+01</totfact>
</mgrwt>
</event>
<event>
 6    1  0.5026615E-004  0.2307488E+04  0.7818608E-02  0.8474975E-01
          2   -1    0    0  501    0  0.00000000000E+00  0.00000000000E+00  0.13396739032E+04  0.13396739032E+04  0.00000000000E+00 0.  1.
         -2   -1    0    0    0  501 -0.00000000000E+00 -0.00000000000E+00 -0.99361887769E+03  0.99361887769E+03  0.00000000000E+00 0. -1.
         23    2    1    2    0    0 -0.30748464408E+03 -0.36168532369E+03 -0.88798494909E+03  0.10110909284E+04  0.91785162392E+02 0.  0.
         13    1    3    3    0    0 -0.18324358850E+02 -0.68511985476E+02 -0.11072562639E+03  0.13149083094E+03  0.00000000000E+00 0. -1.
        -13    1    3    3    0    0 -0.28916028523E+03 -0.29317333821E+03 -0.77725932269E+03  0.87960009749E+03  0.00000000000E+00 0.  1.
         22    1    1    2    0    0  0.30748464408E+03  0.36168532369E+03  0.12340399746E+04  0.13222018524E+04  0.00000000000E+00 0.  1.
<mgrwt>
<rscale>  0 0.23074881E+04</rscale>
<asrwt>0</asrwt>
<pdfrwt beam="1">  1        2 0.20610368E+00 0.23074881E+04</pdfrwt>
<pdfrwt beam="2">  1       -2 0.15286444E+00 0.23074881E+04</pdfrwt>
<totfact> 0.40472315E+00</totfact>
</mgrwt>
</event>
<event>
 6    1  0.5026615E-004  0.2198135E+04  0.7818608E-02  0.8519205E-01
         -2   -1    0    0    0  501 -0.00000000000E+00  0.00000000000E+00  0.45270204340E+03  0.45270204340E+03  0.00000000000E+00 0. -1.
          2   -1    0    0  501    0  0.00000000000E+00 -0.00000000000E+00 -0.26683101238E+04  0.26683101238E+04  0.00000000000E+00 0.  1.
         23    2    1    2    0    0  0.76073283827E+03 -0.70603318985E+03 -0.16139030904E+04  0.19213262869E+04  0.98052022251E+02 0.  0.
         11    1    3    3    0    0  0.21287460692E+03 -0.24760097450E+03 -0.45762271928E+03  0.56217470064E+03  0.00000000000E+00 0.  1.
        -11    1    3    3    0    0  0.54785823135E+03 -0.45843221534E+03 -0.11562803711E+04  0.13591515863E+04  0.00000000000E+00 0. -1.
         22    1    1    2    0    0 -0.76073283827E+03  0.70603318985E+03 -0.60170498996E+03  0.11996858803E+04  0.00000000000E+00 0.  1.
<mgrwt>
<rscale>  0 0.21981351E+04</rscale>
<asrwt>0</asrwt>
<pdfrwt beam="1">  1        2 0.41050925E+00 0.21981351E+04</pdfrwt>
<pdfrwt beam="2">  1       -2 0.69646468E-01 0.21981351E+04</pdfrwt>
<totfact> 0.47671275E+00</totfact>
</mgrwt>
</event>
<event>
 6    1  0.5026615E-004  0.2076525E+04  0.7818608E-02  0.8571655E-01
         -2   -1    0    0    0  501 -0.00000000000E+00  0.00000000000E+00  0.36318002658E+03  0.36318002658E+03  0.00000000000E+00 0. -1.
          2   -1    0    0  501    0  0.00000000000E+00 -0.00000000000E+00 -0.29681953402E+04  0.29681953402E+04  0.00000000000E+00 0.  1.
         23    2    1    2    0    0  0.77865108347E+03  0.49488880883E+03 -0.20619313872E+04  0.22607902025E+04  0.91645246778E+02 0.  0.
         13    1    3    3    0    0  0.20313306968E+03  0.17807242519E+03 -0.61250261155E+03  0.66942683078E+03  0.00000000000E+00 0. -1.
        -13    1    3    3    0    0  0.57551801379E+03  0.31681638363E+03 -0.14494287757E+04  0.15913633717E+04  0.00000000000E+00 0.  1.
         22    1    1    2    0    0 -0.77865108347E+03 -0.49488880883E+03 -0.54308392645E+03  0.10705851643E+04  0.00000000000E+00 0. -1.
<mgrwt>
<rscale>  0 0.20765252E+04</rscale>
<asrwt>0</asrwt>
<pdfrwt beam="1">  1        2 0.45664543E+00 0.20765252E+04</pdfrwt>
<pdfrwt beam="2">  1       -2 0.55873851E-01 0.20765252E+04</pdfrwt>
<totfact> 0.50722391E+00</totfact>
</mgrwt>
</event>
<event>
 6    1  0.5026615E-004  0.2962677E+04  0.7818608E-02  0.8254470E-01
          2   -1    0    0  501    0  0.00000000000E+00  0.00000000000E+00  0.20657766230E+04  0.20657766230E+04  0.00000000000E+00 0.  1.
         -2   -1    0    0    0  501 -0.00000000000E+00 -0.00000000000E+00 -0.10622461775E+04  0.10622461775E+04  0.00000000000E+00 0. -1.
         23    2    1    2    0    0  0.98411246807E+03  0.17127961184E+03  0.16551762096E+04  0.19353550944E+04  0.90426774213E+02 0.  0.
         13    1    3    3    0    0  0.41509964055E+03  0.88781249140E+02  0.78418974707E+03  0.89170812556E+03  0.00000000000E+00 0.  1.
        -13    1    3    3    0    0  0.56901282752E+03  0.82498362699E+02  0.87098646250E+03  0.10436469688E+04  0.00000000000E+00 0. -1.
         22    1    1    2    0    0 -0.98411246807E+03 -0.17127961184E+03 -0.65164576410E+03  0.11926677061E+04  0.00000000000E+00 0. -1.
<mgrwt>
<rscale>  0 0.29626767E+04</rscale>
<asrwt>0</asrwt>
<pdfrwt beam="1">  1        2 0.31781179E+00 0.29626767E+04</pdfrwt>
<pdfrwt beam="2">  1       -2 0.16342249E+00 0.29626767E+04</pdfrwt>
<totfact> 0.12534049E+00</totfact>
</mgrwt>
</event>
<event>
 6    1  0.5026615E-004  0.2561872E+04  0.7818608E-02  0.8381269E-01
         -2   -1    0    0    0  501 -0.00000000000E+00  0.00000000000E+00  0.52731737029E+03  0.52731737029E+03  0.00000000000E+00 0. -1.
          2   -1    0    0  501    0  0.00000000000E+00 -0.00000000000E+00 -0.31115934243E+04  0.31115934243E+04  0.00000000000E+00 0.  1.
         23    2    1    2    0    0 -0.70338247642E+03 -0.38103399083E+03 -0.27119222000E+04  0.28288321879E+04  0.88519592329E+02 0.  0.
         11    1    3    3    0    0 -0.65615409102E+03 -0.37390543009E+03 -0.25909860524E+04  0.26988056961E+04  0.00000000000E+00 0. -1.
        -11    1    3    3    0    0 -0.47228385401E+02 -0.71285607449E+01 -0.12093614761E+03  0.13002649178E+03  0.00000000000E+00 0.  1.
         22    1    1    2    0    0  0.70338247642E+03  0.38103399083E+03  0.12764614604E+03  0.81007860662E+03  0.00000000000E+00 0. -1.
<mgrwt>
<rscale>  0 0.25618722E+04</rscale>
<asrwt>0</asrwt>
<pdfrwt beam="1">  1        2 0.47870668E+00 0.25618722E+04</pdfrwt>
<pdfrwt beam="2">  1       -2 0.81125750E-01 0.25618722E+04</pdfrwt>
<totfact> 0.17585057E+00</totfact>
</mgrwt>
</event>
<event>
 6    1  0.5026615E-004  0.7288622E+03  0.7818608E-02  0.9669108E-01
         -2   -1    0    0    0  501 -0.00000000000E+00  0.00000000000E+00  0.11885030062E+03  0.11885030062E+03  0.00000000000E+00 0. -1.
          2   -1    0    0  501    0  0.00000000000E+00 -0.00000000000E+00 -0.11174564048E+04  0.11174564048E+04  0.00000000000E+00 0.  1.
         23    2    1    2    0    0 -0.22481697718E+03 -0.22177438662E+03 -0.79537747652E+03  0.86076918812E+03  0.92583547500E+02 0.  0.
         11    1    3    3    0    0 -0.12666533240E+03 -0.76812174131E+02 -0.44649241975E+03  0.47042501785E+03  0.00000000000E+00 0. -1.
        -11    1    3    3    0    0 -0.98151644783E+02 -0.14496221249E+03 -0.34888505678E+03  0.39034417027E+03  0.00000000000E+00 0.  1.
         22    1    1    2    0    0  0.22481697718E+03  0.22177438662E+03 -0.20322862762E+03  0.37553751727E+03  0.00000000000E+00 0. -1.
<mgrwt>
<rscale>  0 0.72886221E+03</rscale>
<asrwt>0</asrwt>
<pdfrwt beam="1">  1        2 0.17191637E+00 0.72886221E+03</pdfrwt>
<pdfrwt beam="2">  1       -2 0.18284662E-01 0.72886221E+03</pdfrwt>
<totfact> 0.53437464E+02</totfact>
</mgrwt>
</event>
<event>
 6    1  0.5026615E-004  0.1154421E+04  0.7818608E-02  0.9153715E-01
          2   -1    0    0  501    0  0.00000000000E+00  0.00000000000E+00  0.95654842858E+03  0.95654842858E+03  0.00000000000E+00 0.  1.
         -2   -1    0    0    0  501 -0.00000000000E+00 -0.00000000000E+00 -0.34830635723E+03  0.34830635723E+03  0.00000000000E+00 0. -1.
         23    2    1    2    0    0  0.20451165179E+03 -0.44583054586E+03  0.64313967761E+03  0.81311528744E+03  0.83294264030E+02 0.  0.
         13    1    3    3    0    0  0.11864820703E+03 -0.18244440266E+03  0.32663297385E+03  0.39249516774E+03  0.00000000000E+00 0.  1.
        -13    1    3    3    0    0  0.85863444761E+02 -0.26338614319E+03  0.31650670376E+03  0.42062011970E+03  0.00000000000E+00 0. -1.
         22    1    1    2    0    0 -0.20451165179E+03  0.44583054586E+03 -0.34897606258E+02  0.49173949837E+03  0.00000000000E+00 0. -1.
<mgrwt>
<rscale>  0 0.11544209E+04</rscale>
<asrwt>0</asrwt>
<pdfrwt beam="1">  1        2 0.14716130E+00 0.11544209E+04</pdfrwt>
<pdfrwt beam="2">  1       -2 0.53585594E-01 0.11544209E+04</pdfrwt>
<totfact> 0.87301029E+01</totfact>
</mgrwt>
</event>
<event>
 6    1  0.5026615E-004  0.1990059E+04  0.7818608E-02  0.8611283E-01
         -2   -1    0    0    0  501 -0.00000000000E+00  0.00000000000E+00  0.71971639309E+03  0.71971639309E+03  0.00000000000E+00 0. -1.
          2   -1    0    0  501    0  0.00000000000E+00 -0.00000000000E+00 -0.13756578267E+04  0.13756578267E+04  0.00000000000E+00 0.  1.
         23    2    1    2    0    0  0.39327402663E+02  0.99053647511E+03 -0.38919161019E+03  0.10687951330E+04  0.90242860334E+02 0.  0.
         11    1    3    3    0    0  0.49678889182E+01  0.64940923125E+03 -0.21402433403E+03  0.68378611065E+03  0.00000000000E+00 0. -1.
        -11    1    3    3    0    0  0.34359513745E+02  0.34112724386E+03 -0.17516727615E+03  0.38500902239E+03  0.00000000000E+00 0.  1.
         22    1    1    2    0    0 -0.39327402663E+02 -0.99053647511E+03 -0.26674982347E+03  0.10265790868E+04  0.00000000000E+00 0.  1.
<mgrwt>
<rscale>  0 0.19900588E+04</rscale>
<asrwt>0</asrwt>
<pdfrwt beam="1">  1        2 0.21163966E+00 0.19900588E+04</pdfrwt>
<pdfrwt beam="2">  1       -2 0.11072560E+00 0.19900588E+04</pdfrwt>
<totfact> 0.89863739E+00</totfact>
</mgrwt>
</event>
<event>
 6    1  0.5026615E-004  0.1597282E+04  0.7818608E-02  0.8822219E-01
          2   -1    0    0  501    0  0.00000000000E+00  0.00000000000E+00  0.89567549095E+03  0.89567549095E+03  0.00000000000E+00 0.  1.
         -2   -1    0    0    0  501 -0.00000000000E+00 -0.00000000000E+00 -0.71211894908E+03  0.71211894908E+03  0.00000000000E+00 0. -1.
         23    2    1    2    0    0  0.48487460061E+03  0.40082146910E+03  0.58348522630E+03  0.86233875320E+03  0.86092320002E+02 0.  0.
         13    1    3    3    0    0  0.28342679862E+03  0.23699530013E+03  0.28421723467E+03  0.46612976621E+03  0.00000000000E+00 0.  1.
        -13    1    3    3    0    0  0.20144780199E+03  0.16382616897E+03  0.29926799163E+03  0.39620898700E+03  0.00000000000E+00 0. -1.
         22    1    1    2    0    0 -0.48487460061E+03 -0.40082146910E+03 -0.39992868443E+03  0.74545568684E+03  0.00000000000E+00 0. -1.
<mgrwt>
<rscale>  0 0.15972821E+04</rscale>
<asrwt>0</asrwt>
<pdfrwt beam="1">  1        2 0.13779623E+00 0.15972821E+04</pdfrwt>
<pdfrwt beam="2">  1       -2 0.10955676E+00 0.15972821E+04</pdfrwt>
<totfact> 0.18787815E+01</totfact>
</mgrwt>
</event>
<event>
 6    1  0.5026615E-004  0.2035648E+04  0.7818608E-02  0.8590133E-01
         -2   -1    0    0    0  501 -0.00000000000E+00  0.00000000000E+00  0.28972233466E+03  0.28972233466E+03  0.00000000000E+00 0. -1.
          2   -1    0    0  501    0  0.00000000000E+00 -0.00000000000E+00 -0.35757194134E+04  0.35757194134E+04  0.00000000000E+00 0.  1.
         23    2    1    2    0    0  0.60989107426E+03  0.28577794687E+03 -0.20223612349E+03  0.70898522429E+03  0.90135682394E+02 0.  0.
         11    1    3    3    0    0  0.26377067479E+03  0.75525576786E+02 -0.73602923728E+02  0.28407124461E+03  0.00000000000E+00 0.  1.
        -11    1    3    3    0    0  0.34612039947E+03  0.21025237008E+03 -0.12863319977E+03  0.42491397969E+03  0.00000000000E+00 0. -1.
         22    1    1    2    0    0 -0.60989107426E+03 -0.28577794687E+03 -0.30837609552E+04  0.31564565238E+04  0.00000000000E+00 0.  1.
<mgrwt>
<rscale>  0 0.20356481E+04</rscale>
<asrwt>0</asrwt>
<pdfrwt beam="1">  1        2 0.55011069E+00 0.20356481E+04</pdfrwt>
<pdfrwt beam="2">  1       -2 0.44572666E-01 0.20356481E+04</pdfrwt>
<totfact> 0.31964211E+00</totfact>
</mgrwt>
</event>
<event>
 6    1  0.6301219E-004  0.3731535E+04  0.7818608E-02  0.8061009E-01
         -2   -1    0    0    0  501 -0.00000000000E+00  0.00000000000E+00  0.14519159899E+04  0.14519159899E+04  0.00000000000E+00 0. -1.
          2   -1    0    0  501    0  0.00000000000E+00 -0.00000000000E+00 -0.23975821183E+04  0.23975821183E+04  0.00000000000E+00 0.  1.
         23    2    1    2    0    0  0.59573615217E+03  0.19685612908E+02  0.13494992720E+04  0.14781960816E+04  0.92877792436E+02 0.  0.
         11    1    3    3    0    0  0.10728767252E+03 -0.10107093636E+02  0.33370411727E+03  0.35067254797E+03  0.00000000000E+00 0. -1.
        -11    1    3    3    0    0  0.48844847965E+03  0.29792706544E+02  0.10157951547E+04  0.11275235336E+04  0.00000000000E+00 0.  1.
         22    1    1    2    0    0 -0.59573615217E+03 -0.19685612908E+02 -0.22951654004E+04  0.23713020266E+04  0.00000000000E+00 0.  1.
<mgrwt>
<rscale>  0 0.37315347E+04</rscale>
<asrwt>0</asrwt>
<pdfrwt beam="1">  1        2 0.36885879E+00 0.37315347E+04</pdfrwt>
<pdfrwt beam="2">  1       -2 0.22337169E+00 0.37315347E+04</pdfrwt>
<totfact> 0.30260554E-01</totfact>
</mgrwt>
</event>
<event>
 6    1  0.5026615E-004  0.1222620E+04  0.7818608E-02  0.9093285E-01
          2   -1    0    0  501    0  0.00000000000E+00  0.00000000000E+00  0.94054526765E+03  0.94054526765E+03  0.00000000000E+00 0. -1.
         -2   -1    0    0    0  501 -0.00000000000E+00 -0.00000000000E+00 -0.39732244664E+03  0.39732244664E+03  0.00000000000E+00 0.  1.
         23    2    1    2    0    0 -0.53623613388E+02  0.53747428477E+03  0.57968483555E+03  0.79649577448E+03  0.81344400534E+02 0.  0.
         13    1    3    3    0    0 -0.41450875450E+02  0.16584328892E+03  0.22553018165E+03  0.28299476036E+03  0.00000000000E+00 0. -1.
        -13    1    3    3    0    0 -0.12172737938E+02  0.37163099585E+03  0.35415465390E+03  0.51350101412E+03  0.00000000000E+00 0.  1.
         22    1    1    2    0    0  0.53623613388E+02 -0.53747428477E+03 -0.36462014538E+02  0.54137193981E+03  0.00000000000E+00 0. -1.
<mgrwt>
<rscale>  0 0.12226197E+04</rscale>
<asrwt>0</asrwt>
<pdfrwt beam="1">  1        2 0.14469927E+00 0.12226197E+04</pdfrwt>
<pdfrwt beam="2">  1       -2 0.61126531E-01 0.12226197E+04</pdfrwt>
<totfact> 0.67580529E+01</totfact>
</mgrwt>
</event>
<event>
 6    1  0.5026615E-004  0.2531108E+04  0.7818608E-02  0.8391986E-01
          2   -1    0    0  501    0  0.00000000000E+00  0.00000000000E+00  0.11050228195E+04  0.11050228195E+04  0.00000000000E+00 0.  1.
         -2   -1    0    0    0  501 -0.00000000000E+00 -0.00000000000E+00 -0.14494059022E+04  0.14494059022E+04  0.00000000000E+00 0. -1.
         23    2    1    2    0    0 -0.57993959377E+03  0.76125309746E+03  0.66082078856E+03  0.11665270560E+04  0.90912304071E+02 0.  0.
         11    1    3    3    0    0 -0.29013032041E+03  0.31652220506E+03  0.26780149710E+03  0.50604303272E+03  0.00000000000E+00 0. -1.
        -11    1    3    3    0    0 -0.28980927337E+03  0.44473089240E+03  0.39301929146E+03  0.66048402331E+03  0.00000000000E+00 0.  1.
         22    1    1    2    0    0  0.57993959377E+03 -0.76125309746E+03 -0.10052038712E+04  0.13879016657E+04  0.00000000000E+00 0. -1.
<mgrwt>
<rscale>  0 0.25311077E+04</rscale>
<asrwt>0</asrwt>
<pdfrwt beam="1">  1        2 0.17000351E+00 0.25311077E+04</pdfrwt>
<pdfrwt beam="2">  1       -2 0.22298552E+00 0.25311077E+04</pdfrwt>
<totfact> 0.18207819E+00</totfact>
</mgrwt>
</event>
<event>
 6    1  0.5026615E-004  0.8967730E+03  0.7818608E-02  0.9429624E-01
          2   -1    0    0  501    0  0.00000000000E+00  0.00000000000E+00  0.10525789534E+04  0.10525789534E+04  0.00000000000E+00 0.  1.
         -2   -1    0    0    0  501 -0.00000000000E+00 -0.00000000000E+00 -0.19100748025E+03  0.19100748025E+03  0.00000000000E+00 0. -1.
         23    2    1    2    0    0  0.37029570304E+03 -0.47997935551E+02  0.76804605360E+03  0.85865824081E+03  0.89311390923E+02 0.  0.
         11    1    3    3    0    0  0.23391934505E+03 -0.69841132859E+02  0.45093449746E+03  0.51277477007E+03  0.00000000000E+00 0. -1.
        -11    1    3    3    0    0  0.13637635800E+03  0.21843197308E+02  0.31711155614E+03  0.34588347074E+03  0.00000000000E+00 0.  1.
         22    1    1    2    0    0 -0.37029570304E+03  0.47997935551E+02  0.93525419504E+02  0.38492819279E+03  0.00000000000E+00 0. -1.
<mgrwt>
<rscale>  0 0.89677300E+03</rscale>
<asrwt>0</asrwt>
<pdfrwt beam="1">  1        2 0.16193522E+00 0.89677300E+03</pdfrwt>
<pdfrwt beam="2">  1       -2 0.29385767E-01 0.89677300E+03</pdfrwt>
<totfact> 0.24884867E+02</totfact>
</mgrwt>
</event>
<event>
 6    1  0.5026615E-004  0.1638970E+04  0.7818608E-02  0.8796958E-01
          2   -1    0    0  501    0  0.00000000000E+00  0.00000000000E+00  0.20874248537E+04  0.20874248537E+04  0.00000000000E+00 0.  1.
         -2   -1    0    0    0  501 -0.00000000000E+00 -0.00000000000E+00 -0.32171494144E+03  0.32171494144E+03  0.00000000000E+00 0. -1.
         23    2    1    2    0    0  0.23844434443E+03  0.38115808043E+03  0.18882021575E+04  0.19431553128E+04  0.91695114910E+02 0.  0.
         13    1    3    3    0    0  0.66523116970E+02  0.97210979807E+02  0.34177785426E+03  0.36150712490E+03  0.00000000000E+00 0.  1.
        -13    1    3    3    0    0  0.17192122746E+03  0.28394710063E+03  0.15464243033E+04  0.15816481879E+04  0.00000000000E+00 0. -1.
         22    1    1    2    0    0 -0.23844434443E+03 -0.38115808043E+03 -0.12249224528E+03  0.46598448239E+03  0.00000000000E+00 0. -1.
<mgrwt>
<rscale>  0 0.16389701E+04</rscale>
<asrwt>0</asrwt>
<pdfrwt beam="1">  1        2 0.32114228E+00 0.16389701E+04</pdfrwt>
<pdfrwt beam="2">  1       -2 0.49494608E-01 0.16389701E+04</pdfrwt>
<totfact> 0.22066467E+01</totfact>
</mgrwt>
</event>
<event>
 6    1  0.5026615E-004  0.2131190E+04  0.7818608E-02  0.8547627E-01
         -2   -1    0    0    0  501 -0.00000000000E+00  0.00000000000E+00  0.61057351972E+03  0.61057351972E+03  0.00000000000E+00 0. -1.
          2   -1    0    0  501    0  0.00000000000E+00 -0.00000000000E+00 -0.18597142608E+04  0.18597142608E+04  0.00000000000E+00 0.  1.
         23    2    1    2    0    0 -0.77458420490E+03 -0.72492253080E+03 -0.53824908444E+03  0.11932363666E+04  0.92777064147E+02 0.  0.
         11    1    3    3    0    0 -0.32243712682E+03 -0.34628035031E+03 -0.20307055876E+03  0.51489167171E+03  0.00000000000E+00 0. -1.
        -11    1    3    3    0    0 -0.45214707809E+03 -0.37864218050E+03 -0.33517852568E+03  0.67834469494E+03  0.00000000000E+00 0.  1.
         22    1    1    2    0    0  0.77458420490E+03  0.72492253080E+03 -0.71089165661E+03  0.12770514138E+04  0.00000000000E+00 0. -1.
<mgrwt>
<rscale>  0 0.21311896E+04</rscale>
<asrwt>0</asrwt>
<pdfrwt beam="1">  1        2 0.28610988E+00 0.21311896E+04</pdfrwt>
<pdfrwt beam="2">  1       -2 0.93934389E-01 0.21311896E+04</pdfrwt>
<totfact> 0.70317502E+00</totfact>
</mgrwt>
</event>
<event>
 6    1  0.5026615E-004  0.1232174E+04  0.7818608E-02  0.9085152E-01
          2   -1    0    0  501    0  0.00000000000E+00  0.00000000000E+00  0.27763938231E+04  0.27763938231E+04  0.00000000000E+00 0.  1.
         -2   -1    0    0    0  501 -0.00000000000E+00 -0.00000000000E+00 -0.13671078332E+03  0.13671078332E+03  0.00000000000E+00 0. -1.
         23    2    1    2    0    0  0.37102057219E+03  0.14569346673E+03  0.24272404577E+04  0.24614247398E+04  0.90734002174E+02 0.  0.
         11    1    3    3    0    0  0.30310964843E+03  0.78239771255E+02  0.18724443725E+04  0.18984322082E+04  0.00000000000E+00 0. -1.
        -11    1    3    3    0    0  0.67910923759E+02  0.67453695473E+02  0.55479608511E+03  0.56299253162E+03  0.00000000000E+00 0.  1.
         22    1    1    2    0    0 -0.37102057219E+03 -0.14569346673E+03  0.21244258217E+03  0.45167986667E+03  0.00000000000E+00 0. -1.
<mgrwt>
<rscale>  0 0.12321736E+04</rscale>
<asrwt>0</asrwt>
<pdfrwt beam="1">  1        2 0.42713747E+00 0.12321736E+04</pdfrwt>
<pdfrwt beam="2">  1       -2 0.21032430E-01 0.12321736E+04</pdfrwt>
<totfact> 0.46465985E+01</totfact>
</mgrwt>
</event>
<event>
 6    1  0.5026615E-004  0.3120708E+04  0.7818608E-02  0.8210078E-01
          2   -1    0    0  501    0  0.00000000000E+00  0.00000000000E+00  0.19499385476E+04  0.19499385476E+04  0.00000000000E+00 0.  1.
         -2   -1    0    0    0  501 -0.00000000000E+00 -0.00000000000E+00 -0.12486062061E+04  0.12486062061E+04  0.00000000000E+00 0. -1.
         23    2    1    2    0    0  0.18191315371E+03  0.13452804183E+04  0.11366609973E+04  0.17729281019E+04  0.91673511525E+02 0.  0.
         13    1    3    3    0    0  0.59885559987E+02  0.78086363233E+03  0.65276358286E+03  0.10195266488E+04  0.00000000000E+00 0. -1.
        -13    1    3    3    0    0  0.12202759373E+03  0.56441678592E+03  0.48389741440E+03  0.75340145309E+03  0.00000000000E+00 0.  1.
         22    1    1    2    0    0 -0.18191315371E+03 -0.13452804183E+04 -0.43532865576E+03  0.14256166518E+04  0.00000000000E+00 0. -1.
<mgrwt>
<rscale>  0 0.31207085E+04</rscale>
<asrwt>0</asrwt>
<pdfrwt beam="1">  1        2 0.29999054E+00 0.31207085E+04</pdfrwt>
<pdfrwt beam="2">  1       -2 0.19209326E+00 0.31207085E+04</pdfrwt>
<totfact> 0.90620009E-01</totfact>
</mgrwt>
</event>
<event>
 6    1  0.5026615E-004  0.2929308E+04  0.7818608E-02  0.8264211E-01
          2   -1    0    0  501    0  0.00000000000E+00  0.00000000000E+00  0.25134774257E+04  0.25134774257E+04  0.00000000000E+00 0.  1.
         -2   -1    0    0    0  501 -0.00000000000E+00 -0.00000000000E+00 -0.85348326602E+03  0.85348326602E+03  0.00000000000E+00 0. -1.
         23    2    1    2    0    0 -0.40765435470E+03 -0.12461472815E+04  0.84155319291E+02  0.13170013822E+04  0.91353176335E+02 0.  0.
         11    1    3    3    0    0 -0.16842362299E+03 -0.65982374768E+03  0.36392217515E+02  0.68195182255E+03  0.00000000000E+00 0. -1.
        -11    1    3    3    0    0 -0.23923073171E+03 -0.58632353379E+03  0.47763101776E+02  0.63504955961E+03  0.00000000000E+00 0.  1.
         22    1    1    2    0    0  0.40765435470E+03  0.12461472815E+04  0.15758388404E+04  0.20499593096E+04  0.00000000000E+00 0.  1.
<mgrwt>
<rscale>  0 0.29293077E+04</rscale>
<asrwt>0</asrwt>
<pdfrwt beam="1">  1        2 0.38668883E+00 0.29293077E+04</pdfrwt>
<pdfrwt beam="2">  1       -2 0.13130512E+00 0.29293077E+04</pdfrwt>
<totfact> 0.12461677E+00</totfact>
</mgrwt>
</event>
<event>
 6    1  0.5026615E-004  0.3543916E+04  0.7818608E-02  0.8103461E-01
         -2   -1    0    0    0  501 -0.00000000000E+00  0.00000000000E+00  0.97154985067E+03  0.97154985067E+03  0.00000000000E+00 0. -1.
          2   -1    0    0  501    0  0.00000000000E+00 -0.00000000000E+00 -0.32317794046E+04  0.32317794046E+04  0.00000000000E+00 0.  1.
         23    2    1    2    0    0  0.65235554299E+03 -0.26285371511E+03 -0.30583821571E+04  0.31395118800E+04  0.90407942673E+02 0.  0.
         11    1    3    3    0    0  0.57169137655E+03 -0.23118318250E+03 -0.25299162700E+04  0.26039879084E+04  0.00000000000E+00 0.  1.
        -11    1    3    3    0    0  0.80664166440E+02 -0.31670532606E+02 -0.52846588705E+03  0.53552397160E+03  0.00000000000E+00 0. -1.
         22    1    1    2    0    0 -0.65235554299E+03  0.26285371511E+03  0.79815260313E+03  0.10638173753E+04  0.00000000000E+00 0. -1.
<mgrwt>
<rscale>  0 0.35439158E+04</rscale>
<asrwt>0</asrwt>
<pdfrwt beam="1">  1        2 0.49719684E+00 0.35439158E+04</pdfrwt>
<pdfrwt beam="2">  1       -2 0.14946921E+00 0.35439158E+04</pdfrwt>
<totfact> 0.30575101E-01</totfact>
</mgrwt>
</event>
<event>
 6    1  0.5026615E-004  0.8033667E+03  0.7818608E-02  0.9555157E-01
         -2   -1    0    0    0  501 -0.00000000000E+00  0.00000000000E+00  0.29915495195E+03  0.29915495195E+03  0.00000000000E+00 0. -1.
          2   -1    0    0  501    0  0.00000000000E+00 -0.00000000000E+00 -0.53935093392E+03  0.53935093392E+03  0.00000000000E+00 0.  1.
         23    2    1    2    0    0 -0.25551295549E+03  0.28027985622E+03 -0.24137970732E+03  0.45923676054E+03  0.93758044491E+02 0.  0.
         13    1    3    3    0    0 -0.84041542696E+02  0.85763498235E+02 -0.27691227005E+02  0.12322809169E+03  0.00000000000E+00 0.  1.
        -13    1    3    3    0    0 -0.17147141279E+03  0.19451635798E+03 -0.21368848031E+03  0.33600866885E+03  0.00000000000E+00 0. -1.
         22    1    1    2    0    0  0.25551295549E+03 -0.28027985622E+03  0.11837253428E+01  0.37926912533E+03  0.00000000000E+00 0. -1.
<mgrwt>
<rscale>  0 0.80336667E+03</rscale>
<asrwt>0</asrwt>
<pdfrwt beam="1">  1        2 0.82977066E-01 0.80336667E+03</pdfrwt>
<pdfrwt beam="2">  1       -2 0.46023839E-01 0.80336667E+03</pdfrwt>
<totfact> 0.25387071E+02</totfact>
</mgrwt>
</event>
<event>
 6    1  0.5026615E-004  0.2703031E+04  0.7818608E-02  0.8334022E-01
          2   -1    0    0  501    0  0.00000000000E+00  0.00000000000E+00  0.40493689634E+04  0.40493689634E+04  0.00000000000E+00 0.  1.
         -2   -1    0    0    0  501 -0.00000000000E+00 -0.00000000000E+00 -0.45108120348E+03  0.45108120348E+03  0.00000000000E+00 0. -1.
         23    2    1    2    0    0  0.10530080568E+04  0.35455180124E+03  0.30777342389E+04  0.32734583512E+04  0.92458553691E+02 0.  0.
         11    1    3    3    0    0  0.18874879726E+03  0.73066968664E+02  0.66840418769E+03  0.69837600796E+03  0.00000000000E+00 0. -1.
        -11    1    3    3    0    0  0.86425925957E+03  0.28148483258E+03  0.24093300512E+04  0.25750823432E+04  0.00000000000E+00 0.  1.
         22    1    1    2    0    0 -0.10530080568E+04 -0.35455180124E+03  0.52055352101E+03  0.12269918157E+04  0.00000000000E+00 0. -1.
<mgrwt>
<rscale>  0 0.27030311E+04</rscale>
<asrwt>0</asrwt>
<pdfrwt beam="1">  1        2 0.62297982E+00 0.27030311E+04</pdfrwt>
<pdfrwt beam="2">  1       -2 0.69397111E-01 0.27030311E+04</pdfrwt>
<totfact> 0.51884624E-01</totfact>
</mgrwt>
</event>
<event>
 6    1  0.5026615E-004  0.7416695E+03  0.7818608E-02  0.9648511E-01
          2   -1    0    0  501    0  0.00000000000E+00  0.00000000000E+00  0.16111352725E+03  0.16111352725E+03  0.00000000000E+00 0.  1.
         -2   -1    0    0    0  501 -0.00000000000E+00 -0.00000000000E+00 -0.85354983703E+03  0.85354983703E+03  0.00000000000E+00 0. -1.
         23    2    1    2    0    0 -0.75977124410E+02  0.27787059131E+03 -0.44100838400E+02  0.30521042546E+03  0.90685891485E+02 0.  0.
         11    1    3    3    0    0 -0.62129760025E+02  0.24521853897E+03 -0.68601391889E+02  0.26210377698E+03  0.00000000000E+00 0. -1.
        -11    1    3    3    0    0 -0.13847364385E+02  0.32652052334E+02  0.24500553489E+02  0.43106648482E+02  0.00000000000E+00 0.  1.
         22    1    1    2    0    0  0.75977124410E+02 -0.27787059131E+03 -0.64833547138E+03  0.70945293882E+03  0.00000000000E+00 0. -1.
<mgrwt>
<rscale>  0 0.74166954E+03</rscale>
<asrwt>0</asrwt>
<pdfrwt beam="1">  1        2 0.24786697E-01 0.74166954E+03</pdfrwt>
<pdfrwt beam="2">  1       -2 0.13131536E+00 0.74166954E+03</pdfrwt>
<totfact> 0.94637300E+01</totfact>
</mgrwt>
</event>
<event>
 6    1  0.5026615E-004  0.2550590E+04  0.7818608E-02  0.8385181E-01
         -2   -1    0    0    0  501 -0.00000000000E+00  0.00000000000E+00  0.99721441873E+03  0.99721441873E+03  0.00000000000E+00 0.  1.
          2   -1    0    0  501    0  0.00000000000E+00 -0.00000000000E+00 -0.16309206268E+04  0.16309206268E+04  0.00000000000E+00 0. -1.
         23    2    1    2    0    0  0.12089427347E+04  0.36635079813E+03 -0.48521293935E+03  0.13562051363E+04  0.90029618745E+02 0.  0.
         11    1    3    3    0    0  0.11654064236E+04  0.33473503750E+03 -0.46808723785E+03  0.12997404894E+04  0.00000000000E+00 0. -1.
        -11    1    3    3    0    0  0.43536311087E+02  0.31615760627E+02 -0.17125701505E+02  0.56464646949E+02  0.00000000000E+00 0.  1.
         22    1    1    2    0    0 -0.12089427347E+04 -0.36635079813E+03 -0.14849326870E+03  0.12719299092E+04  0.00000000000E+00 0.  1.
<mgrwt>
<rscale>  0 0.25505902E+04</rscale>
<asrwt>0</asrwt>
<pdfrwt beam="1">  1        2 0.25091086E+00 0.25505902E+04</pdfrwt>
<pdfrwt beam="2">  1       -2 0.15341760E+00 0.25505902E+04</pdfrwt>
<totfact> 0.26861878E+00</totfact>
</mgrwt>
</event>
<event>
 6    1  0.5026615E-004  0.2787801E+04  0.7818608E-02  0.8307066E-01
         -2   -1    0    0    0  501 -0.00000000000E+00  0.00000000000E+00  0.88666088997E+03  0.88666088997E+03  0.00000000000E+00 0. -1.
          2   -1    0    0  501    0  0.00000000000E+00 -0.00000000000E+00 -0.21913205211E+04  0.21913205211E+04  0.00000000000E+00 0.  1.
         23    2    1    2    0    0  0.29710041286E+03  0.13554114023E+04 -0.52655220227E+03  0.14871137561E+04  0.94028597080E+02 0.  0.
         13    1    3    3    0    0  0.33754617334E+02  0.21367707102E+03 -0.11664486991E+03  0.24577080898E+03  0.00000000000E+00 0. -1.
        -13    1    3    3    0    0  0.26334579553E+03  0.11417343313E+04 -0.40990733235E+03  0.12413429471E+04  0.00000000000E+00 0.  1.
         22    1    1    2    0    0 -0.29710041286E+03 -0.13554114023E+04 -0.77810742890E+03  0.15908676550E+04  0.00000000000E+00 0.  1.
<mgrwt>
<rscale>  0 0.27878007E+04</rscale>
<asrwt>0</asrwt>
<pdfrwt beam="1">  1        2 0.33712623E+00 0.27878007E+04</pdfrwt>
<pdfrwt beam="2">  1       -2 0.13640937E+00 0.27878007E+04</pdfrwt>
<totfact> 0.17473397E+00</totfact>
</mgrwt>
</event>
<event>
 6    1  0.5026615E-004  0.2647481E+04  0.7818608E-02  0.8352249E-01
         -2   -1    0    0    0  501 -0.00000000000E+00  0.00000000000E+00  0.18889159022E+04  0.18889159022E+04  0.00000000000E+00 0. -1.
          2   -1    0    0  501    0  0.00000000000E+00 -0.00000000000E+00 -0.92766942518E+03  0.92766942518E+03  0.00000000000E+00 0.  1.
         23    2    1    2    0    0 -0.48660715289E+03  0.79848604615E+03 -0.51307232437E+03  0.10707381361E+04  0.94183113995E+02 0.  0.
         11    1    3    3    0    0 -0.22022234701E+03  0.31922193579E+03 -0.25947792730E+03  0.46661474598E+03  0.00000000000E+00 0. -1.
        -11    1    3    3    0    0 -0.26638480588E+03  0.47926411036E+03 -0.25359439706E+03  0.60412339013E+03  0.00000000000E+00 0.  1.
         22    1    1    2    0    0  0.48660715289E+03 -0.79848604615E+03  0.14743188014E+04  0.17458471913E+04  0.00000000000E+00 0. -1.
<mgrwt>
<rscale>  0 0.26474815E+04</rscale>
<asrwt>0</asrwt>
<pdfrwt beam="1">  1        2 0.14271837E+00 0.26474815E+04</pdfrwt>
<pdfrwt beam="2">  1       -2 0.29060245E+00 0.26474815E+04</pdfrwt>
<totfact> 0.89803733E-01</totfact>
</mgrwt>
</event>
<event>
 6    1  0.5026615E-004  0.5041487E+04  0.7818608E-02  0.7822139E-01
         -2   -1    0    0    0  501 -0.00000000000E+00  0.00000000000E+00  0.18927846643E+04  0.18927846643E+04  0.00000000000E+00 0. -1.
          2   -1    0    0  501    0  0.00000000000E+00 -0.00000000000E+00 -0.33570367225E+04  0.33570367225E+04  0.00000000000E+00 0.  1.
         23    2    1    2    0    0 -0.24477837501E+04 -0.53703832128E+03 -0.10077232829E+04  0.27025730737E+04  0.91321179665E+02 0.  0.
         11    1    3    3    0    0 -0.94587803663E+03 -0.25100981550E+03 -0.40776666508E+03  0.10601720808E+04  0.00000000000E+00 0. -1.
        -11    1    3    3    0    0 -0.15019057135E+04 -0.28602850577E+03 -0.59995661782E+03  0.16424009929E+04  0.00000000000E+00 0.  1.
         22    1    1    2    0    0  0.24477837501E+04  0.53703832128E+03 -0.45652877536E+03  0.25472483131E+04  0.00000000000E+00 0. -1.
<mgrwt>
<rscale>  0 0.50414869E+04</rscale>
<asrwt>0</asrwt>
<pdfrwt beam="1">  1        2 0.51646719E+00 0.50414869E+04</pdfrwt>
<pdfrwt beam="2">  1       -2 0.29119764E+00 0.50414869E+04</pdfrwt>
<totfact> 0.26584116E-02</totfact>
</mgrwt>
</event>
<event>
 6    1  0.5026615E-004  0.1771602E+04  0.7818608E-02  0.8721549E-01
          2   -1    0    0  501    0  0.00000000000E+00  0.00000000000E+00  0.20568214672E+04  0.20568214672E+04  0.00000000000E+00 0.  1.
         -2   -1    0    0    0  501 -0.00000000000E+00 -0.00000000000E+00 -0.38148331624E+03  0.38148331624E+03  0.00000000000E+00 0. -1.
         23    2    1    2    0    0 -0.74451473138E+03  0.14102747197E+03  0.21484541472E+03  0.79293857323E+03  0.91662945681E+02 0.  0.
         11    1    3    3    0    0 -0.30146833762E+03  0.89692815588E+02  0.12204138117E+03  0.33737524876E+03  0.00000000000E+00 0. -1.
        -11    1    3    3    0    0 -0.44304639376E+03  0.51334656379E+02  0.92804033548E+02  0.45556332448E+03  0.00000000000E+00 0.  1.
         22    1    1    2    0    0  0.74451473138E+03 -0.14102747197E+03  0.14604927363E+04  0.16453662102E+04  0.00000000000E+00 0.  1.
<mgrwt>
<rscale>  0 0.17716016E+04</rscale>
<asrwt>0</asrwt>
<pdfrwt beam="1">  1        2 0.31643407E+00 0.17716016E+04</pdfrwt>
<pdfrwt beam="2">  1       -2 0.58689742E-01 0.17716016E+04</pdfrwt>
<totfact> 0.15950075E+01</totfact>
</mgrwt>
</event>
<event>
 6    1  0.5026615E-004  0.8259282E+03  0.7818608E-02  0.9523227E-01
         -1   -1    0    0    0  501 -0.00000000000E+00  0.00000000000E+00  0.23100370510E+03  0.23100370510E+03  0.00000000000E+00 0. -1.
          1   -1    0    0  501    0  0.00000000000E+00 -0.00000000000E+00 -0.73825376678E+03  0.73825376678E+03  0.00000000000E+00 0.  1.
         23    2    1    2    0    0 -0.13447080221E+02  0.12038981060E+03  0.20043789849E+03  0.25127642795E+03  0.91049226391E+02 0.  0.
         13    1    3    3    0    0  0.18322570885E+01  0.93629493009E+02  0.69125080148E+02  0.11639637380E+03  0.00000000000E+00 0.  1.
        -13    1    3    3    0    0 -0.15279337310E+02  0.26760317593E+02  0.13131281835E+03  0.13488005415E+03  0.00000000000E+00 0. -1.
         22    1    1    2    0    0  0.13447080221E+02 -0.12038981060E+03 -0.70768796018E+03  0.71798104393E+03  0.00000000000E+00 0.  1.
<mgrwt>
<rscale>  0 0.82592822E+03</rscale>
<asrwt>0</asrwt>
<pdfrwt beam="1">  1        1 0.11357750E+00 0.82592822E+03</pdfrwt>
<pdfrwt beam="2">  1       -1 0.35539032E-01 0.82592822E+03</pdfrwt>
<totfact> 0.19128127E+02</totfact>
</mgrwt>
</event>
<event>
 6    1  0.5026615E-004  0.2318226E+04  0.7818608E-02  0.8470769E-01
          2   -1    0    0  501    0  0.00000000000E+00  0.00000000000E+00  0.12534979655E+04  0.12534979655E+04  0.00000000000E+00 0.  1.
         -2   -1    0    0    0  501 -0.00000000000E+00 -0.00000000000E+00 -0.10718348436E+04  0.10718348436E+04  0.00000000000E+00 0. -1.
         23    2    1    2    0    0 -0.10039067811E+04 -0.48999735608E+03 -0.21231087183E+03  0.11407899683E+04  0.91649394625E+02 0.  0.
         13    1    3    3    0    0 -0.43195332599E+03 -0.16797398395E+03 -0.63946665197E+02  0.46785479703E+03  0.00000000000E+00 0. -1.
        -13    1    3    3    0    0 -0.57195345506E+03 -0.32202337213E+03 -0.14836420664E+03  0.67293517130E+03  0.00000000000E+00 0.  1.
         22    1    1    2    0    0  0.10039067811E+04  0.48999735608E+03  0.39397399374E+03  0.11845428408E+04  0.00000000000E+00 0. -1.
<mgrwt>
<rscale>  0 0.23182259E+04</rscale>
<asrwt>0</asrwt>
<pdfrwt beam="1">  1        2 0.19284584E+00 0.23182259E+04</pdfrwt>
<pdfrwt beam="2">  1       -2 0.16489767E+00 0.23182259E+04</pdfrwt>
<totfact> 0.36960800E+00</totfact>
</mgrwt>
</event>
<event>
 6    1  0.5026615E-004  0.2961463E+04  0.7818608E-02  0.8254822E-01
         -2   -1    0    0    0  501 -0.00000000000E+00  0.00000000000E+00  0.68422152215E+03  0.68422152215E+03  0.00000000000E+00 0. -1.
          2   -1    0    0  501    0  0.00000000000E+00 -0.00000000000E+00 -0.32044681457E+04  0.32044681457E+04  0.00000000000E+00 0.  1.
         23    2    1    2    0    0  0.69945034110E+03  0.12530255716E+04 -0.17331093570E+04  0.22519584929E+04  0.91351780922E+02 0.  0.
         13    1    3    3    0    0  0.29401827048E+03  0.45388849118E+03 -0.61119829459E+03  0.81610346226E+03  0.00000000000E+00 0. -1.
        -13    1    3    3    0    0  0.40543207062E+03  0.79913708038E+03 -0.11219110624E+04  0.14358550306E+04  0.00000000000E+00 0.  1.
         22    1    1    2    0    0 -0.69945034110E+03 -0.12530255716E+04 -0.78713726659E+03  0.16367311750E+04  0.00000000000E+00 0. -1.
<mgrwt>
<rscale>  0 0.29614632E+04</rscale>
<asrwt>0</asrwt>
<pdfrwt beam="1">  1        2 0.49299509E+00 0.29614632E+04</pdfrwt>
<pdfrwt beam="2">  1       -2 0.10526485E+00 0.29614632E+04</pdfrwt>
<totfact> 0.80763353E-01</totfact>
</mgrwt>
</event>
<event>
 6    1  0.5026615E-004  0.1779975E+04  0.7818608E-02  0.8717021E-01
         -2   -1    0    0    0  501 -0.00000000000E+00  0.00000000000E+00  0.43994367915E+03  0.43994367915E+03  0.00000000000E+00 0. -1.
          2   -1    0    0  501    0  0.00000000000E+00 -0.00000000000E+00 -0.18004076046E+04  0.18004076046E+04  0.00000000000E+00 0.  1.
         23    2    1    2    0    0  0.53166157762E+03  0.57328447518E+03 -0.12113554996E+04  0.14443912060E+04  0.86975209081E+02 0.  0.
         11    1    3    3    0    0  0.20557248217E+03  0.27565934186E+03 -0.48902805760E+03  0.59782652944E+03  0.00000000000E+00 0.  1.
        -11    1    3    3    0    0  0.32608909545E+03  0.29762513332E+03 -0.72232744204E+03  0.84656467660E+03  0.00000000000E+00 0. -1.
         22    1    1    2    0    0 -0.53166157762E+03 -0.57328447518E+03 -0.14910842577E+03  0.79596007766E+03  0.00000000000E+00 0. -1.
<mgrwt>
<rscale>  0 0.17799752E+04</rscale>
<asrwt>0</asrwt>
<pdfrwt beam="1">  1        2 0.27698578E+00 0.17799752E+04</pdfrwt>
<pdfrwt beam="2">  1       -2 0.67683644E-01 0.17799752E+04</pdfrwt>
<totfact> 0.16310826E+01</totfact>
</mgrwt>
</event>
<event>
 6    1  0.5026615E-004  0.8117772E+03  0.7818608E-02  0.9543125E-01
         -4   -1    0    0    0  501 -0.00000000000E+00  0.00000000000E+00  0.52458439378E+03  0.52458439378E+03  0.00000000000E+00 0. -1.
          4   -1    0    0  501    0  0.00000000000E+00 -0.00000000000E+00 -0.31404965765E+03  0.31404965765E+03  0.00000000000E+00 0.  1.
         23    2    1    2    0    0 -0.28118350374E+03  0.16062513635E+03  0.35068687427E+03  0.48577824657E+03  0.90192149608E+02 0.  0.
         13    1    3    3    0    0 -0.21146960696E+03  0.79191451031E+02  0.26764602349E+03  0.35017863224E+03  0.00000000000E+00 0.  1.
        -13    1    3    3    0    0 -0.69713896780E+02  0.81433685320E+02  0.83040850777E+02  0.13559961433E+03  0.00000000000E+00 0. -1.
         22    1    1    2    0    0  0.28118350374E+03 -0.16062513635E+03 -0.14015213813E+03  0.35285580486E+03  0.00000000000E+00 0.  1.
<mgrwt>
<rscale>  0 0.81177718E+03</rscale>
<asrwt>0</asrwt>
<pdfrwt beam="1">  1        4 0.48315332E-01 0.81177718E+03</pdfrwt>
<pdfrwt beam="2">  1       -4 0.80705291E-01 0.81177718E+03</pdfrwt>
<totfact> 0.11210129E+01</totfact>
</mgrwt>
</event>
<event>
 6    1  0.5026615E-004  0.1930099E+04  0.7818608E-02  0.8640018E-01
         -2   -1    0    0    0  501 -0.00000000000E+00  0.00000000000E+00  0.18517210565E+03  0.18517210565E+03  0.00000000000E+00 0. -1.
          2   -1    0    0  501    0  0.00000000000E+00 -0.00000000000E+00 -0.50294864904E+04  0.50294864904E+04  0.00000000000E+00 0.  1.
         23    2    1    2    0    0 -0.83050651054E+03 -0.11444517527E+03 -0.11476659709E+04  0.14241377535E+04  0.90511866532E+02 0.  0.
         11    1    3    3    0    0 -0.53069748393E+03 -0.61827755227E+02 -0.80049996498E+03  0.96242541773E+03  0.00000000000E+00 0.  1.
        -11    1    3    3    0    0 -0.29980902661E+03 -0.52617420040E+02 -0.34716600588E+03  0.46171233573E+03  0.00000000000E+00 0. -1.
         22    1    1    2    0    0  0.83050651054E+03  0.11444517527E+03 -0.36966484139E+04  0.37905208426E+04  0.00000000000E+00 0.  1.
<mgrwt>
<rscale>  0 0.19300991E+04</rscale>
<asrwt>0</asrwt>
<pdfrwt beam="1">  1        2 0.77376699E+00 0.19300991E+04</pdfrwt>
<pdfrwt beam="2">  1       -2 0.28488022E-01 0.19300991E+04</pdfrwt>
<totfact> 0.34174852E-01</totfact>
</mgrwt>
</event>
<event>
 6    1  0.5026615E-004  0.3237989E+03  0.7818608E-02  0.1073914E+00
         -2   -1    0    0    0  501 -0.00000000000E+00  0.00000000000E+00  0.14402237520E+02  0.14402237520E+02  0.00000000000E+00 0. -1.
          2   -1    0    0  501    0  0.00000000000E+00 -0.00000000000E+00 -0.18199558908E+04  0.18199558908E+04  0.00000000000E+00 0.  1.
         23    2    1    2    0    0  0.14456422765E+03  0.65759048587E+01 -0.11902737257E+04  0.12022889488E+04  0.88346566594E+02 0.  0.
         11    1    3    3    0    0  0.66559861561E+02 -0.10334821967E+02 -0.85484835007E+03  0.85749794480E+03  0.00000000000E+00 0.  1.
        -11    1    3    3    0    0  0.78004366090E+02  0.16910726825E+02 -0.33542537562E+03  0.34479100397E+03  0.00000000000E+00 0. -1.
         22    1    1    2    0    0 -0.14456422765E+03 -0.65759048587E+01 -0.61527992763E+03  0.63206917959E+03  0.00000000000E+00 0. -1.
<mgrwt>
<rscale>  0 0.32379893E+03</rscale>
<asrwt>0</asrwt>
<pdfrwt beam="1">  1        2 0.27999294E+00 0.32379893E+03</pdfrwt>
<pdfrwt beam="2">  1       -2 0.22157310E-02 0.32379893E+03</pdfrwt>
<totfact> 0.61456188E+03</totfact>
</mgrwt>
</event>
<event>
 6    1  0.5026615E-004  0.3389213E+04  0.7818608E-02  0.8140559E-01
         -2   -1    0    0    0  501 -0.00000000000E+00  0.00000000000E+00  0.86760211369E+03  0.86760211369E+03  0.00000000000E+00 0. -1.
          2   -1    0    0  501    0  0.00000000000E+00 -0.00000000000E+00 -0.33099179788E+04  0.33099179788E+04  0.00000000000E+00 0.  1.
         23    2    1    2    0    0 -0.49231325936E+03 -0.11600310758E+04 -0.26163076024E+04  0.29053889802E+04  0.90416887812E+02 0.  0.
         11    1    3    3    0    0 -0.87628075400E+02 -0.24009050186E+03 -0.61195276946E+03  0.66318045865E+03  0.00000000000E+00 0.  1.
        -11    1    3    3    0    0 -0.40468518396E+03 -0.91994057394E+03 -0.20043548330E+04  0.22422085216E+04  0.00000000000E+00 0. -1.
         22    1    1    2    0    0  0.49231325936E+03  0.11600310758E+04  0.17399173733E+03  0.12721311123E+04  0.00000000000E+00 0. -1.
<mgrwt>
<rscale>  0 0.33892134E+04</rscale>
<asrwt>0</asrwt>
<pdfrwt beam="1">  1        2 0.50921816E+00 0.33892134E+04</pdfrwt>
<pdfrwt beam="2">  1       -2 0.13347725E+00 0.33892134E+04</pdfrwt>
<totfact> 0.36894651E-01</totfact>
</mgrwt>
</event>
<event>
 6    1  0.5026615E-004  0.3325157E+04  0.7818608E-02  0.8156524E-01
         -2   -1    0    0    0  501 -0.00000000000E+00  0.00000000000E+00  0.24907166315E+04  0.24907166315E+04  0.00000000000E+00 0. -1.
          2   -1    0    0  501    0  0.00000000000E+00 -0.00000000000E+00 -0.11097878894E+04  0.11097878894E+04  0.00000000000E+00 0.  1.
         23    2    1    2    0    0  0.28997057274E+03  0.14961717512E+04  0.14071219475E+04  0.20762673589E+04  0.91000704533E+02 0.  0.
         11    1    3    3    0    0  0.72641977450E+02  0.60257978329E+03  0.57341465520E+03  0.83497522055E+03  0.00000000000E+00 0. -1.
        -11    1    3    3    0    0  0.21732859529E+03  0.89359196789E+03  0.83370729230E+03  0.12412921383E+04  0.00000000000E+00 0.  1.
         22    1    1    2    0    0 -0.28997057274E+03 -0.14961717512E+04 -0.26193205336E+02  0.15242371620E+04  0.00000000000E+00 0.  1.
<mgrwt>
<rscale>  0 0.33251569E+04</rscale>
<asrwt>0</asrwt>
<pdfrwt beam="1">  1        2 0.17073660E+00 0.33251569E+04</pdfrwt>
<pdfrwt beam="2">  1       -2 0.38318717E+00 0.33251569E+04</pdfrwt>
<totfact> 0.17086848E-01</totfact>
</mgrwt>
</event>
<event>
 6    1  0.5026615E-004  0.2312651E+04  0.7818608E-02  0.8472950E-01
         -2   -1    0    0    0  501 -0.00000000000E+00  0.00000000000E+00  0.45765639205E+03  0.45765639205E+03  0.00000000000E+00 0. -1.
          2   -1    0    0  501    0  0.00000000000E+00 -0.00000000000E+00 -0.29215989093E+04  0.29215989093E+04  0.00000000000E+00 0.  1.
         23    2    1    2    0    0  0.75383232670E+03  0.27701597002E+03 -0.24458241046E+04  0.25759313933E+04  0.91465664016E+02 0.  0.
         11    1    3    3    0    0  0.67792605876E+03  0.24252682992E+03 -0.22677620380E+04  0.23793166383E+04  0.00000000000E+00 0.  1.
        -11    1    3    3    0    0  0.75906267935E+02  0.34489140106E+02 -0.17806206658E+03  0.19661475492E+03  0.00000000000E+00 0. -1.
         22    1    1    2    0    0 -0.75383232670E+03 -0.27701597002E+03 -0.18118412636E+02  0.80332390808E+03  0.00000000000E+00 0. -1.
<mgrwt>
<rscale>  0 0.23126508E+04</rscale>
<asrwt>0</asrwt>
<pdfrwt beam="1">  1        2 0.44947675E+00 0.23126508E+04</pdfrwt>
<pdfrwt beam="2">  1       -2 0.70408676E-01 0.23126508E+04</pdfrwt>
<totfact> 0.32405362E+00</totfact>
</mgrwt>
</event>
<event>
 6    1  0.5026615E-004  0.2766233E+04  0.7818608E-02  0.8313829E-01
         -2   -1    0    0    0  501 -0.00000000000E+00  0.00000000000E+00  0.13124891019E+04  0.13124891019E+04  0.00000000000E+00 0. -1.
          2   -1    0    0  501    0  0.00000000000E+00 -0.00000000000E+00 -0.14575446190E+04  0.14575446190E+04  0.00000000000E+00 0.  1.
         23    2    1    2    0    0  0.11679847366E+04 -0.63478262862E+03  0.30443621642E+03  0.13667589263E+04  0.90615794739E+02 0.  0.
         13    1    3    3    0    0  0.83959822777E+03 -0.47157674840E+03  0.25941131946E+03  0.99729837379E+03  0.00000000000E+00 0. -1.
        -13    1    3    3    0    0  0.32838650887E+03 -0.16320588022E+03  0.45024896958E+02  0.36946055255E+03  0.00000000000E+00 0.  1.
         22    1    1    2    0    0 -0.11679847366E+04  0.63478262862E+03 -0.44949173344E+03  0.14032747946E+04  0.00000000000E+00 0.  1.
<mgrwt>
<rscale>  0 0.27662331E+04</rscale>
<asrwt>0</asrwt>
<pdfrwt beam="1">  1        2 0.22423763E+00 0.27662331E+04</pdfrwt>
<pdfrwt beam="2">  1       -2 0.20192140E+00 0.27662331E+04</pdfrwt>
<totfact> 0.15126617E+00</totfact>
</mgrwt>
</event>
<event>
 6    1  0.5026615E-004  0.5478194E+03  0.7818608E-02  0.1002000E+00
          2   -1    0    0  501    0  0.00000000000E+00  0.00000000000E+00  0.82985025875E+03  0.82985025875E+03  0.00000000000E+00 0.  1.
         -2   -1    0    0    0  501 -0.00000000000E+00 -0.00000000000E+00 -0.90409727660E+02  0.90409727660E+02  0.00000000000E+00 0. -1.
         23    2    1    2    0    0 -0.13339571029E+03  0.13433061474E+02 -0.77721908745E+01  0.16111460209E+03  0.89009243301E+02 0.  0.
         11    1    3    3    0    0 -0.58312536041E+02 -0.10803887564E+02  0.37484492003E+02  0.70158128444E+02  0.00000000000E+00 0. -1.
        -11    1    3    3    0    0 -0.75083174247E+02  0.24236949038E+02 -0.45256682878E+02  0.90956473649E+02  0.00000000000E+00 0.  1.
         22    1    1    2    0    0  0.13339571029E+03 -0.13433061474E+02  0.74721272196E+03  0.75914538432E+03  0.00000000000E+00 0.  1.
<mgrwt>
<rscale>  0 0.54781944E+03</rscale>
<asrwt>0</asrwt>
<pdfrwt beam="1">  1        2 0.12766927E+00 0.54781944E+03</pdfrwt>
<pdfrwt beam="2">  1       -2 0.13909189E-01 0.54781944E+03</pdfrwt>
<totfact> 0.13110055E+03</totfact>
</mgrwt>
</event>
<event>
 6    1  0.5026615E-004  0.2922087E+04  0.7818608E-02  0.8266336E-01
         -2   -1    0    0    0  501 -0.00000000000E+00  0.00000000000E+00  0.10574574461E+04  0.10574574461E+04  0.00000000000E+00 0. -1.
          2   -1    0    0  501    0  0.00000000000E+00 -0.00000000000E+00 -0.20186615049E+04  0.20186615049E+04  0.00000000000E+00 0.  1.
         23    2    1    2    0    0  0.14271499129E+04 -0.46491730887E+02 -0.16131395630E+03  0.14394325025E+04  0.83817550795E+02 0.  0.
         11    1    3    3    0    0  0.10522776937E+04 -0.48825687728E+02 -0.15298292051E+03  0.10644604579E+04  0.00000000000E+00 0. -1.
        -11    1    3    3    0    0  0.37487221913E+03  0.23339568414E+01 -0.83310357924E+01  0.37497204454E+03  0.00000000000E+00 0.  1.
         22    1    1    2    0    0 -0.14271499129E+04  0.46491730887E+02 -0.79989010240E+03  0.16366864485E+04  0.00000000000E+00 0.  1.
<mgrwt>
<rscale>  0 0.29220874E+04</rscale>
<asrwt>0</asrwt>
<pdfrwt beam="1">  1        2 0.31056330E+00 0.29220874E+04</pdfrwt>
<pdfrwt beam="2">  1       -2 0.16268576E+00 0.29220874E+04</pdfrwt>
<totfact> 0.13527012E+00</totfact>
</mgrwt>
</event>
<event>
 6    1  0.5026615E-004  0.3165734E+04  0.7818608E-02  0.8197926E-01
          2   -1    0    0  501    0  0.00000000000E+00  0.00000000000E+00  0.14516224318E+04  0.14516224318E+04  0.00000000000E+00 0.  1.
         -2   -1    0    0    0  501 -0.00000000000E+00 -0.00000000000E+00 -0.17259782297E+04  0.17259782297E+04  0.00000000000E+00 0. -1.
         23    2    1    2    0    0  0.13177452529E+04  0.82459733437E+03 -0.42965602112E+03  0.16153806148E+04  0.91852702221E+02 0.  0.
         11    1    3    3    0    0  0.12213379055E+04  0.73454363899E+03 -0.39717977842E+03  0.14795176286E+04  0.00000000000E+00 0.  1.
        -11    1    3    3    0    0  0.96407347386E+02  0.90053695384E+02 -0.32476242695E+02  0.13586298621E+03  0.00000000000E+00 0. -1.
         22    1    1    2    0    0 -0.13177452529E+04 -0.82459733437E+03  0.15530022322E+03  0.15622200468E+04  0.00000000000E+00 0. -1.
<mgrwt>
<rscale>  0 0.31657345E+04</rscale>
<asrwt>0</asrwt>
<pdfrwt beam="1">  1        2 0.22332653E+00 0.31657345E+04</pdfrwt>
<pdfrwt beam="2">  1       -2 0.26553511E+00 0.31657345E+04</pdfrwt>
<totfact> 0.58927780E-01</totfact>
</mgrwt>
</event>
<event>
 6    1  0.7620705E-004  0.3195754E+04  0.7818608E-02  0.8189939E-01
          2   -1    0    0  501    0  0.00000000000E+00  0.00000000000E+00  0.16120868299E+04  0.16120868299E+04  0.00000000000E+00 0.  1.
         -2   -1    0    0    0  501 -0.00000000000E+00 -0.00000000000E+00 -0.15837923750E+04  0.15837923750E+04  0.00000000000E+00 0. -1.
         23    2    1    2    0    0  0.44976473138E+03  0.86739392054E+03  0.12768772934E+04  0.16104393190E+04  0.91862129682E+02 0.  0.
         13    1    3    3    0    0  0.23956219912E+03  0.39265918250E+03  0.54599811587E+03  0.71392242112E+03  0.00000000000E+00 0. -1.
        -13    1    3    3    0    0  0.21020253226E+03  0.47473473805E+03  0.73087917756E+03  0.89651689792E+03  0.00000000000E+00 0.  1.
         22    1    1    2    0    0 -0.44976473138E+03 -0.86739392054E+03 -0.12485828385E+04  0.15854398858E+04  0.00000000000E+00 0. -1.
<mgrwt>
<rscale>  0 0.31957540E+04</rscale>
<asrwt>0</asrwt>
<pdfrwt beam="1">  1        2 0.24801336E+00 0.31957540E+04</pdfrwt>
<pdfrwt beam="2">  1       -2 0.24366037E+00 0.31957540E+04</pdfrwt>
<totfact> 0.65032890E-01</totfact>
</mgrwt>
</event>
<event>
 6    1  0.5026615E-004  0.1494106E+04  0.7818608E-02  0.8888382E-01
          2   -1    0    0  501    0  0.00000000000E+00  0.00000000000E+00  0.83368301256E+03  0.83368301256E+03  0.00000000000E+00 0.  1.
         -2   -1    0    0    0  501 -0.00000000000E+00 -0.00000000000E+00 -0.66942535525E+03  0.66942535525E+03  0.00000000000E+00 0. -1.
         23    2    1    2    0    0 -0.45581480725E+03  0.58083363098E+03  0.17610484154E+03  0.76468084858E+03  0.92677071499E+02 0.  0.
         13    1    3    3    0    0 -0.20622161064E+03  0.28640896747E+03  0.39019849914E+02  0.35507745356E+03  0.00000000000E+00 0.  1.
        -13    1    3    3    0    0 -0.24959319661E+03  0.29442466351E+03  0.13708499163E+03  0.40960339502E+03  0.00000000000E+00 0. -1.
         22    1    1    2    0    0  0.45581480725E+03 -0.58083363098E+03 -0.11847184238E+02  0.73842751923E+03  0.00000000000E+00 0. -1.
<mgrwt>
<rscale>  0 0.14941065E+04</rscale>
<asrwt>0</asrwt>
<pdfrwt beam="1">  1        2 0.12825893E+00 0.14941065E+04</pdfrwt>
<pdfrwt beam="2">  1       -2 0.10298852E+00 0.14941065E+04</pdfrwt>
<totfact> 0.24258979E+01</totfact>
</mgrwt>
</event>
<event>
 6    1  0.5026615E-004  0.3076175E+04  0.7818608E-02  0.8222307E-01
          2   -1    0    0  501    0  0.00000000000E+00  0.00000000000E+00  0.14718154362E+04  0.14718154362E+04  0.00000000000E+00 0.  1.
         -2   -1    0    0    0  501 -0.00000000000E+00 -0.00000000000E+00 -0.16073435872E+04  0.16073435872E+04  0.00000000000E+00 0. -1.
         23    2    1    2    0    0 -0.69653220478E+03  0.45640235369E+03 -0.13605589792E+04  0.15978890443E+04  0.93104463534E+02 0.  0.
         13    1    3    3    0    0 -0.10208075450E+03  0.59498465257E+02 -0.13760566126E+03  0.18137217487E+03  0.00000000000E+00 0.  1.
        -13    1    3    3    0    0 -0.59445145028E+03  0.39690388843E+03 -0.12229533180E+04  0.14165168694E+04  0.00000000000E+00 0. -1.
         22    1    1    2    0    0  0.69653220478E+03 -0.45640235369E+03  0.12250308282E+04  0.14812699790E+04  0.00000000000E+00 0.  1.
<mgrwt>
<rscale>  0 0.30761750E+04</rscale>
<asrwt>0</asrwt>
<pdfrwt beam="1">  1        2 0.22643314E+00 0.30761750E+04</pdfrwt>
<pdfrwt beam="2">  1       -2 0.24728363E+00 0.30761750E+04</pdfrwt>
<totfact> 0.74820098E-01</totfact>
</mgrwt>
</event>
<event>
 6    1  0.5026615E-004  0.3479665E+04  0.7818608E-02  0.8118626E-01
          2   -1    0    0  501    0  0.00000000000E+00  0.00000000000E+00  0.16278661993E+04  0.16278661993E+04  0.00000000000E+00 0.  1.
         -2   -1    0    0    0  501 -0.00000000000E+00 -0.00000000000E+00 -0.18595001304E+04  0.18595001304E+04  0.00000000000E+00 0. -1.
         23    2    1    2    0    0  0.12638762221E+04  0.10879692346E+04 -0.60866441997E+03  0.17776259547E+04  0.91768721705E+02 0.  0.
         11    1    3    3    0    0  0.25596758737E+03  0.21867175780E+03 -0.84205331002E+02  0.34702634080E+03  0.00000000000E+00 0.  1.
        -11    1    3    3    0    0  0.10079086347E+04  0.86929747683E+03 -0.52445908897E+03  0.14305996139E+04  0.00000000000E+00 0. -1.
         22    1    1    2    0    0 -0.12638762221E+04 -0.10879692346E+04  0.37703048885E+03  0.17097403750E+04  0.00000000000E+00 0.  1.
<mgrwt>
<rscale>  0 0.34796652E+04</rscale>
<asrwt>0</asrwt>
<pdfrwt beam="1">  1        2 0.25044095E+00 0.34796652E+04</pdfrwt>
<pdfrwt beam="2">  1       -2 0.28607694E+00 0.34796652E+04</pdfrwt>
<totfact> 0.34238039E-01</totfact>
</mgrwt>
</event>
<event>
 6    1  0.5026615E-004  0.1971912E+04  0.7818608E-02  0.8619867E-01
         -3   -1    0    0    0  501 -0.00000000000E+00  0.00000000000E+00  0.55267631713E+03  0.55267631713E+03  0.00000000000E+00 0. -1.
          3   -1    0    0  501    0  0.00000000000E+00 -0.00000000000E+00 -0.17589120204E+04  0.17589120204E+04  0.00000000000E+00 0.  1.
         23    2    1    2    0    0  0.24244037394E+03 -0.61466680978E+03 -0.14590468309E+04  0.16041237885E+04  0.88333753709E+02 0.  0.
         13    1    3    3    0    0  0.82027812138E+02 -0.29712898134E+03 -0.60673877164E+03  0.68054840425E+03  0.00000000000E+00 0.  1.
        -13    1    3    3    0    0  0.16041256180E+03 -0.31753782844E+03 -0.85230805926E+03  0.92357538422E+03  0.00000000000E+00 0. -1.
         22    1    1    2    0    0 -0.24244037394E+03  0.61466680978E+03  0.25281112761E+03  0.70746454908E+03  0.00000000000E+00 0. -1.
<mgrwt>
<rscale>  0 0.19719118E+04</rscale>
<asrwt>0</asrwt>
<pdfrwt beam="1">  1        3 0.27060185E+00 0.19719118E+04</pdfrwt>
<pdfrwt beam="2">  1       -3 0.85027127E-01 0.19719118E+04</pdfrwt>
<totfact> 0.17421782E-01</totfact>
</mgrwt>
</event>
<event>
 6    1  0.6733436E-004  0.2922210E+04  0.7818608E-02  0.8266300E-01
          2   -1    0    0  501    0  0.00000000000E+00  0.00000000000E+00  0.18222925679E+04  0.18222925679E+04  0.00000000000E+00 0.  1.
         -2   -1    0    0    0  501 -0.00000000000E+00 -0.00000000000E+00 -0.11715065620E+04  0.11715065620E+04  0.00000000000E+00 0. -1.
         23    2    1    2    0    0 -0.59783479984E+03 -0.14696102794E+02 -0.10384411319E+04  0.12018418908E+04  0.91877759510E+02 0.  0.
         11    1    3    3    0    0 -0.37934810323E+03  0.71255456188E+01 -0.57330913333E+03  0.68748754111E+03  0.00000000000E+00 0.  1.
        -11    1    3    3    0    0 -0.21848669661E+03 -0.21821648413E+02 -0.46513199861E+03  0.51435434972E+03  0.00000000000E+00 0. -1.
         22    1    1    2    0    0  0.59783479984E+03  0.14696102794E+02  0.16892271379E+04  0.17919572391E+04  0.00000000000E+00 0.  1.
<mgrwt>
<rscale>  0 0.29222099E+04</rscale>
<asrwt>0</asrwt>
<pdfrwt beam="1">  1        2 0.28035270E+00 0.29222099E+04</pdfrwt>
<pdfrwt beam="2">  1       -2 0.18023178E+00 0.29222099E+04</pdfrwt>
<totfact> 0.13054025E+00</totfact>
</mgrwt>
</event>
<event>
 6    1  0.5026615E-004  0.3254793E+04  0.7818608E-02  0.8174495E-01
         -2   -1    0    0    0  501 -0.00000000000E+00  0.00000000000E+00  0.20676580850E+04  0.20676580850E+04  0.00000000000E+00 0. -1.
          2   -1    0    0  501    0  0.00000000000E+00 -0.00000000000E+00 -0.12808786408E+04  0.12808786408E+04  0.00000000000E+00 0.  1.
         23    2    1    2    0    0  0.79021036080E+03 -0.13477630402E+04  0.85767961912E+03  0.17845915664E+04  0.90857597754E+02 0.  0.
         11    1    3    3    0    0  0.31416189681E+03 -0.54110888553E+03  0.39445415200E+03  0.73965573170E+03  0.00000000000E+00 0.  1.
        -11    1    3    3    0    0  0.47604846399E+03 -0.80665415463E+03  0.46322546713E+03  0.10449358347E+04  0.00000000000E+00 0. -1.
         22    1    1    2    0    0 -0.79021036080E+03  0.13477630402E+04 -0.70900174923E+02  0.15639451594E+04  0.00000000000E+00 0.  1.
<mgrwt>
<rscale>  0 0.32547928E+04</rscale>
<asrwt>0</asrwt>
<pdfrwt beam="1">  1        2 0.19705825E+00 0.32547928E+04</pdfrwt>
<pdfrwt beam="2">  1       -2 0.31810124E+00 0.32547928E+04</pdfrwt>
<totfact> 0.34972646E-01</totfact>
</mgrwt>
</event>
<event>
 6    1  0.5026615E-004  0.9348594E+03  0.7818608E-02  0.9383025E-01
         -2   -1    0    0    0  501 -0.00000000000E+00  0.00000000000E+00  0.33442702087E+03  0.33442702087E+03  0.00000000000E+00 0. -1.
          2   -1    0    0  501    0  0.00000000000E+00 -0.00000000000E+00 -0.65332799327E+03  0.65332799327E+03  0.00000000000E+00 0.  1.
         23    2    1    2    0    0 -0.61064316636E+02 -0.17951732801E+03 -0.60686168405E+03  0.64297001842E+03  0.95781100428E+02 0.  0.
         13    1    3    3    0    0 -0.69129407051E+02 -0.75431203018E+02 -0.37464499710E+03  0.38836531148E+03  0.00000000000E+00 0.  1.
        -13    1    3    3    0    0  0.80650904148E+01 -0.10408612500E+03 -0.23221668695E+03  0.25460470695E+03  0.00000000000E+00 0. -1.
         22    1    1    2    0    0  0.61064316636E+02  0.17951732801E+03  0.28796071165E+03  0.34478499572E+03  0.00000000000E+00 0. -1.
<mgrwt>
<rscale>  0 0.93485942E+03</rscale>
<asrwt>0</asrwt>
<pdfrwt beam="1">  1        2 0.10051200E+00 0.93485942E+03</pdfrwt>
<pdfrwt beam="2">  1       -2 0.51450311E-01 0.93485942E+03</pdfrwt>
<totfact> 0.15974537E+02</totfact>
</mgrwt>
</event>
<event>
 6    1  0.5026615E-004  0.7681316E+03  0.7818608E-02  0.9607326E-01
         -2   -1    0    0    0  501 -0.00000000000E+00  0.00000000000E+00  0.76162354999E+02  0.76162354999E+02  0.00000000000E+00 0. -1.
          2   -1    0    0  501    0  0.00000000000E+00 -0.00000000000E+00 -0.19367383078E+04  0.19367383078E+04  0.00000000000E+00 0.  1.
         23    2    1    2    0    0 -0.15020586973E+03 -0.27463910151E+03 -0.15019908090E+04  0.15369051326E+04  0.90069734204E+02 0.  0.
         11    1    3    3    0    0 -0.31379579914E+02 -0.59486608209E+01 -0.14774889853E+03  0.15116150839E+03  0.00000000000E+00 0.  1.
        -11    1    3    3    0    0 -0.11882628982E+03 -0.26869044069E+03 -0.13542419105E+04  0.13857436243E+04  0.00000000000E+00 0. -1.
         22    1    1    2    0    0  0.15020586973E+03  0.27463910151E+03 -0.35858514381E+03  0.47599553017E+03  0.00000000000E+00 0. -1.
<mgrwt>
<rscale>  0 0.76813163E+03</rscale>
<asrwt>0</asrwt>
<pdfrwt beam="1">  1        2 0.29795977E+00 0.76813163E+03</pdfrwt>
<pdfrwt beam="2">  1       -2 0.11717284E-01 0.76813163E+03</pdfrwt>
<totfact> 0.39145596E+02</totfact>
</mgrwt>
</event>
<event>
 6    1  0.5026615E-004  0.3615577E+04  0.7818608E-02  0.8086933E-01
         -4   -1    0    0    0  501 -0.00000000000E+00  0.00000000000E+00  0.31087675145E+04  0.31087675145E+04  0.00000000000E+00 0.  1.
          4   -1    0    0  501    0  0.00000000000E+00 -0.00000000000E+00 -0.10512524230E+04  0.10512524230E+04  0.00000000000E+00 0. -1.
         23    2    1    2    0    0  0.42250272924E+03  0.16592067900E+03  0.30414687717E+04  0.30764134255E+04  0.88028675348E+02 0.  0.
         13    1    3    3    0    0  0.13353332113E+03  0.37111131809E+02  0.69235659570E+03  0.70609209000E+03  0.00000000000E+00 0.  1.
        -13    1    3    3    0    0  0.28896940811E+03  0.12880954719E+03  0.23491121760E+04  0.23703213355E+04  0.00000000000E+00 0. -1.
         22    1    1    2    0    0 -0.42250272924E+03 -0.16592067900E+03 -0.98395368024E+03  0.10836065120E+04  0.00000000000E+00 0. -1.
<mgrwt>
<rscale>  0 0.36155771E+04</rscale>
<asrwt>0</asrwt>
<pdfrwt beam="1">  1        4 0.16173114E+00 0.36155771E+04</pdfrwt>
<pdfrwt beam="2">  1       -4 0.47827192E+00 0.36155771E+04</pdfrwt>
<totfact> 0.69821365E-04</totfact>
</mgrwt>
</event>
<event>
 6    1  0.5026615E-004  0.1703889E+04  0.7818608E-02  0.8759149E-01
          2   -1    0    0  501    0  0.00000000000E+00  0.00000000000E+00  0.12323229022E+04  0.12323229022E+04  0.00000000000E+00 0.  1.
         -2   -1    0    0    0  501 -0.00000000000E+00 -0.00000000000E+00 -0.58897668133E+03  0.58897668133E+03  0.00000000000E+00 0. -1.
         23    2    1    2    0    0 -0.63430921803E+03  0.55892175159E+03  0.41136152367E+03  0.94462483873E+03  0.91411565509E+02 0.  0.
         13    1    3    3    0    0 -0.31947008576E+03  0.31043844587E+03  0.17176604027E+03  0.47742720593E+03  0.00000000000E+00 0. -1.
        -13    1    3    3    0    0 -0.31483913227E+03  0.24848330572E+03  0.23959548340E+03  0.46719763280E+03  0.00000000000E+00 0.  1.
         22    1    1    2    0    0  0.63430921803E+03 -0.55892175159E+03  0.23198469724E+03  0.87667474483E+03  0.00000000000E+00 0. -1.
<mgrwt>
<rscale>  0 0.17038890E+04</rscale>
<asrwt>0</asrwt>
<pdfrwt beam="1">  1        2 0.18958814E+00 0.17038890E+04</pdfrwt>
<pdfrwt beam="2">  1       -2 0.90611798E-01 0.17038890E+04</pdfrwt>
<totfact> 0.17934834E+01</totfact>
</mgrwt>
</event>
<event>
 6    1  0.5026615E-004  0.4969563E+03  0.7818608E-02  0.1014576E+00
         -2   -1    0    0    0  501 -0.00000000000E+00  0.00000000000E+00  0.27514929167E+03  0.27514929167E+03  0.00000000000E+00 0. -1.
          2   -1    0    0  501    0  0.00000000000E+00 -0.00000000000E+00 -0.22439230873E+03  0.22439230873E+03  0.00000000000E+00 0.  1.
         23    2    1    2    0    0 -0.20675715537E+03 -0.11392896520E+03 -0.15197099475E+02  0.25443290738E+03  0.93684695213E+02 0.  0.
         13    1    3    3    0    0 -0.10168306773E+03 -0.10326900290E+03  0.11850478783E+02  0.14541102802E+03  0.00000000000E+00 0. -1.
        -13    1    3    3    0    0 -0.10507408763E+03 -0.10659962301E+02 -0.27047578258E+02  0.10902187935E+03  0.00000000000E+00 0.  1.
         22    1    1    2    0    0  0.20675715537E+03  0.11392896520E+03  0.65954082416E+02  0.24510869302E+03  0.00000000000E+00 0.  1.
<mgrwt>
<rscale>  0 0.49695627E+03</rscale>
<asrwt>0</asrwt>
<pdfrwt beam="1">  1        2 0.34521894E-01 0.49695627E+03</pdfrwt>
<pdfrwt beam="2">  1       -2 0.42330660E-01 0.49695627E+03</pdfrwt>
<totfact> 0.80667066E+02</totfact>
</mgrwt>
</event>
<event>
 6    1  0.5026615E-004  0.5741409E+03  0.7818608E-02  0.9960557E-01
          2   -1    0    0  501    0  0.00000000000E+00  0.00000000000E+00  0.37896453725E+03  0.37896453725E+03  0.00000000000E+00 0.  1.
         -2   -1    0    0    0  501 -0.00000000000E+00 -0.00000000000E+00 -0.21745951687E+03  0.21745951687E+03  0.00000000000E+00 0. -1.
         23    2    1    2    0    0 -0.83514094090E+02  0.26527496591E+03  0.10336939726E+03  0.31230231591E+03  0.97478678621E+02 0.  0.
         11    1    3    3    0    0 -0.18634822252E+02  0.12362379380E+03 -0.55214525295E+00  0.12502161357E+03  0.00000000000E+00 0. -1.
        -11    1    3    3    0    0 -0.64879271838E+02  0.14165117211E+03  0.10392154251E+03  0.18728070235E+03  0.00000000000E+00 0.  1.
         22    1    1    2    0    0  0.83514094090E+02 -0.26527496591E+03  0.58135623119E+02  0.28412173821E+03  0.00000000000E+00 0. -1.
<mgrwt>
<rscale>  0 0.57414091E+03</rscale>
<asrwt>0</asrwt>
<pdfrwt beam="1">  1        2 0.58302236E-01 0.57414091E+03</pdfrwt>
<pdfrwt beam="2">  1       -2 0.33455310E-01 0.57414091E+03</pdfrwt>
<totfact> 0.70955796E+02</totfact>
</mgrwt>
</event>
<event>
 6    1  0.5026615E-004  0.9633556E+03  0.7818608E-02  0.9349675E-01
          2   -1    0    0  501    0  0.00000000000E+00  0.00000000000E+00  0.26874466453E+04  0.26874466453E+04  0.00000000000E+00 0.  1.
         -2   -1    0    0    0  501 -0.00000000000E+00 -0.00000000000E+00 -0.86332323605E+02  0.86332323605E+02  0.00000000000E+00 0. -1.
         23    2    1    2    0    0  0.37133573526E+03 -0.78601909200E+01  0.44848994751E+03  0.58934684425E+03  0.90743919517E+02 0.  0.
         13    1    3    3    0    0  0.22637054820E+03  0.33840178974E+02  0.30337637041E+03  0.38003421547E+03  0.00000000000E+00 0. -1.
        -13    1    3    3    0    0  0.14496518706E+03 -0.41700369894E+02  0.14511357710E+03  0.20931262878E+03  0.00000000000E+00 0.  1.
         22    1    1    2    0    0 -0.37133573526E+03  0.78601909200E+01  0.21526243742E+04  0.21844321246E+04  0.00000000000E+00 0.  1.
<mgrwt>
<rscale>  0 0.96335562E+03</rscale>
<asrwt>0</asrwt>
<pdfrwt beam="1">  1        2 0.41345326E+00 0.96335562E+03</pdfrwt>
<pdfrwt beam="2">  1       -2 0.13281898E-01 0.96335562E+03</pdfrwt>
<totfact> 0.11861626E+02</totfact>
</mgrwt>
</event>
<event>
 6    1  0.5026615E-004  0.4757290E+03  0.7818608E-02  0.1020316E+00
          2   -1    0    0  501    0  0.00000000000E+00  0.00000000000E+00  0.14389816667E+04  0.14389816667E+04  0.00000000000E+00 0.  1.
         -2   -1    0    0    0  501 -0.00000000000E+00 -0.00000000000E+00 -0.39319136451E+02  0.39319136451E+02  0.00000000000E+00 0. -1.
         23    2    1    2    0    0  0.41779456159E+02  0.19330577883E+03  0.36662298517E+03  0.42650075143E+03  0.91530490204E+02 0.  0.
         11    1    3    3    0    0 -0.78921356147E+00  0.90625486824E+02  0.24750550936E+03  0.26357651429E+03  0.00000000000E+00 0.  1.
        -11    1    3    3    0    0  0.42568669721E+02  0.10268029200E+03  0.11911747581E+03  0.16292423715E+03  0.00000000000E+00 0. -1.
         22    1    1    2    0    0 -0.41779456159E+02 -0.19330577883E+03  0.10330395451E+04  0.10518000517E+04  0.00000000000E+00 0.  1.
<mgrwt>
<rscale>  0 0.47572898E+03</rscale>
<asrwt>0</asrwt>
<pdfrwt beam="1">  1        2 0.22138175E+00 0.47572898E+03</pdfrwt>
<pdfrwt beam="2">  1       -2 0.60490990E-02 0.47572898E+03</pdfrwt>
<totfact> 0.21431000E+03</totfact>
</mgrwt>
</event>
<event>
 6    1  0.5026615E-004  0.2810923E+04  0.7818608E-02  0.8299885E-01
         -2   -1    0    0    0  501 -0.00000000000E+00  0.00000000000E+00  0.15874891881E+04  0.15874891881E+04  0.00000000000E+00 0. -1.
          2   -1    0    0  501    0  0.00000000000E+00 -0.00000000000E+00 -0.12443059201E+04  0.12443059201E+04  0.00000000000E+00 0.  1.
         23    2    1    2    0    0 -0.48919982643E+03 -0.80064539501E+03  0.12239481336E+04  0.15449010693E+04  0.91218209100E+02 0.  0.
         13    1    3    3    0    0 -0.27015378720E+03 -0.35820410743E+03  0.60347403368E+03  0.75198015974E+03  0.00000000000E+00 0. -1.
        -13    1    3    3    0    0 -0.21904603923E+03 -0.44244128758E+03  0.62047409990E+03  0.79292090961E+03  0.00000000000E+00 0.  1.
         22    1    1    2    0    0  0.48919982643E+03  0.80064539501E+03 -0.88076486563E+03  0.12868940389E+04  0.00000000000E+00 0.  1.
<mgrwt>
<rscale>  0 0.28109231E+04</rscale>
<asrwt>0</asrwt>
<pdfrwt beam="1">  1        2 0.19143168E+00 0.28109231E+04</pdfrwt>
<pdfrwt beam="2">  1       -2 0.24422911E+00 0.28109231E+04</pdfrwt>
<totfact> 0.10808513E+00</totfact>
</mgrwt>
</event>
<event>
 6    1  0.5026615E-004  0.3130939E+04  0.7818608E-02  0.8207298E-01
          2   -1    0    0  501    0  0.00000000000E+00  0.00000000000E+00  0.18871010049E+04  0.18871010049E+04  0.00000000000E+00 0.  1.
         -2   -1    0    0    0  501 -0.00000000000E+00 -0.00000000000E+00 -0.12986558662E+04  0.12986558662E+04  0.00000000000E+00 0. -1.
         23    2    1    2    0    0  0.84404625514E+03 -0.11476242697E+04  0.95159641353E+03  0.17156091256E+04  0.91232628130E+02 0.  0.
         11    1    3    3    0    0  0.18845174430E+03 -0.32378699232E+03  0.24651686283E+03  0.44846698873E+03  0.00000000000E+00 0. -1.
        -11    1    3    3    0    0  0.65559451084E+03 -0.82383727734E+03  0.70507955070E+03  0.12671421369E+04  0.00000000000E+00 0.  1.
         22    1    1    2    0    0 -0.84404625514E+03  0.11476242697E+04 -0.36315127481E+03  0.14701477455E+04  0.00000000000E+00 0. -1.
<mgrwt>
<rscale>  0 0.31309390E+04</rscale>
<asrwt>0</asrwt>
<pdfrwt beam="1">  1        2 0.29032323E+00 0.31309390E+04</pdfrwt>
<pdfrwt beam="2">  1       -2 0.19979321E+00 0.31309390E+04</pdfrwt>
<totfact> 0.87229916E-01</totfact>
</mgrwt>
</event>
<event>
 6    1  0.5026615E-004  0.1304056E+04  0.7818608E-02  0.9026355E-01
         -2   -1    0    0    0  501 -0.00000000000E+00  0.00000000000E+00  0.26572240489E+03  0.26572240489E+03  0.00000000000E+00 0. -1.
          2   -1    0    0  501    0  0.00000000000E+00 -0.00000000000E+00 -0.15999428223E+04  0.15999428223E+04  0.00000000000E+00 0.  1.
         23    2    1    2    0    0 -0.26429882858E+03 -0.44845822357E+03 -0.12246098002E+04  0.13337036342E+04  0.90153047141E+02 0.  0.
         11    1    3    3    0    0 -0.17134953550E+03 -0.20801156809E+03 -0.58464835403E+03  0.64377261020E+03  0.00000000000E+00 0.  1.
        -11    1    3    3    0    0 -0.92949293082E+02 -0.24044665548E+03 -0.63996144621E+03  0.68993102398E+03  0.00000000000E+00 0. -1.
         22    1    1    2    0    0  0.26429882858E+03  0.44845822357E+03 -0.10961061721E+03  0.53196159305E+03  0.00000000000E+00 0. -1.
<mgrwt>
<rscale>  0 0.13040562E+04</rscale>
<asrwt>0</asrwt>
<pdfrwt beam="1">  1        2 0.24614505E+00 0.13040562E+04</pdfrwt>
<pdfrwt beam="2">  1       -2 0.40880370E-01 0.13040562E+04</pdfrwt>
<totfact> 0.61909695E+01</totfact>
</mgrwt>
</event>
<event>
 6    1  0.5026615E-004  0.1168415E+04  0.7818608E-02  0.9140961E-01
          2   -1    0    0  501    0  0.00000000000E+00  0.00000000000E+00  0.20740556304E+04  0.20740556304E+04  0.00000000000E+00 0.  1.
         -2   -1    0    0    0  501 -0.00000000000E+00 -0.00000000000E+00 -0.16455597637E+03  0.16455597637E+03  0.00000000000E+00 0. -1.
         23    2    1    2    0    0  0.14378038779E+03 -0.36822126684E+03  0.17755547409E+04  0.18212377443E+04  0.89736181965E+02 0.  0.
         11    1    3    3    0    0  0.12145826592E+03 -0.29452053314E+03  0.12445685826E+04  0.12846966224E+04  0.00000000000E+00 0.  1.
        -11    1    3    3    0    0  0.22322121867E+02 -0.73700733701E+02  0.53098615829E+03  0.53654112197E+03  0.00000000000E+00 0. -1.
         22    1    1    2    0    0 -0.14378038779E+03  0.36822126684E+03  0.13394491316E+03  0.41737386242E+03  0.00000000000E+00 0. -1.
<mgrwt>
<rscale>  0 0.11684147E+04</rscale>
<asrwt>0</asrwt>
<pdfrwt beam="1">  1        2 0.31908546E+00 0.11684147E+04</pdfrwt>
<pdfrwt beam="2">  1       -2 0.25316306E-01 0.11684147E+04</pdfrwt>
<totfact> 0.84412096E+01</totfact>
</mgrwt>
</event>
<event>
 6    1  0.5026615E-004  0.1327868E+04  0.7818608E-02  0.9007753E-01
         -2   -1    0    0    0  501 -0.00000000000E+00  0.00000000000E+00  0.55779031659E+03  0.55779031659E+03  0.00000000000E+00 0. -1.
          2   -1    0    0  501    0  0.00000000000E+00 -0.00000000000E+00 -0.79027565997E+03  0.79027565997E+03  0.00000000000E+00 0.  1.
         23    2    1    2    0    0 -0.64937681259E+03  0.32315523467E+02 -0.23800268537E+03  0.69786217863E+03  0.87360198807E+02 0.  0.
         11    1    3    3    0    0 -0.60015962952E+03  0.28480827589E+02 -0.24327073867E+03  0.64821554343E+03  0.00000000000E+00 0.  1.
        -11    1    3    3    0    0 -0.49217183066E+02  0.38346958783E+01  0.52680532989E+01  0.49646635204E+02  0.00000000000E+00 0. -1.
         22    1    1    2    0    0  0.64937681259E+03 -0.32315523467E+02  0.55173419929E+01  0.65020379793E+03  0.00000000000E+00 0.  1.
<mgrwt>
<rscale>  0 0.13278676E+04</rscale>
<asrwt>0</asrwt>
<pdfrwt beam="1">  1        2 0.12158087E+00 0.13278676E+04</pdfrwt>
<pdfrwt beam="2">  1       -2 0.85813895E-01 0.13278676E+04</pdfrwt>
<totfact> 0.40396950E+01</totfact>
</mgrwt>
</event>
<event>
 6    1  0.5026615E-004  0.2234748E+04  0.7818608E-02  0.8504103E-01
         -2   -1    0    0    0  501 -0.00000000000E+00  0.00000000000E+00  0.70769157615E+03  0.70769157615E+03  0.00000000000E+00 0. -1.
          2   -1    0    0  501    0  0.00000000000E+00 -0.00000000000E+00 -0.17642216490E+04  0.17642216490E+04  0.00000000000E+00 0.  1.
         23    2    1    2    0    0  0.68521773289E+03 -0.42615006838E+03 -0.13810548267E+04  0.16021755992E+04  0.92341724466E+02 0.  0.
         11    1    3    3    0    0  0.20132679795E+03 -0.79215210164E+02 -0.34538035463E+03  0.40754768857E+03  0.00000000000E+00 0. -1.
        -11    1    3    3    0    0  0.48389093493E+03 -0.34693485821E+03 -0.10356744720E+04  0.11946279106E+04  0.00000000000E+00 0.  1.
         22    1    1    2    0    0 -0.68521773289E+03  0.42615006838E+03  0.32452475379E+03  0.86973762599E+03  0.00000000000E+00 0. -1.
<mgrwt>
<rscale>  0 0.22347481E+04</rscale>
<asrwt>0</asrwt>
<pdfrwt beam="1">  1        2 0.27141872E+00 0.22347481E+04</pdfrwt>
<pdfrwt beam="2">  1       -2 0.10887563E+00 0.22347481E+04</pdfrwt>
<totfact> 0.55456895E+00</totfact>
</mgrwt>
</event>
<event>
 6    1  0.5026615E-004  0.4205487E+04  0.7818608E-02  0.7964329E-01
          2   -1    0    0  501    0  0.00000000000E+00  0.00000000000E+00  0.29927615747E+04  0.29927615747E+04  0.00000000000E+00 0.  1.
         -2   -1    0    0    0  501 -0.00000000000E+00 -0.00000000000E+00 -0.14774082536E+04  0.14774082536E+04  0.00000000000E+00 0. -1.
         23    2    1    2    0    0 -0.94161419328E+03 -0.11854966922E+04 -0.79143571503E+03  0.17109461415E+04  0.94480218857E+02 0.  0.
         13    1    3    3    0    0 -0.45719937525E+03 -0.64614102995E+03 -0.39343869168E+03  0.88392505532E+03  0.00000000000E+00 0. -1.
        -13    1    3    3    0    0 -0.48441481803E+03 -0.53935566228E+03 -0.39799702335E+03  0.82702108616E+03  0.00000000000E+00 0.  1.
         22    1    1    2    0    0  0.94161419328E+03  0.11854966922E+04  0.23067890362E+04  0.27592236868E+04  0.00000000000E+00 0.  1.
<mgrwt>
<rscale>  0 0.42054872E+04</rscale>
<asrwt>0</asrwt>
<pdfrwt beam="1">  1        2 0.46042486E+00 0.42054872E+04</pdfrwt>
<pdfrwt beam="2">  1       -2 0.22729358E+00 0.42054872E+04</pdfrwt>
<totfact> 0.12130468E-01</totfact>
</mgrwt>
</event>
<event>
 6    1  0.5026615E-004  0.3205676E+04  0.7818608E-02  0.8187320E-01
         -2   -1    0    0    0  501 -0.00000000000E+00  0.00000000000E+00  0.78228453869E+03  0.78228453869E+03  0.00000000000E+00 0. -1.
          2   -1    0    0  501    0  0.00000000000E+00 -0.00000000000E+00 -0.32840866848E+04  0.32840866848E+04  0.00000000000E+00 0.  1.
         23    2    1    2    0    0  0.66051388965E+03  0.11758584899E+04 -0.23474978840E+04  0.27088987221E+04  0.92001004256E+02 0.  0.
         13    1    3    3    0    0  0.58056933960E+03  0.10358231786E+04 -0.20027364432E+04  0.23282920084E+04  0.00000000000E+00 0.  1.
        -13    1    3    3    0    0  0.79944550053E+02  0.14003531126E+03 -0.34476144082E+03  0.38060671376E+03  0.00000000000E+00 0. -1.
         22    1    1    2    0    0 -0.66051388965E+03 -0.11758584899E+04 -0.15430426208E+03  0.13574725013E+04  0.00000000000E+00 0. -1.
<mgrwt>
<rscale>  0 0.32056764E+04</rscale>
<asrwt>0</asrwt>
<pdfrwt beam="1">  1        2 0.50524411E+00 0.32056764E+04</pdfrwt>
<pdfrwt beam="2">  1       -2 0.12035147E+00 0.32056764E+04</pdfrwt>
<totfact> 0.50589122E-01</totfact>
</mgrwt>
</event>
<event>
 6    1  0.5026615E-004  0.1595037E+04  0.7818608E-02  0.8823603E-01
          2   -1    0    0  501    0  0.00000000000E+00  0.00000000000E+00  0.85441094975E+03  0.85441094975E+03  0.00000000000E+00 0.  1.
         -2   -1    0    0    0  501 -0.00000000000E+00 -0.00000000000E+00 -0.74441448740E+03  0.74441448740E+03  0.00000000000E+00 0. -1.
         23    2    1    2    0    0 -0.42098479230E+03 -0.48849144588E+03 -0.41082545036E+03  0.76990592791E+03  0.90141550478E+02 0.  0.
         13    1    3    3    0    0 -0.46610431171E+02 -0.18239498136E+02 -0.32530912295E+02  0.59694822564E+02  0.00000000000E+00 0. -1.
        -13    1    3    3    0    0 -0.37437436113E+03 -0.47025194774E+03 -0.37829453807E+03  0.71021110534E+03  0.00000000000E+00 0.  1.
         22    1    1    2    0    0  0.42098479230E+03  0.48849144588E+03  0.52082191272E+03  0.82891950925E+03  0.00000000000E+00 0.  1.
<mgrwt>
<rscale>  0 0.15950372E+04</rscale>
<asrwt>0</asrwt>
<pdfrwt beam="1">  1        2 0.13144784E+00 0.15950372E+04</pdfrwt>
<pdfrwt beam="2">  1       -2 0.11452531E+00 0.15950372E+04</pdfrwt>
<totfact> 0.18007962E+01</totfact>
</mgrwt>
</event>
<event>
 6    1  0.5026615E-004  0.4015152E+04  0.7818608E-02  0.8001497E-01
          1   -1    0    0  501    0  0.00000000000E+00  0.00000000000E+00  0.24840540867E+04  0.24840540867E+04  0.00000000000E+00 0.  1.
         -1   -1    0    0    0  501 -0.00000000000E+00 -0.00000000000E+00 -0.16224935861E+04  0.16224935861E+04  0.00000000000E+00 0. -1.
         23    2    1    2    0    0 -0.16574719269E+04 -0.22205530992E+03  0.15652241917E+04  0.22922532262E+04  0.89310322520E+02 0.  0.
         13    1    3    3    0    0 -0.14653711530E+04 -0.16863039126E+03  0.13909853634E+04  0.20274587803E+04  0.00000000000E+00 0. -1.
        -13    1    3    3    0    0 -0.19210077388E+03 -0.53424918666E+02  0.17423882835E+03  0.26479444587E+03  0.00000000000E+00 0.  1.
         22    1    1    2    0    0  0.16574719269E+04  0.22205530992E+03 -0.70366369106E+03  0.18142944466E+04  0.00000000000E+00 0. -1.
<mgrwt>
<rscale>  0 0.40151522E+04</rscale>
<asrwt>0</asrwt>
<pdfrwt beam="1">  1        1 0.38216217E+00 0.40151522E+04</pdfrwt>
<pdfrwt beam="2">  1       -1 0.24961440E+00 0.40151522E+04</pdfrwt>
<totfact> 0.76178284E-02</totfact>
</mgrwt>
</event>
<event>
 6    1  0.5026615E-004  0.1635433E+04  0.7818608E-02  0.8799071E-01
          2   -1    0    0  501    0  0.00000000000E+00  0.00000000000E+00  0.16605006200E+04  0.16605006200E+04  0.00000000000E+00 0.  1.
         -2   -1    0    0    0  501 -0.00000000000E+00 -0.00000000000E+00 -0.40268572471E+03  0.40268572471E+03  0.00000000000E+00 0. -1.
         23    2    1    2    0    0 -0.35587801893E+03  0.55997483394E+03  0.12284813446E+04  0.13990467237E+04  0.89131037682E+02 0.  0.
         13    1    3    3    0    0 -0.84650732750E+02  0.17086530444E+03  0.42872698070E+03  0.46922012190E+03  0.00000000000E+00 0. -1.
        -13    1    3    3    0    0 -0.27122728618E+03  0.38910952950E+03  0.79975436395E+03  0.92982660177E+03  0.00000000000E+00 0.  1.
         22    1    1    2    0    0  0.35587801893E+03 -0.55997483394E+03  0.29333550617E+02  0.66413962101E+03  0.00000000000E+00 0. -1.
<mgrwt>
<rscale>  0 0.16354325E+04</rscale>
<asrwt>0</asrwt>
<pdfrwt beam="1">  1        2 0.25546163E+00 0.16354325E+04</pdfrwt>
<pdfrwt beam="2">  1       -2 0.61951651E-01 0.16354325E+04</pdfrwt>
<totfact> 0.23870387E+01</totfact>
</mgrwt>
</event>
<event>
 6    1  0.5026615E-004  0.4112380E+04  0.7818608E-02  0.7982252E-01
         -2   -1    0    0    0  501 -0.00000000000E+00  0.00000000000E+00  0.13590330438E+04  0.13590330438E+04  0.00000000000E+00 0. -1.
          2   -1    0    0  501    0  0.00000000000E+00 -0.00000000000E+00 -0.31109745420E+04  0.31109745420E+04  0.00000000000E+00 0.  1.
         23    2    1    2    0    0  0.18122553119E+04 -0.76049063857E+03 -0.22326789202E+03  0.19801364403E+04  0.92067603296E+02 0.  0.
         13    1    3    3    0    0  0.71270865473E+03 -0.28778077882E+03 -0.43375601608E+02  0.76983949366E+03  0.00000000000E+00 0. -1.
        -13    1    3    3    0    0  0.10995466572E+04 -0.47270985975E+03 -0.17989229041E+03  0.12102969466E+04  0.00000000000E+00 0.  1.
         22    1    1    2    0    0 -0.18122553119E+04  0.76049063857E+03 -0.15286736062E+04  0.24898711455E+04  0.00000000000E+00 0.  1.
<mgrwt>
<rscale>  0 0.41123799E+04</rscale>
<asrwt>0</asrwt>
<pdfrwt beam="1">  1        2 0.47861146E+00 0.41123799E+04</pdfrwt>
<pdfrwt beam="2">  1       -2 0.20908201E+00 0.41123799E+04</pdfrwt>
<totfact> 0.13426114E-01</totfact>
</mgrwt>
</event>
<event>
 6    1  0.5026615E-004  0.1159885E+04  0.7818608E-02  0.9148713E-01
         -2   -1    0    0    0  501 -0.00000000000E+00  0.00000000000E+00  0.38885037011E+03  0.38885037011E+03  0.00000000000E+00 0. -1.
          2   -1    0    0  501    0  0.00000000000E+00 -0.00000000000E+00 -0.86494201723E+03  0.86494201723E+03  0.00000000000E+00 0.  1.
         23    2    1    2    0    0  0.23662698987E+02  0.49547575014E+03  0.77306400468E+02  0.51061976852E+03  0.93274466787E+02 0.  0.
         13    1    3    3    0    0  0.22388949557E+02  0.47126420119E+03  0.50523922016E+02  0.47449328665E+03  0.00000000000E+00 0. -1.
        -13    1    3    3    0    0  0.12737494304E+01  0.24211548951E+02  0.26782478453E+02  0.36126481870E+02  0.00000000000E+00 0.  1.
         22    1    1    2    0    0 -0.23662698987E+02 -0.49547575014E+03 -0.55339804758E+03  0.74317261882E+03  0.00000000000E+00 0.  1.
<mgrwt>
<rscale>  0 0.11598845E+04</rscale>
<asrwt>0</asrwt>
<pdfrwt beam="1">  1        2 0.13306800E+00 0.11598845E+04</pdfrwt>
<pdfrwt beam="2">  1       -2 0.59823135E-01 0.11598845E+04</pdfrwt>
<totfact> 0.79913613E+01</totfact>
</mgrwt>
</event>
<event>
 6    1  0.5026615E-004  0.2516102E+04  0.7818608E-02  0.8397271E-01
          2   -1    0    0  501    0  0.00000000000E+00  0.00000000000E+00  0.15483759836E+04  0.15483759836E+04  0.00000000000E+00 0.  1.
         -2   -1    0    0    0  501 -0.00000000000E+00 -0.00000000000E+00 -0.10221629197E+04  0.10221629197E+04  0.00000000000E+00 0. -1.
         23    2    1    2    0    0  0.18164186172E+03 -0.12291712381E+04  0.45399190538E+03  0.13259218560E+04  0.90024549734E+02 0.  0.
         11    1    3    3    0    0  0.10559023927E+03 -0.47602390196E+03  0.14949151151E+03  0.50999584889E+03  0.00000000000E+00 0.  1.
        -11    1    3    3    0    0  0.76051622442E+02 -0.75314733616E+03  0.30450039387E+03  0.81592600713E+03  0.00000000000E+00 0. -1.
         22    1    1    2    0    0 -0.18164186172E+03  0.12291712381E+04  0.72221158579E+02  0.12446170473E+04  0.00000000000E+00 0. -1.
<mgrwt>
<rscale>  0 0.25161022E+04</rscale>
<asrwt>0</asrwt>
<pdfrwt beam="1">  1        2 0.23821169E+00 0.25161022E+04</pdfrwt>
<pdfrwt beam="2">  1       -2 0.15725583E+00 0.25161022E+04</pdfrwt>
<totfact> 0.28038289E+00</totfact>
</mgrwt>
</event>
<event>
 6    1  0.5026615E-004  0.4799420E+04  0.7818608E-02  0.7860216E-01
         -2   -1    0    0    0  501 -0.00000000000E+00  0.00000000000E+00  0.19503985885E+04  0.19503985885E+04  0.00000000000E+00 0. -1.
          2   -1    0    0  501    0  0.00000000000E+00 -0.00000000000E+00 -0.29525284033E+04  0.29525284033E+04  0.00000000000E+00 0.  1.
         23    2    1    2    0    0 -0.49407220947E+02  0.52802529110E+03  0.18886674552E+04  0.19638862235E+04  0.92371863836E+02 0.  0.
         13    1    3    3    0    0  0.13946304679E+02  0.11930781729E+03  0.54125769102E+03  0.55442649898E+03  0.00000000000E+00 0.  1.
        -13    1    3    3    0    0 -0.63353525626E+02  0.40871747380E+03  0.13474097641E+04  0.14094597245E+04  0.00000000000E+00 0. -1.
         22    1    1    2    0    0  0.49407220947E+02 -0.52802529110E+03 -0.28907972700E+04  0.29390407683E+04  0.00000000000E+00 0.  1.
<mgrwt>
<rscale>  0 0.47994196E+04</rscale>
<asrwt>0</asrwt>
<pdfrwt beam="1">  1        2 0.45423514E+00 0.47994196E+04</pdfrwt>
<pdfrwt beam="2">  1       -2 0.30006132E+00 0.47994196E+04</pdfrwt>
<totfact> 0.43770968E-02</totfact>
</mgrwt>
</event>
<event>
 6    1  0.5026615E-004  0.1492978E+04  0.7818608E-02  0.8889136E-01
          2   -1    0    0  501    0  0.00000000000E+00  0.00000000000E+00  0.14110748010E+04  0.14110748010E+04  0.00000000000E+00 0.  1.
         -2   -1    0    0    0  501 -0.00000000000E+00 -0.00000000000E+00 -0.39490860294E+03  0.39490860294E+03  0.00000000000E+00 0. -1.
         23    2    1    2    0    0 -0.52450083892E+03  0.49277892554E+03  0.28323648987E+03  0.77879395858E+03  0.91459943386E+02 0.  0.
         13    1    3    3    0    0 -0.11802351901E+03  0.87891712929E+02  0.94234388041E+02  0.17474159245E+03  0.00000000000E+00 0. -1.
        -13    1    3    3    0    0 -0.40647731991E+03  0.40488721261E+03  0.18900210182E+03  0.60405236613E+03  0.00000000000E+00 0.  1.
         22    1    1    2    0    0  0.52450083892E+03 -0.49277892554E+03  0.73292970814E+03  0.10271894453E+04  0.00000000000E+00 0.  1.
<mgrwt>
<rscale>  0 0.14929777E+04</rscale>
<asrwt>0</asrwt>
<pdfrwt beam="1">  1        2 0.21708843E+00 0.14929777E+04</pdfrwt>
<pdfrwt beam="2">  1       -2 0.60755170E-01 0.14929777E+04</pdfrwt>
<totfact> 0.34767083E+01</totfact>
</mgrwt>
</event>
<event>
 6    1  0.5026615E-004  0.1029068E+04  0.7818608E-02  0.9277226E-01
         -2   -1    0    0    0  501 -0.00000000000E+00  0.00000000000E+00  0.22391636565E+03  0.22391636565E+03  0.00000000000E+00 0. -1.
          2   -1    0    0  501    0  0.00000000000E+00 -0.00000000000E+00 -0.11823400606E+04  0.11823400606E+04  0.00000000000E+00 0.  1.
         23    2    1    2    0    0 -0.20523992571E+03 -0.43733217685E+03 -0.70837371756E+03  0.86228229891E+03  0.91403387595E+02 0.  0.
         13    1    3    3    0    0 -0.11731774487E+03 -0.29581574567E+03 -0.39375858835E+03  0.50627683588E+03  0.00000000000E+00 0. -1.
        -13    1    3    3    0    0 -0.87922180843E+02 -0.14151643118E+03 -0.31461512921E+03  0.35600546303E+03  0.00000000000E+00 0.  1.
         22    1    1    2    0    0  0.20523992571E+03  0.43733217685E+03 -0.25004997739E+03  0.54397412733E+03  0.00000000000E+00 0.  1.
<mgrwt>
<rscale>  0 0.10290681E+04</rscale>
<asrwt>0</asrwt>
<pdfrwt beam="1">  1        2 0.18189847E+00 0.10290681E+04</pdfrwt>
<pdfrwt beam="2">  1       -2 0.34448672E-01 0.10290681E+04</pdfrwt>
<totfact> 0.15260293E+02</totfact>
</mgrwt>
</event>
<event>
 6    1  0.5026615E-004  0.8908356E+03  0.7818608E-02  0.9437110E-01
         -2   -1    0    0    0  501 -0.00000000000E+00  0.00000000000E+00  0.51020717274E+03  0.51020717274E+03  0.00000000000E+00 0. -1.
          2   -1    0    0  501    0  0.00000000000E+00 -0.00000000000E+00 -0.38885578557E+03  0.38885578557E+03  0.00000000000E+00 0.  1.
         23    2    1    2    0    0  0.29976023871E+03  0.32212017500E+03  0.86731062902E+02  0.45768310523E+03  0.91290413948E+02 0.  0.
         11    1    3    3    0    0  0.24232924244E+03  0.20271128079E+03  0.47434782771E+02  0.31947673424E+03  0.00000000000E+00 0.  1.
        -11    1    3    3    0    0  0.57430996272E+02  0.11940889421E+03  0.39296280131E+02  0.13820637099E+03  0.00000000000E+00 0. -1.
         22    1    1    2    0    0 -0.29976023871E+03 -0.32212017500E+03  0.34620324274E+02  0.44137985309E+03  0.00000000000E+00 0.  1.
<mgrwt>
<rscale>  0 0.89083559E+03</rscale>
<asrwt>0</asrwt>
<pdfrwt beam="1">  1        2 0.59823967E-01 0.89083559E+03</pdfrwt>
<pdfrwt beam="2">  1       -2 0.78493411E-01 0.89083559E+03</pdfrwt>
<totfact> 0.11894937E+02</totfact>
</mgrwt>
</event>
<event>
 6    1  0.5026615E-004  0.2548016E+04  0.7818608E-02  0.8386076E-01
         -2   -1    0    0    0  501 -0.00000000000E+00  0.00000000000E+00  0.59004291551E+03  0.59004291551E+03  0.00000000000E+00 0. -1.
          2   -1    0    0  501    0  0.00000000000E+00 -0.00000000000E+00 -0.27508111340E+04  0.27508111340E+04  0.00000000000E+00 0.  1.
         23    2    1    2    0    0  0.83310878529E+03  0.55966670549E+03 -0.21064515122E+04  0.23357434218E+04  0.10612393645E+03 0.  0.
         13    1    3    3    0    0  0.36698454577E+03  0.25414815050E+03 -0.10592724736E+04  0.11494899359E+04  0.00000000000E+00 0.  1.
        -13    1    3    3    0    0  0.46612423952E+03  0.30551855498E+03 -0.10471790386E+04  0.11862534860E+04  0.00000000000E+00 0. -1.
         22    1    1    2    0    0 -0.83310878529E+03 -0.55966670549E+03 -0.54316706289E+02  0.10051106277E+04  0.00000000000E+00 0. -1.
<mgrwt>
<rscale>  0 0.25480162E+04</rscale>
<asrwt>0</asrwt>
<pdfrwt beam="1">  1        2 0.42320172E+00 0.25480162E+04</pdfrwt>
<pdfrwt beam="2">  1       -2 0.90775832E-01 0.25480162E+04</pdfrwt>
<totfact> 0.22784526E+00</totfact>
</mgrwt>
</event>
<event>
 6    1  0.5026615E-004  0.5152619E+04  0.7818608E-02  0.7805386E-01
         -2   -1    0    0    0  501 -0.00000000000E+00  0.00000000000E+00  0.13045207464E+04  0.13045207464E+04  0.00000000000E+00 0. -1.
          2   -1    0    0  501    0  0.00000000000E+00 -0.00000000000E+00 -0.50879758365E+04  0.50879758365E+04  0.00000000000E+00 0.  1.
         23    2    1    2    0    0  0.13629267895E+04  0.21770283914E+04 -0.21281601687E+04  0.33368422623E+04  0.91807021743E+02 0.  0.
         11    1    3    3    0    0  0.10936260592E+04  0.17411726895E+04 -0.16553540684E+04  0.26396775151E+04  0.00000000000E+00 0.  1.
        -11    1    3    3    0    0  0.26930073035E+03  0.43585570189E+03 -0.47280610036E+03  0.69716474723E+03  0.00000000000E+00 0. -1.
         22    1    1    2    0    0 -0.13629267895E+04 -0.21770283914E+04 -0.16552949213E+04  0.30556543206E+04  0.00000000000E+00 0.  1.
<mgrwt>
<rscale>  0 0.51526188E+04</rscale>
<asrwt>0</asrwt>
<pdfrwt beam="1">  1        2 0.78276550E+00 0.51526188E+04</pdfrwt>
<pdfrwt beam="2">  1       -2 0.20069550E+00 0.51526188E+04</pdfrwt>
<totfact> 0.24484336E-03</totfact>
</mgrwt>
</event>
<event>
 6    1  0.5026615E-004  0.2048589E+04  0.7818608E-02  0.8584235E-01
          2   -1    0    0  501    0  0.00000000000E+00  0.00000000000E+00  0.12225356833E+04  0.12225356833E+04  0.00000000000E+00 0.  1.
         -2   -1    0    0    0  501 -0.00000000000E+00 -0.00000000000E+00 -0.85819925530E+03  0.85819925530E+03  0.00000000000E+00 0. -1.
         23    2    1    2    0    0  0.39425787750E+03 -0.14103252921E+03 -0.76489494860E+03  0.87637081171E+03  0.87361713350E+02 0.  0.
         13    1    3    3    0    0  0.24735914950E+03 -0.44452744635E+02 -0.42675667364E+03  0.49526139951E+03  0.00000000000E+00 0. -1.
        -13    1    3    3    0    0  0.14689872800E+03 -0.96579784579E+02 -0.33813827496E+03  0.38110941221E+03  0.00000000000E+00 0.  1.
         22    1    1    2    0    0 -0.39425787750E+03  0.14103252921E+03  0.11292313766E+04  0.12043641269E+04  0.00000000000E+00 0.  1.
<mgrwt>
<rscale>  0 0.20485890E+04</rscale>
<asrwt>0</asrwt>
<pdfrwt beam="1">  1        2 0.18808241E+00 0.20485890E+04</pdfrwt>
<pdfrwt beam="2">  1       -2 0.13203065E+00 0.20485890E+04</pdfrwt>
<totfact> 0.70965566E+00</totfact>
</mgrwt>
</event>
<event>
 6    1  0.5026615E-004  0.2057867E+04  0.7818608E-02  0.8580034E-01
         -2   -1    0    0    0  501 -0.00000000000E+00  0.00000000000E+00  0.24113273999E+03  0.24113273999E+03  0.00000000000E+00 0. -1.
          2   -1    0    0  501    0  0.00000000000E+00 -0.00000000000E+00 -0.43905447069E+04  0.43905447069E+04  0.00000000000E+00 0.  1.
         23    2    1    2    0    0 -0.41737383944E+03 -0.65552858327E+03 -0.35895983210E+04  0.36739144472E+04  0.92263829375E+02 0.  0.
         13    1    3    3    0    0 -0.65920082214E+02 -0.51129996406E+02 -0.38318391899E+03  0.39216023452E+03  0.00000000000E+00 0. -1.
        -13    1    3    3    0    0 -0.35145375723E+03 -0.60439858686E+03 -0.32064144020E+04  0.32817542127E+04  0.00000000000E+00 0.  1.
         22    1    1    2    0    0  0.41737383944E+03  0.65552858327E+03 -0.55981364591E+03  0.95776299964E+03  0.00000000000E+00 0. -1.
<mgrwt>
<rscale>  0 0.20578669E+04</rscale>
<asrwt>0</asrwt>
<pdfrwt beam="1">  1        2 0.67546838E+00 0.20578669E+04</pdfrwt>
<pdfrwt beam="2">  1       -2 0.37097347E-01 0.20578669E+04</pdfrwt>
<totfact> 0.10057807E+00</totfact>
</mgrwt>
</event>
<event>
 6    1  0.5026615E-004  0.2938680E+04  0.7818608E-02  0.8261461E-01
          2   -1    0    0  501    0  0.00000000000E+00  0.00000000000E+00  0.12485933976E+04  0.12485933976E+04  0.00000000000E+00 0.  1.
         -2   -1    0    0    0  501 -0.00000000000E+00 -0.00000000000E+00 -0.17291137519E+04  0.17291137519E+04  0.00000000000E+00 0. -1.
         23    2    1    2    0    0 -0.10776648566E+02 -0.12302655943E+04 -0.10518067508E+04  0.16212272508E+04  0.91710354162E+02 0.  0.
         11    1    3    3    0    0  0.15799518509E+02 -0.39224375460E+03 -0.38642861449E+03  0.55084649577E+03  0.00000000000E+00 0.  1.
        -11    1    3    3    0    0 -0.26576167075E+02 -0.83802183973E+03 -0.66537813632E+03  0.10703807551E+04  0.00000000000E+00 0. -1.
         22    1    1    2    0    0  0.10776648566E+02  0.12302655943E+04  0.57128639654E+03  0.13564798987E+04  0.00000000000E+00 0.  1.
<mgrwt>
<rscale>  0 0.29386800E+04</rscale>
<asrwt>0</asrwt>
<pdfrwt beam="1">  1        2 0.19209129E+00 0.29386800E+04</pdfrwt>
<pdfrwt beam="2">  1       -2 0.26601750E+00 0.29386800E+04</pdfrwt>
<totfact> 0.78153057E-01</totfact>
</mgrwt>
</event>
<event>
 6    1  0.5026615E-004  0.3126919E+04  0.7818608E-02  0.8208389E-01
         -2   -1    0    0    0  501 -0.00000000000E+00  0.00000000000E+00  0.11677809020E+04  0.11677809020E+04  0.00000000000E+00 0. -1.
          2   -1    0    0  501    0  0.00000000000E+00 -0.00000000000E+00 -0.20932051275E+04  0.20932051275E+04  0.00000000000E+00 0.  1.
         23    2    1    2    0    0 -0.12719483149E+04  0.78525800064E+03 -0.93588214713E+03  0.17661308487E+04  0.94128307336E+02 0.  0.
         11    1    3    3    0    0 -0.97163292032E+03  0.59195164432E+03 -0.66465590646E+03  0.13176664051E+04  0.00000000000E+00 0. -1.
        -11    1    3    3    0    0 -0.30031539457E+03  0.19330635632E+03 -0.27122624066E+03  0.44846444367E+03  0.00000000000E+00 0.  1.
         22    1    1    2    0    0  0.12719483149E+04 -0.78525800064E+03  0.10457921595E+02  0.14948551808E+04  0.00000000000E+00 0.  1.
<mgrwt>
<rscale>  0 0.31269186E+04</rscale>
<asrwt>0</asrwt>
<pdfrwt beam="1">  1        2 0.32203156E+00 0.31269186E+04</pdfrwt>
<pdfrwt beam="2">  1       -2 0.17965860E+00 0.31269186E+04</pdfrwt>
<totfact> 0.91553152E-01</totfact>
</mgrwt>
</event>
<event>
 6    1  0.5026615E-004  0.3126934E+04  0.7818608E-02  0.8208385E-01
          2   -1    0    0  501    0  0.00000000000E+00  0.00000000000E+00  0.30935018334E+04  0.30935018334E+04  0.00000000000E+00 0.  1.
         -2   -1    0    0    0  501 -0.00000000000E+00 -0.00000000000E+00 -0.79018197847E+03  0.79018197847E+03  0.00000000000E+00 0. -1.
         23    2    1    2    0    0  0.88239186445E+03  0.87108076097E+03  0.23327812656E+04  0.26434156678E+04  0.91547065200E+02 0.  0.
         11    1    3    3    0    0  0.24312690264E+03  0.18543772118E+03  0.55987100740E+03  0.63792898050E+03  0.00000000000E+00 0.  1.
        -11    1    3    3    0    0  0.63926496181E+03  0.68564303978E+03  0.17729102582E+04  0.20054866873E+04  0.00000000000E+00 0. -1.
         22    1    1    2    0    0 -0.88239186445E+03 -0.87108076097E+03 -0.29461410602E+02  0.12402681441E+04  0.00000000000E+00 0. -1.
<mgrwt>
<rscale>  0 0.31269342E+04</rscale>
<asrwt>0</asrwt>
<pdfrwt beam="1">  1        2 0.47592335E+00 0.31269342E+04</pdfrwt>
<pdfrwt beam="2">  1       -2 0.12156646E+00 0.31269342E+04</pdfrwt>
<totfact> 0.66119486E-01</totfact>
</mgrwt>
</event>
<event>
 6    1  0.5026615E-004  0.2005789E+04  0.7818608E-02  0.8603919E-01
          2   -1    0    0  501    0  0.00000000000E+00  0.00000000000E+00  0.20174646828E+04  0.20174646828E+04  0.00000000000E+00 0.  1.
         -2   -1    0    0    0  501 -0.00000000000E+00 -0.00000000000E+00 -0.49854544155E+03  0.49854544155E+03  0.00000000000E+00 0. -1.
         23    2    1    2    0    0 -0.21612544884E+03 -0.65502764998E+03  0.16707558314E+04  0.18097341287E+04  0.89113053967E+02 0.  0.
         13    1    3    3    0    0 -0.52210025192E+02 -0.23873758818E+03  0.50348619281E+03  0.55966049449E+03  0.00000000000E+00 0. -1.
        -13    1    3    3    0    0 -0.16391542365E+03 -0.41629006179E+03  0.11672696386E+04  0.12500736342E+04  0.00000000000E+00 0.  1.
         22    1    1    2    0    0  0.21612544884E+03  0.65502764998E+03 -0.15183659022E+03  0.70627599563E+03  0.00000000000E+00 0. -1.
<mgrwt>
<rscale>  0 0.20057894E+04</rscale>
<asrwt>0</asrwt>
<pdfrwt beam="1">  1        2 0.31037918E+00 0.20057894E+04</pdfrwt>
<pdfrwt beam="2">  1       -2 0.76699300E-01 0.20057894E+04</pdfrwt>
<totfact> 0.92159632E+00</totfact>
</mgrwt>
</event>
<event>
 6    1  0.5026615E-004  0.5132461E+04  0.7818608E-02  0.7808393E-01
          2   -1    0    0  501    0  0.00000000000E+00  0.00000000000E+00  0.24527419740E+04  0.24527419740E+04  0.00000000000E+00 0. -1.
         -2   -1    0    0    0  501 -0.00000000000E+00 -0.00000000000E+00 -0.26849698481E+04  0.26849698481E+04  0.00000000000E+00 0.  1.
         23    2    1    2    0    0 -0.15480807395E+04  0.17007876058E+04 -0.12539849813E+04  0.26211228525E+04  0.92597075451E+02 0.  0.
         11    1    3    3    0    0 -0.13766873696E+04  0.14991474483E+04 -0.11410817670E+04  0.23334049765E+04  0.00000000000E+00 0.  1.
        -11    1    3    3    0    0 -0.17139336984E+03  0.20164015746E+03 -0.11290321436E+03  0.28771787595E+03  0.00000000000E+00 0. -1.
         22    1    1    2    0    0  0.15480807395E+04 -0.17007876058E+04  0.10217571072E+04  0.25165889696E+04  0.00000000000E+00 0. -1.
<mgrwt>
<rscale>  0 0.51324607E+04</rscale>
<asrwt>0</asrwt>
<pdfrwt beam="1">  1        2 0.37734492E+00 0.51324607E+04</pdfrwt>
<pdfrwt beam="2">  1       -2 0.41307228E+00 0.51324607E+04</pdfrwt>
<totfact> 0.16289296E-02</totfact>
</mgrwt>
</event>
<event>
 6    1  0.5026615E-004  0.1558879E+04  0.7818608E-02  0.8846216E-01
          2   -1    0    0  501    0  0.00000000000E+00  0.00000000000E+00  0.80326297863E+03  0.80326297863E+03  0.00000000000E+00 0.  1.
         -2   -1    0    0    0  501 -0.00000000000E+00 -0.00000000000E+00 -0.75632224978E+03  0.75632224978E+03  0.00000000000E+00 0. -1.
         23    2    1    2    0    0  0.90675430484E+02  0.32619400994E+03 -0.67595336898E+03  0.76133686950E+03  0.89979475476E+02 0.  0.
         13    1    3    3    0    0  0.55139873836E+02  0.26240274216E+03 -0.44946610774E+03  0.52336926427E+03  0.00000000000E+00 0. -1.
        -13    1    3    3    0    0  0.35535556648E+02  0.63791267777E+02 -0.22648726125E+03  0.23796760523E+03  0.00000000000E+00 0.  1.
         22    1    1    2    0    0 -0.90675430484E+02 -0.32619400994E+03  0.72289409784E+03  0.79824835891E+03  0.00000000000E+00 0.  1.
<mgrwt>
<rscale>  0 0.15588787E+04</rscale>
<asrwt>0</asrwt>
<pdfrwt beam="1">  1        2 0.12357892E+00 0.15588787E+04</pdfrwt>
<pdfrwt beam="2">  1       -2 0.11635727E+00 0.15588787E+04</pdfrwt>
<totfact> 0.18882079E+01</totfact>
</mgrwt>
</event>
<event>
 6    1  0.5026615E-004  0.2295414E+04  0.7818608E-02  0.8479732E-01
          2   -1    0    0  501    0  0.00000000000E+00  0.00000000000E+00  0.98789171403E+03  0.98789171403E+03  0.00000000000E+00 0.  1.
         -2   -1    0    0    0  501 -0.00000000000E+00 -0.00000000000E+00 -0.13333761587E+04  0.13333761587E+04  0.00000000000E+00 0. -1.
         23    2    1    2    0    0  0.45367242050E+03  0.73966135047E+03  0.58385950548E+03  0.10498128966E+04  0.91091258210E+02 0.  0.
         13    1    3    3    0    0  0.66337745354E+02  0.14380285476E+03  0.14380916134E+03  0.21391828435E+03  0.00000000000E+00 0.  1.
        -13    1    3    3    0    0  0.38733467514E+03  0.59585849572E+03  0.44005034414E+03  0.83589461230E+03  0.00000000000E+00 0. -1.
         22    1    1    2    0    0 -0.45367242050E+03 -0.73966135047E+03 -0.92934395011E+03  0.12714549760E+04  0.00000000000E+00 0. -1.
<mgrwt>
<rscale>  0 0.22954139E+04</rscale>
<asrwt>0</asrwt>
<pdfrwt beam="1">  1        2 0.15198334E+00 0.22954139E+04</pdfrwt>
<pdfrwt beam="2">  1       -2 0.20513479E+00 0.22954139E+04</pdfrwt>
<totfact> 0.28628294E+00</totfact>
</mgrwt>
</event>
<event>
 6    1  0.5241351E-004  0.3374471E+04  0.7818608E-02  0.8144201E-01
          2   -1    0    0  501    0  0.00000000000E+00  0.00000000000E+00  0.31816566021E+04  0.31816566021E+04  0.00000000000E+00 0.  1.
         -2   -1    0    0    0  501 -0.00000000000E+00 -0.00000000000E+00 -0.89474232133E+03  0.89474232133E+03  0.00000000000E+00 0. -1.
         23    2    1    2    0    0  0.15671606793E+04  0.61267428912E+03  0.10143788845E+04  0.19667286378E+04  0.87719064415E+02 0.  0.
         13    1    3    3    0    0  0.64671590646E+03  0.23271935197E+03  0.36910681015E+03  0.78015357318E+03  0.00000000000E+00 0. -1.
        -13    1    3    3    0    0  0.92044477283E+03  0.37995493715E+03  0.64527207440E+03  0.11865750647E+04  0.00000000000E+00 0.  1.
         22    1    1    2    0    0 -0.15671606793E+04 -0.61267428912E+03  0.12725353962E+04  0.21096702856E+04  0.00000000000E+00 0.  1.
<mgrwt>
<rscale>  0 0.33744705E+04</rscale>
<asrwt>0</asrwt>
<pdfrwt beam="1">  1        2 0.48948563E+00 0.33744705E+04</pdfrwt>
<pdfrwt beam="2">  1       -2 0.13765267E+00 0.33744705E+04</pdfrwt>
<totfact> 0.41485250E-01</totfact>
</mgrwt>
</event>
<event>
 6    1  0.5026615E-004  0.1487829E+04  0.7818608E-02  0.8892587E-01
         -2   -1    0    0    0  501 -0.00000000000E+00  0.00000000000E+00  0.22723526051E+03  0.22723526051E+03  0.00000000000E+00 0. -1.
          2   -1    0    0  501    0  0.00000000000E+00 -0.00000000000E+00 -0.24354016295E+04  0.24354016295E+04  0.00000000000E+00 0.  1.
         23    2    1    2    0    0 -0.36295609270E+03 -0.13687680789E+03  0.21691843179E+02  0.39928980391E+03  0.92138079449E+02 0.  0.
         11    1    3    3    0    0 -0.92546099375E+02 -0.10082766182E+02  0.37142040759E+02  0.10022960578E+03  0.00000000000E+00 0. -1.
        -11    1    3    3    0    0 -0.27040999332E+03 -0.12679404171E+03 -0.15450197580E+02  0.29906019813E+03  0.00000000000E+00 0.  1.
         22    1    1    2    0    0  0.36295609270E+03  0.13687680789E+03 -0.22298582122E+04  0.22633470861E+04  0.00000000000E+00 0.  1.
<mgrwt>
<rscale>  0 0.14878295E+04</rscale>
<asrwt>0</asrwt>
<pdfrwt beam="1">  1        2 0.37467715E+00 0.14878295E+04</pdfrwt>
<pdfrwt beam="2">  1       -2 0.34959273E-01 0.14878295E+04</pdfrwt>
<totfact> 0.28236747E+01</totfact>
</mgrwt>
</event>
<event>
 6    1  0.5026615E-004  0.3803842E+04  0.7818608E-02  0.8045331E-01
          2   -1    0    0  501    0  0.00000000000E+00  0.00000000000E+00  0.35980511943E+04  0.35980511943E+04  0.00000000000E+00 0.  1.
         -2   -1    0    0    0  501 -0.00000000000E+00 -0.00000000000E+00 -0.10053509666E+04  0.10053509666E+04  0.00000000000E+00 0. -1.
         23    2    1    2    0    0 -0.16893228352E+04  0.16519692464E+03  0.23325026349E+04  0.28861938297E+04  0.91894586179E+02 0.  0.
         11    1    3    3    0    0 -0.58628898848E+03  0.46365744976E+02  0.88099249174E+03  0.10592602753E+04  0.00000000000E+00 0. -1.
        -11    1    3    3    0    0 -0.11030338467E+04  0.11883117966E+03  0.14515101432E+04  0.18269335544E+04  0.00000000000E+00 0.  1.
         22    1    1    2    0    0  0.16893228352E+04 -0.16519692464E+03  0.26019759270E+03  0.17172083312E+04  0.00000000000E+00 0. -1.
<mgrwt>
<rscale>  0 0.38038424E+04</rscale>
<asrwt>0</asrwt>
<pdfrwt beam="1">  1        2 0.55354633E+00 0.38038424E+04</pdfrwt>
<pdfrwt beam="2">  1       -2 0.15466938E+00 0.38038424E+04</pdfrwt>
<totfact> 0.15297260E-01</totfact>
</mgrwt>
</event>
<event>
 6    1  0.5026615E-004  0.1512990E+04  0.7818608E-02  0.8875860E-01
          2   -1    0    0  501    0  0.00000000000E+00  0.00000000000E+00  0.28803709214E+04  0.28803709214E+04  0.00000000000E+00 0.  1.
         -2   -1    0    0    0  501 -0.00000000000E+00 -0.00000000000E+00 -0.19868438634E+03  0.19868438634E+03  0.00000000000E+00 0. -1.
         23    2    1    2    0    0 -0.43035715386E+03  0.56836688853E+03  0.84744828730E+03  0.11111431783E+04  0.90677246791E+02 0.  0.
         13    1    3    3    0    0 -0.30433608702E+03  0.35697034406E+03  0.50282623457E+03  0.68766452764E+03  0.00000000000E+00 0. -1.
        -13    1    3    3    0    0 -0.12602106683E+03  0.21139654446E+03  0.34462205273E+03  0.42347865061E+03  0.00000000000E+00 0.  1.
         22    1    1    2    0    0  0.43035715386E+03 -0.56836688853E+03  0.18342382477E+04  0.19679121294E+04  0.00000000000E+00 0.  1.
<mgrwt>
<rscale>  0 0.15129901E+04</rscale>
<asrwt>0</asrwt>
<pdfrwt beam="1">  1        2 0.44313396E+00 0.15129901E+04</pdfrwt>
<pdfrwt beam="2">  1       -2 0.30566831E-01 0.15129901E+04</pdfrwt>
<totfact> 0.19859152E+01</totfact>
</mgrwt>
</event>
<event>
 6    1  0.5026615E-004  0.2424808E+04  0.7818608E-02  0.8430274E-01
         -2   -1    0    0    0  501 -0.00000000000E+00  0.00000000000E+00  0.14048530261E+04  0.14048530261E+04  0.00000000000E+00 0. -1.
          2   -1    0    0  501    0  0.00000000000E+00 -0.00000000000E+00 -0.10463179656E+04  0.10463179656E+04  0.00000000000E+00 0.  1.
         23    2    1    2    0    0  0.70757692296E+03 -0.91827942871E+03 -0.17346314402E+03  0.11756615638E+04  0.90489994925E+02 0.  0.
         11    1    3    3    0    0  0.30600901016E+03 -0.46675715725E+03 -0.67696401006E+02  0.56221576005E+03  0.00000000000E+00 0. -1.
        -11    1    3    3    0    0  0.40156791280E+03 -0.45152227146E+03 -0.10576674302E+03  0.61344580376E+03  0.00000000000E+00 0.  1.
         22    1    1    2    0    0 -0.70757692296E+03  0.91827942871E+03  0.53199820446E+03  0.12755094279E+04  0.00000000000E+00 0.  1.
<mgrwt>
<rscale>  0 0.24248076E+04</rscale>
<asrwt>0</asrwt>
<pdfrwt beam="1">  1        2 0.16097199E+00 0.24248076E+04</pdfrwt>
<pdfrwt beam="2">  1       -2 0.21613124E+00 0.24248076E+04</pdfrwt>
<totfact> 0.22086439E+00</totfact>
</mgrwt>
</event>
<event>
 6    1  0.5026615E-004  0.3279491E+04  0.7818608E-02  0.8168134E-01
          2   -1    0    0  501    0  0.00000000000E+00  0.00000000000E+00  0.20010790880E+04  0.20010790880E+04  0.00000000000E+00 0.  1.
         -2   -1    0    0    0  501 -0.00000000000E+00 -0.00000000000E+00 -0.13436574915E+04  0.13436574915E+04  0.00000000000E+00 0. -1.
         23    2    1    2    0    0  0.16968996329E+03 -0.15328995375E+04  0.89309826461E+03  0.17845701885E+04  0.92144298816E+02 0.  0.
         11    1    3    3    0    0  0.22020904721E+02 -0.20215140479E+03  0.82842164538E+02  0.21957444052E+03  0.00000000000E+00 0. -1.
        -11    1    3    3    0    0  0.14766905857E+03 -0.13307481327E+04  0.81025610007E+03  0.15649957480E+04  0.00000000000E+00 0.  1.
         22    1    1    2    0    0 -0.16968996329E+03  0.15328995375E+04 -0.23567666805E+03  0.15601663910E+04  0.00000000000E+00 0. -1.
<mgrwt>
<rscale>  0 0.32794908E+04</rscale>
<asrwt>0</asrwt>
<pdfrwt beam="1">  1        2 0.30785832E+00 0.32794908E+04</pdfrwt>
<pdfrwt beam="2">  1       -2 0.20671654E+00 0.32794908E+04</pdfrwt>
<totfact> 0.67118690E-01</totfact>
</mgrwt>
</event>
<event>
 6    1  0.5026615E-004  0.2034296E+04  0.7818608E-02  0.8590752E-01
          2   -1    0    0  501    0  0.00000000000E+00  0.00000000000E+00  0.22098907849E+04  0.22098907849E+04  0.00000000000E+00 0.  1.
         -2   -1    0    0    0  501 -0.00000000000E+00 -0.00000000000E+00 -0.46816359701E+03  0.46816359701E+03  0.00000000000E+00 0. -1.
         23    2    1    2    0    0 -0.17323704295E+03  0.83393762184E+03  0.15997345934E+04  0.18145586222E+04  0.89494099844E+02 0.  0.
         11    1    3    3    0    0 -0.12735254981E+03  0.74987244403E+03  0.14147228776E+04  0.16062279336E+04  0.00000000000E+00 0. -1.
        -11    1    3    3    0    0 -0.45884493136E+02  0.84065177811E+02  0.18501171582E+03  0.20833068862E+03  0.00000000000E+00 0.  1.
         22    1    1    2    0    0  0.17323704295E+03 -0.83393762184E+03  0.14199259448E+03  0.86349575972E+03  0.00000000000E+00 0. -1.
<mgrwt>
<rscale>  0 0.20342964E+04</rscale>
<asrwt>0</asrwt>
<pdfrwt beam="1">  1        2 0.33998319E+00 0.20342964E+04</pdfrwt>
<pdfrwt beam="2">  1       -2 0.72025170E-01 0.20342964E+04</pdfrwt>
<totfact> 0.82477245E+00</totfact>
</mgrwt>
</event>
<event>
 6    1  0.5026615E-004  0.1198690E+04  0.7818608E-02  0.9114004E-01
          2   -1    0    0  501    0  0.00000000000E+00  0.00000000000E+00  0.34088453736E+04  0.34088453736E+04  0.00000000000E+00 0.  1.
         -2   -1    0    0    0  501 -0.00000000000E+00 -0.00000000000E+00 -0.10537720424E+03  0.10537720424E+03  0.00000000000E+00 0. -1.
         23    2    1    2    0    0  0.57758956818E+03 -0.79597380974E+02  0.13012813124E+04  0.14288694513E+04  0.91593681305E+02 0.  0.
         11    1    3    3    0    0  0.45360286468E+03 -0.92999460319E+02  0.10753718273E+04  0.11708240796E+04  0.00000000000E+00 0. -1.
        -11    1    3    3    0    0  0.12398670349E+03  0.13402079345E+02  0.22590948514E+03  0.25804537169E+03  0.00000000000E+00 0.  1.
         22    1    1    2    0    0 -0.57758956818E+03  0.79597380974E+02  0.20021868569E+04  0.20853531265E+04  0.00000000000E+00 0. -1.
<mgrwt>
<rscale>  0 0.11986903E+04</rscale>
<asrwt>0</asrwt>
<pdfrwt beam="1">  1        2 0.52443767E+00 0.11986903E+04</pdfrwt>
<pdfrwt beam="2">  1       -2 0.16211880E-01 0.11986903E+04</pdfrwt>
<totfact> 0.29223798E+01</totfact>
</mgrwt>
</event>
<event>
 6    1  0.5026615E-004  0.8134530E+03  0.7818608E-02  0.9540746E-01
          2   -1    0    0  501    0  0.00000000000E+00  0.00000000000E+00  0.35284340850E+04  0.35284340850E+04  0.00000000000E+00 0.  1.
         -2   -1    0    0    0  501 -0.00000000000E+00 -0.00000000000E+00 -0.46883809884E+02  0.46883809884E+02  0.00000000000E+00 0. -1.
         23    2    1    2    0    0  0.40437856969E+02 -0.12056802053E+03  0.34370482893E+04  0.34405874433E+04  0.90383317406E+02 0.  0.
         11    1    3    3    0    0  0.30429583188E+01 -0.11740382887E+03  0.24222365826E+04  0.24250820565E+04  0.00000000000E+00 0.  1.
        -11    1    3    3    0    0  0.37394898650E+02 -0.31641916585E+01  0.10148117067E+04  0.10155053868E+04  0.00000000000E+00 0. -1.
         22    1    1    2    0    0 -0.40437856969E+02  0.12056802053E+03  0.44501985840E+02  0.13473045162E+03  0.00000000000E+00 0. -1.
<mgrwt>
<rscale>  0 0.81345297E+03</rscale>
<asrwt>0</asrwt>
<pdfrwt beam="1">  1        2 0.54283580E+00 0.81345297E+03</pdfrwt>
<pdfrwt beam="2">  1       -2 0.72128966E-02 0.81345297E+03</pdfrwt>
<totfact> 0.96270994E+01</totfact>
</mgrwt>
</event>
<event>
 6    1  0.5026615E-004  0.1290337E+04  0.7818608E-02  0.9037264E-01
          1   -1    0    0  501    0  0.00000000000E+00  0.00000000000E+00  0.40063534563E+03  0.40063534563E+03  0.00000000000E+00 0.  1.
         -1   -1    0    0    0  501 -0.00000000000E+00 -0.00000000000E+00 -0.10389550896E+04  0.10389550896E+04  0.00000000000E+00 0. -1.
         23    2    1    2    0    0  0.22027026783E+03  0.57223986795E+03 -0.53278476402E+03  0.81740469980E+03  0.91177744677E+02 0.  0.
         11    1    3    3    0    0  0.19708711159E+03  0.54799482787E+03 -0.47913077090E+03  0.75412728140E+03  0.00000000000E+00 0. -1.
        -11    1    3    3    0    0  0.23183156245E+02  0.24245040076E+02 -0.53653993119E+02  0.63277418400E+02  0.00000000000E+00 0.  1.
         22    1    1    2    0    0 -0.22027026783E+03 -0.57223986795E+03 -0.10553497994E+03  0.62218573541E+03  0.00000000000E+00 0.  1.
<mgrwt>
<rscale>  0 0.12903366E+04</rscale>
<asrwt>0</asrwt>
<pdfrwt beam="1">  1        1 0.61636206E-01 0.12903366E+04</pdfrwt>
<pdfrwt beam="2">  1       -1 0.15983925E+00 0.12903366E+04</pdfrwt>
<totfact> 0.17251125E+01</totfact>
</mgrwt>
</event>
<event>
 6    1  0.5026615E-004  0.2371596E+04  0.7818608E-02  0.8450215E-01
          1   -1    0    0  501    0  0.00000000000E+00  0.00000000000E+00  0.12175164203E+04  0.12175164203E+04  0.00000000000E+00 0.  1.
         -1   -1    0    0    0  501 -0.00000000000E+00 -0.00000000000E+00 -0.11549054251E+04  0.11549054251E+04  0.00000000000E+00 0. -1.
         23    2    1    2    0    0  0.10780836967E+04  0.29549276328E+03 -0.35899318368E+03  0.11777124607E+04  0.92466771976E+02 0.  0.
         11    1    3    3    0    0  0.15493085783E+03  0.23217156521E+02 -0.23312409733E+02  0.15838584379E+03  0.00000000000E+00 0. -1.
        -11    1    3    3    0    0  0.92315283889E+03  0.27227560676E+03 -0.33568077395E+03  0.10193266169E+04  0.00000000000E+00 0.  1.
         22    1    1    2    0    0 -0.10780836967E+04 -0.29549276328E+03  0.42160417887E+03  0.11947093847E+04  0.00000000000E+00 0.  1.
<mgrwt>
<rscale>  0 0.23715955E+04</rscale>
<asrwt>0</asrwt>
<pdfrwt beam="1">  1        1 0.18731022E+00 0.23715955E+04</pdfrwt>
<pdfrwt beam="2">  1       -1 0.17767776E+00 0.23715955E+04</pdfrwt>
<totfact> 0.20160347E+00</totfact>
</mgrwt>
</event>
<event>
 6    1  0.5026615E-004  0.2783565E+04  0.7818608E-02  0.8308389E-01
          2   -1    0    0  501    0  0.00000000000E+00  0.00000000000E+00  0.21578380355E+04  0.21578380355E+04  0.00000000000E+00 0.  1.
         -2   -1    0    0    0  501 -0.00000000000E+00 -0.00000000000E+00 -0.89768470319E+03  0.89768470319E+03  0.00000000000E+00 0. -1.
         23    2    1    2    0    0  0.76859120897E+03  0.54720775069E+03 -0.49021586955E+03  0.10670657712E+04  0.90271769062E+02 0.  0.
         13    1    3    3    0    0  0.40308089091E+03  0.25903429617E+03 -0.29250966288E+03  0.56136875054E+03  0.00000000000E+00 0.  1.
        -13    1    3    3    0    0  0.36551031806E+03  0.28817345452E+03 -0.19770620667E+03  0.50569702061E+03  0.00000000000E+00 0. -1.
         22    1    1    2    0    0 -0.76859120897E+03 -0.54720775069E+03  0.17503692019E+04  0.19884569675E+04  0.00000000000E+00 0.  1.
<mgrwt>
<rscale>  0 0.27835648E+04</rscale>
<asrwt>0</asrwt>
<pdfrwt beam="1">  1        2 0.33197508E+00 0.27835648E+04</pdfrwt>
<pdfrwt beam="2">  1       -2 0.13810534E+00 0.27835648E+04</pdfrwt>
<totfact> 0.17680383E+00</totfact>
</mgrwt>
</event>
<event>
 6    1  0.5026615E-004  0.1637516E+04  0.7818608E-02  0.8797826E-01
         -2   -1    0    0    0  501 -0.00000000000E+00  0.00000000000E+00  0.95996407529E+03  0.95996407529E+03  0.00000000000E+00 0. -1.
          2   -1    0    0  501    0  0.00000000000E+00 -0.00000000000E+00 -0.69832287885E+03  0.69832287885E+03  0.00000000000E+00 0.  1.
         23    2    1    2    0    0 -0.29385850115E+02  0.17151459594E+03 -0.67650062511E+03  0.70414290729E+03  0.88788249842E+02 0.  0.
         11    1    3    3    0    0  0.44298172923E+01  0.15852233633E+03 -0.57003166008E+03  0.59167985253E+03  0.00000000000E+00 0.  1.
        -11    1    3    3    0    0 -0.33815667408E+02  0.12992259607E+02 -0.10646896502E+03  0.11246305476E+03  0.00000000000E+00 0. -1.
         22    1    1    2    0    0  0.29385850115E+02 -0.17151459594E+03  0.93814182154E+03  0.95414404685E+03  0.00000000000E+00 0. -1.
<mgrwt>
<rscale>  0 0.16375163E+04</rscale>
<asrwt>0</asrwt>
<pdfrwt beam="1">  1        2 0.10743429E+00 0.16375163E+04</pdfrwt>
<pdfrwt beam="2">  1       -2 0.14768678E+00 0.16375163E+04</pdfrwt>
<totfact> 0.12262052E+01</totfact>
</mgrwt>
</event>
<event>
 6    1  0.5026615E-004  0.1797066E+04  0.7818608E-02  0.8707861E-01
          2   -1    0    0  501    0  0.00000000000E+00  0.00000000000E+00  0.13440395840E+04  0.13440395840E+04  0.00000000000E+00 0.  1.
         -2   -1    0    0    0  501 -0.00000000000E+00 -0.00000000000E+00 -0.60069795335E+03  0.60069795335E+03  0.00000000000E+00 0. -1.
         23    2    1    2    0    0  0.36436080181E+03 -0.53441890286E+02 -0.51158316200E+03  0.63689539673E+03  0.91124009996E+02 0.  0.
         13    1    3    3    0    0  0.17851461346E+03  0.15078385370E+01 -0.30671820494E+03  0.35488843040E+03  0.00000000000E+00 0. -1.
        -13    1    3    3    0    0  0.18584618835E+03 -0.54949728823E+02 -0.20486495707E+03  0.28200696633E+03  0.00000000000E+00 0.  1.
         22    1    1    2    0    0 -0.36436080181E+03  0.53441890286E+02  0.12549247926E+04  0.13078421406E+04  0.00000000000E+00 0.  1.
<mgrwt>
<rscale>  0 0.17970663E+04</rscale>
<asrwt>0</asrwt>
<pdfrwt beam="1">  1        2 0.20677532E+00 0.17970663E+04</pdfrwt>
<pdfrwt beam="2">  1       -2 0.92415070E-01 0.17970663E+04</pdfrwt>
<totfact> 0.14629191E+01</totfact>
</mgrwt>
</event>
<event>
 6    1  0.5026615E-004  0.2760382E+04  0.7818608E-02  0.8315675E-01
         -2   -1    0    0    0  501 -0.00000000000E+00  0.00000000000E+00  0.89307365807E+03  0.89307365807E+03  0.00000000000E+00 0. -1.
          2   -1    0    0  501    0  0.00000000000E+00 -0.00000000000E+00 -0.21330014706E+04  0.21330014706E+04  0.00000000000E+00 0.  1.
         23    2    1    2    0    0 -0.10342972677E+04 -0.40754859841E+02 -0.16189239180E+04  0.19237730628E+04  0.92500531528E+02 0.  0.
         11    1    3    3    0    0 -0.75994595491E+02  0.13396310894E+02 -0.90198301160E+02  0.11870287790E+03  0.00000000000E+00 0. -1.
        -11    1    3    3    0    0 -0.95830267217E+03 -0.54151170735E+02 -0.15287256169E+04  0.18050701849E+04  0.00000000000E+00 0.  1.
         22    1    1    2    0    0  0.10342972677E+04  0.40754859841E+02  0.37899610547E+03  0.11023020659E+04  0.00000000000E+00 0. -1.
<mgrwt>
<rscale>  0 0.27603822E+04</rscale>
<asrwt>0</asrwt>
<pdfrwt beam="1">  1        2 0.32815407E+00 0.27603822E+04</pdfrwt>
<pdfrwt beam="2">  1       -2 0.13739595E+00 0.27603822E+04</pdfrwt>
<totfact> 0.18536932E+00</totfact>
</mgrwt>
</event>
<event>
 6    1  0.5026615E-004  0.1704860E+04  0.7818608E-02  0.8758598E-01
          1   -1    0    0  501    0  0.00000000000E+00  0.00000000000E+00  0.18190975884E+04  0.18190975884E+04  0.00000000000E+00 0. -1.
         -1   -1    0    0    0  501 -0.00000000000E+00 -0.00000000000E+00 -0.39944896839E+03  0.39944896839E+03  0.00000000000E+00 0.  1.
         23    2    1    2    0    0  0.55968919937E+03 -0.55458823982E+03  0.11285125200E+04  0.13785582567E+04  0.77860411322E+02 0.  0.
         11    1    3    3    0    0  0.46182926218E+03 -0.49524897575E+03  0.95594125140E+03  0.11714868721E+04  0.00000000000E+00 0.  1.
        -11    1    3    3    0    0  0.97859937193E+02 -0.59339264067E+02  0.17257126857E+03  0.20707138456E+03  0.00000000000E+00 0. -1.
         22    1    1    2    0    0 -0.55968919937E+03  0.55458823982E+03  0.29113610006E+03  0.83998830015E+03  0.00000000000E+00 0.  1.
<mgrwt>
<rscale>  0 0.17048597E+04</rscale>
<asrwt>0</asrwt>
<pdfrwt beam="1">  1        1 0.27986116E+00 0.17048597E+04</pdfrwt>
<pdfrwt beam="2">  1       -1 0.61453689E-01 0.17048597E+04</pdfrwt>
<totfact> 0.10101568E+01</totfact>
</mgrwt>
</event>
<event>
 6    1  0.5026615E-004  0.1287920E+04  0.7818608E-02  0.9039200E-01
         -2   -1    0    0    0  501 -0.00000000000E+00  0.00000000000E+00  0.25884081836E+03  0.25884081836E+03  0.00000000000E+00 0. -1.
          2   -1    0    0  501    0  0.00000000000E+00 -0.00000000000E+00 -0.16020841723E+04  0.16020841723E+04  0.00000000000E+00 0.  1.
         23    2    1    2    0    0  0.35228887346E+03  0.53506899476E+03 -0.70760688388E+03  0.95846169411E+03  0.86804593516E+02 0.  0.
         13    1    3    3    0    0  0.82623001772E+02  0.79389378111E+02 -0.15926466413E+03  0.19620006886E+03  0.00000000000E+00 0.  1.
        -13    1    3    3    0    0  0.26966587169E+03  0.45567961665E+03 -0.54834221974E+03  0.76226162525E+03  0.00000000000E+00 0. -1.
         22    1    1    2    0    0 -0.35228887346E+03 -0.53506899476E+03 -0.63563647004E+03  0.90246329651E+03  0.00000000000E+00 0.  1.
<mgrwt>
<rscale>  0 0.12879205E+04</rscale>
<asrwt>0</asrwt>
<pdfrwt beam="1">  1        2 0.24647449E+00 0.12879205E+04</pdfrwt>
<pdfrwt beam="2">  1       -2 0.39821665E-01 0.12879205E+04</pdfrwt>
<totfact> 0.65073993E+01</totfact>
</mgrwt>
</event>
<event>
 6    1  0.5026615E-004  0.2219409E+04  0.7818608E-02  0.8510393E-01
         -1   -1    0    0    0  501 -0.00000000000E+00  0.00000000000E+00  0.93332170691E+03  0.93332170691E+03  0.00000000000E+00 0. -1.
          1   -1    0    0  501    0  0.00000000000E+00 -0.00000000000E+00 -0.13194207509E+04  0.13194207509E+04  0.00000000000E+00 0.  1.
         23    2    1    2    0    0  0.52746398078E+02 -0.97580593780E+03  0.33656813860E+03  0.10373300720E+04  0.88295841534E+02 0.  0.
         13    1    3    3    0    0  0.57810187684E+02 -0.60239346766E+03  0.17122947962E+03  0.62891926538E+03  0.00000000000E+00 0. -1.
        -13    1    3    3    0    0 -0.50637896060E+01 -0.37341247014E+03  0.16533865898E+03  0.40841080663E+03  0.00000000000E+00 0.  1.
         22    1    1    2    0    0 -0.52746398078E+02  0.97580593780E+03 -0.72266718259E+03  0.12154123858E+04  0.00000000000E+00 0.  1.
<mgrwt>
<rscale>  0 0.22194090E+04</rscale>
<asrwt>0</asrwt>
<pdfrwt beam="1">  1        1 0.20298781E+00 0.22194090E+04</pdfrwt>
<pdfrwt beam="2">  1       -1 0.14358796E+00 0.22194090E+04</pdfrwt>
<totfact> 0.31272236E+00</totfact>
</mgrwt>
</event>
<event>
 6    1  0.5026615E-004  0.1698321E+04  0.7818608E-02  0.8762322E-01
          2   -1    0    0  501    0  0.00000000000E+00  0.00000000000E+00  0.29068370686E+04  0.29068370686E+04  0.00000000000E+00 0.  1.
         -2   -1    0    0    0  501 -0.00000000000E+00 -0.00000000000E+00 -0.24806134993E+03  0.24806134993E+03  0.00000000000E+00 0. -1.
         23    2    1    2    0    0  0.28861667785E+03 -0.78095300033E+03  0.10444105924E+04  0.13384838358E+04  0.86938585724E+02 0.  0.
         13    1    3    3    0    0  0.16152629304E+03 -0.55282576793E+03  0.72341451904E+03  0.92468137181E+03  0.00000000000E+00 0. -1.
        -13    1    3    3    0    0  0.12709038481E+03 -0.22812723240E+03  0.32099607338E+03  0.41380246398E+03  0.00000000000E+00 0.  1.
         22    1    1    2    0    0 -0.28861667785E+03  0.78095300033E+03  0.16143651262E+04  0.18164145827E+04  0.00000000000E+00 0. -1.
<mgrwt>
<rscale>  0 0.16983214E+04</rscale>
<asrwt>0</asrwt>
<pdfrwt beam="1">  1        2 0.44720568E+00 0.16983214E+04</pdfrwt>
<pdfrwt beam="2">  1       -2 0.38163287E-01 0.16983214E+04</pdfrwt>
<totfact> 0.12325867E+01</totfact>
</mgrwt>
</event>
<event>
 6    1  0.5026615E-004  0.1901797E+04  0.7818608E-02  0.8653962E-01
         -2   -1    0    0    0  501 -0.00000000000E+00  0.00000000000E+00  0.35222207283E+03  0.35222207283E+03  0.00000000000E+00 0. -1.
          2   -1    0    0  501    0  0.00000000000E+00 -0.00000000000E+00 -0.25671535213E+04  0.25671535213E+04  0.00000000000E+00 0.  1.
         23    2    1    2    0    0 -0.32407446741E+03  0.87030520398E+03 -0.81147345345E+03  0.12364763838E+04  0.89046467762E+02 0.  0.
         13    1    3    3    0    0 -0.75233660591E+02  0.20721864471E+03 -0.14432103451E+03  0.26349237447E+03  0.00000000000E+00 0.  1.
        -13    1    3    3    0    0 -0.24884080682E+03  0.66308655927E+03 -0.66715241894E+03  0.97298400928E+03  0.00000000000E+00 0. -1.
         22    1    1    2    0    0  0.32407446741E+03 -0.87030520398E+03 -0.14034579950E+04  0.16828992104E+04  0.00000000000E+00 0.  1.
<mgrwt>
<rscale>  0 0.19017972E+04</rscale>
<asrwt>0</asrwt>
<pdfrwt beam="1">  1        2 0.39494669E+00 0.19017972E+04</pdfrwt>
<pdfrwt beam="2">  1       -2 0.54188012E-01 0.19017972E+04</pdfrwt>
<totfact> 0.95624281E+00</totfact>
</mgrwt>
</event>
<event>
 6    1  0.5026615E-004  0.2215003E+04  0.7818608E-02  0.8512209E-01
         -2   -1    0    0    0  501 -0.00000000000E+00  0.00000000000E+00  0.86744235184E+03  0.86744235184E+03  0.00000000000E+00 0. -1.
          2   -1    0    0  501    0  0.00000000000E+00 -0.00000000000E+00 -0.14139954637E+04  0.14139954637E+04  0.00000000000E+00 0.  1.
         23    2    1    2    0    0 -0.59852105540E+02 -0.10983319203E+04 -0.39115654221E+03  0.11705537642E+04  0.85307635468E+02 0.  0.
         11    1    3    3    0    0 -0.77697719849E+02 -0.76165577007E+03 -0.25514471230E+03  0.80700388596E+03  0.00000000000E+00 0. -1.
        -11    1    3    3    0    0  0.17845614309E+02 -0.33667615021E+03 -0.13601182992E+03  0.36354987821E+03  0.00000000000E+00 0.  1.
         22    1    1    2    0    0  0.59852105540E+02  0.10983319203E+04 -0.15539656961E+03  0.11108840513E+04  0.00000000000E+00 0.  1.
<mgrwt>
<rscale>  0 0.22150030E+04</rscale>
<asrwt>0</asrwt>
<pdfrwt beam="1">  1        2 0.21753776E+00 0.22150030E+04</pdfrwt>
<pdfrwt beam="2">  1       -2 0.13345267E+00 0.22150030E+04</pdfrwt>
<totfact> 0.52702942E+00</totfact>
</mgrwt>
</event>
<event>
 6    1  0.5026615E-004  0.1290879E+04  0.7818608E-02  0.9036829E-01
          2   -1    0    0  501    0  0.00000000000E+00  0.00000000000E+00  0.10697430213E+04  0.10697430213E+04  0.00000000000E+00 0.  1.
         -2   -1    0    0    0  501 -0.00000000000E+00 -0.00000000000E+00 -0.38943217250E+03  0.38943217250E+03  0.00000000000E+00 0. -1.
         23    2    1    2    0    0  0.47752473323E+02 -0.64042911991E+03  0.35499291483E+03  0.73927137069E+03  0.89846722814E+02 0.  0.
         11    1    3    3    0    0  0.42099487541E+01 -0.32377192382E+03  0.13269943944E+03  0.34993588492E+03  0.00000000000E+00 0.  1.
        -11    1    3    3    0    0  0.43542524569E+02 -0.31665719609E+03  0.22229347539E+03  0.38933548577E+03  0.00000000000E+00 0. -1.
         22    1    1    2    0    0 -0.47752473323E+02  0.64042911991E+03  0.32531793393E+03  0.71990382307E+03  0.00000000000E+00 0. -1.
<mgrwt>
<rscale>  0 0.12908793E+04</rscale>
<asrwt>0</asrwt>
<pdfrwt beam="1">  1        2 0.16457585E+00 0.12908793E+04</pdfrwt>
<pdfrwt beam="2">  1       -2 0.59912642E-01 0.12908793E+04</pdfrwt>
<totfact> 0.57971761E+01</totfact>
</mgrwt>
</event>
<event>
 6    1  0.5026615E-004  0.2395785E+04  0.7818608E-02  0.8441083E-01
         -2   -1    0    0    0  501 -0.00000000000E+00  0.00000000000E+00  0.67373161300E+03  0.67373161300E+03  0.00000000000E+00 0. -1.
          2   -1    0    0  501    0  0.00000000000E+00 -0.00000000000E+00 -0.21298488534E+04  0.21298488534E+04  0.00000000000E+00 0.  1.
         23    2    1    2    0    0 -0.50787610044E+03  0.56068296573E+03 -0.18134202193E+04  0.19669390018E+04  0.89736412015E+02 0.  0.
         11    1    3    3    0    0 -0.33628597152E+02  0.20496148657E+02 -0.14505532502E+03  0.15030642692E+03  0.00000000000E+00 0. -1.
        -11    1    3    3    0    0 -0.47424750329E+03  0.54018681707E+03 -0.16683648943E+04  0.18166325749E+04  0.00000000000E+00 0.  1.
         22    1    1    2    0    0  0.50787610044E+03 -0.56068296573E+03  0.35730297892E+03  0.83664146455E+03  0.00000000000E+00 0. -1.
<mgrwt>
<rscale>  0 0.23957851E+04</rscale>
<asrwt>0</asrwt>
<pdfrwt beam="1">  1        2 0.32766905E+00 0.23957851E+04</pdfrwt>
<pdfrwt beam="2">  1       -2 0.10365102E+00 0.23957851E+04</pdfrwt>
<totfact> 0.38561515E+00</totfact>
</mgrwt>
</event>
<event>
 6    1  0.5026615E-004  0.1875037E+04  0.7818608E-02  0.8667383E-01
          2   -1    0    0  501    0  0.00000000000E+00  0.00000000000E+00  0.13892910003E+04  0.13892910003E+04  0.00000000000E+00 0.  1.
         -2   -1    0    0    0  501 -0.00000000000E+00 -0.00000000000E+00 -0.63265461910E+03  0.63265461910E+03  0.00000000000E+00 0. -1.
         23    2    1    2    0    0 -0.68434910983E+03  0.95348940567E+02 -0.30045674057E+03  0.75906360089E+03  0.92076993076E+02 0.  0.
         13    1    3    3    0    0 -0.59076512560E+03  0.10678255236E+03 -0.23704567639E+03  0.64544294853E+03  0.00000000000E+00 0.  1.
        -13    1    3    3    0    0 -0.93583984228E+02 -0.11433611791E+02 -0.63411064172E+02  0.11362065236E+03  0.00000000000E+00 0. -1.
         22    1    1    2    0    0  0.68434910983E+03 -0.95348940567E+02  0.10570931217E+04  0.12628820185E+04  0.00000000000E+00 0.  1.
<mgrwt>
<rscale>  0 0.18750375E+04</rscale>
<asrwt>0</asrwt>
<pdfrwt beam="1">  1        2 0.21373708E+00 0.18750375E+04</pdfrwt>
<pdfrwt beam="2">  1       -2 0.97331480E-01 0.18750375E+04</pdfrwt>
<totfact> 0.12128460E+01</totfact>
</mgrwt>
</event>
<event>
 6    1  0.5026615E-004  0.7848482E+03  0.7818608E-02  0.9582211E-01
         -2   -1    0    0    0  501 -0.00000000000E+00  0.00000000000E+00  0.55566476432E+02  0.55566476432E+02  0.00000000000E+00 0. -1.
          2   -1    0    0  501    0  0.00000000000E+00 -0.00000000000E+00 -0.27713955047E+04  0.27713955047E+04  0.00000000000E+00 0.  1.
         23    2    1    2    0    0 -0.12783463015E+03  0.36072263530E+03 -0.15846471941E+04  0.16327949685E+04  0.91924789147E+02 0.  0.
         11    1    3    3    0    0 -0.12928783619E+02  0.13145972595E+03 -0.66887397040E+03  0.68179263803E+03  0.00000000000E+00 0.  1.
        -11    1    3    3    0    0 -0.11490584653E+03  0.22926290935E+03 -0.91577322373E+03  0.95100233042E+03  0.00000000000E+00 0. -1.
         22    1    1    2    0    0  0.12783463015E+03 -0.36072263530E+03 -0.11311818341E+04  0.11941670127E+04  0.00000000000E+00 0.  1.
<mgrwt>
<rscale>  0 0.78484822E+03</rscale>
<asrwt>0</asrwt>
<pdfrwt beam="1">  1        2 0.42636864E+00 0.78484822E+03</pdfrwt>
<pdfrwt beam="2">  1       -2 0.85486867E-02 0.78484822E+03</pdfrwt>
<totfact> 0.22206629E+02</totfact>
</mgrwt>
</event>
<event>
 6    1  0.5026615E-004  0.6042490E+04  0.7818608E-02  0.7685156E-01
          2   -1    0    0  501    0  0.00000000000E+00  0.00000000000E+00  0.29447268723E+04  0.29447268723E+04  0.00000000000E+00 0.  1.
         -2   -1    0    0    0  501 -0.00000000000E+00 -0.00000000000E+00 -0.30997509339E+04  0.30997509339E+04  0.00000000000E+00 0. -1.
         23    2    1    2    0    0 -0.24502549314E+04  0.13748580285E+04 -0.11868127490E+04  0.30513904833E+04  0.92062766177E+02 0.  0.
         13    1    3    3    0    0 -0.93593096614E+03  0.51281268078E+03 -0.40385802277E+03  0.11410718301E+04  0.00000000000E+00 0. -1.
        -13    1    3    3    0    0 -0.15143239653E+04  0.86204534767E+03 -0.78295472627E+03  0.19103186532E+04  0.00000000000E+00 0.  1.
         22    1    1    2    0    0  0.24502549314E+04 -0.13748580285E+04  0.10317886874E+04  0.29930873229E+04  0.00000000000E+00 0.  1.
<mgrwt>
<rscale>  0 0.60424895E+04</rscale>
<asrwt>0</asrwt>
<pdfrwt beam="1">  1        2 0.45303491E+00 0.60424895E+04</pdfrwt>
<pdfrwt beam="2">  1       -2 0.47688476E+00 0.60424895E+04</pdfrwt>
<totfact> 0.29481791E-03</totfact>
</mgrwt>
</event>
<event>
 6    1  0.5026615E-004  0.8200863E+03  0.7818608E-02  0.9531390E-01
         -2   -1    0    0    0  501 -0.00000000000E+00  0.00000000000E+00  0.64018619344E+02  0.64018619344E+02  0.00000000000E+00 0. -1.
          2   -1    0    0  501    0  0.00000000000E+00 -0.00000000000E+00 -0.26263512501E+04  0.26263512501E+04  0.00000000000E+00 0.  1.
         23    2    1    2    0    0 -0.24001705391E+03  0.74281107112E+02 -0.23392634797E+04  0.23543851745E+04  0.88600528702E+02 0.  0.
         11    1    3    3    0    0 -0.14498607671E+03  0.85080175550E+02 -0.16444004049E+04  0.16529707470E+04  0.00000000000E+00 0.  1.
        -11    1    3    3    0    0 -0.95030977198E+02 -0.10799068438E+02 -0.69486307473E+03  0.70141442752E+03  0.00000000000E+00 0. -1.
         22    1    1    2    0    0  0.24001705391E+03 -0.74281107112E+02 -0.22306915105E+03  0.33598469488E+03  0.00000000000E+00 0. -1.
<mgrwt>
<rscale>  0 0.82008629E+03</rscale>
<asrwt>0</asrwt>
<pdfrwt beam="1">  1        2 0.40405405E+00 0.82008629E+03</pdfrwt>
<pdfrwt beam="2">  1       -2 0.98490180E-02 0.82008629E+03</pdfrwt>
<totfact> 0.21380028E+02</totfact>
</mgrwt>
</event>
<event>
 6    1  0.5026615E-004  0.2529567E+04  0.7818608E-02  0.8392527E-01
         -2   -1    0    0    0  501 -0.00000000000E+00  0.00000000000E+00  0.75264400276E+03  0.75264400276E+03  0.00000000000E+00 0. -1.
          2   -1    0    0  501    0  0.00000000000E+00 -0.00000000000E+00 -0.21254102996E+04  0.21254102996E+04  0.00000000000E+00 0.  1.
         23    2    1    2    0    0  0.15698496893E+03 -0.70068665960E+03 -0.18695303778E+04  0.20049101977E+04  0.94419235650E+02 0.  0.
         13    1    3    3    0    0  0.31137443981E+02 -0.34499841722E+03 -0.93367025525E+03  0.99585821975E+03  0.00000000000E+00 0. -1.
        -13    1    3    3    0    0  0.12584752495E+03 -0.35568824238E+03 -0.93586012255E+03  0.10090519780E+04  0.00000000000E+00 0.  1.
         22    1    1    2    0    0 -0.15698496893E+03  0.70068665960E+03  0.49676408092E+03  0.87314410466E+03  0.00000000000E+00 0. -1.
<mgrwt>
<rscale>  0 0.25295670E+04</rscale>
<asrwt>0</asrwt>
<pdfrwt beam="1">  1        2 0.32698619E+00 0.25295670E+04</pdfrwt>
<pdfrwt beam="2">  1       -2 0.11579139E+00 0.25295670E+04</pdfrwt>
<totfact> 0.29334643E+00</totfact>
</mgrwt>
</event>
<event>
 6    1  0.5026615E-004  0.4687413E+04  0.7818608E-02  0.7878623E-01
          2   -1    0    0  501    0  0.00000000000E+00  0.00000000000E+00  0.18526835534E+04  0.18526835534E+04  0.00000000000E+00 0.  1.
         -2   -1    0    0    0  501 -0.00000000000E+00 -0.00000000000E+00 -0.29648668732E+04  0.29648668732E+04  0.00000000000E+00 0. -1.
         23    2    1    2    0    0  0.16899452719E+04  0.10490549051E+04  0.71593052751E+03  0.21159894974E+04  0.91781354186E+02 0.  0.
         13    1    3    3    0    0  0.59914054524E+03  0.32159211004E+03  0.25309488843E+03  0.72556729580E+03  0.00000000000E+00 0. -1.
        -13    1    3    3    0    0  0.10908047266E+04  0.72746279509E+03  0.46283563908E+03  0.13904222016E+04  0.00000000000E+00 0.  1.
         22    1    1    2    0    0 -0.16899452719E+04 -0.10490549051E+04 -0.18281138473E+04  0.27015609293E+04  0.00000000000E+00 0. -1.
<mgrwt>
<rscale>  0 0.46874130E+04</rscale>
<asrwt>0</asrwt>
<pdfrwt beam="1">  1        2 0.28502824E+00 0.46874130E+04</pdfrwt>
<pdfrwt beam="2">  1       -2 0.45613337E+00 0.46874130E+04</pdfrwt>
<totfact> 0.19076841E-02</totfact>
</mgrwt>
</event>
<event>
 6    1  0.5026615E-004  0.2636841E+04  0.7818608E-02  0.8355794E-01
          2   -1    0    0  501    0  0.00000000000E+00  0.00000000000E+00  0.17350270016E+04  0.17350270016E+04  0.00000000000E+00 0.  1.
         -2   -1    0    0    0  501 -0.00000000000E+00 -0.00000000000E+00 -0.10018474138E+04  0.10018474138E+04  0.00000000000E+00 0. -1.
         23    2    1    2    0    0 -0.10652716437E+04 -0.49364417929E+02 -0.43489911561E+03  0.11552144084E+04  0.90236178024E+02 0.  0.
         11    1    3    3    0    0 -0.61695015073E+03 -0.50805674098E+02 -0.29372601491E+03  0.68518878919E+03  0.00000000000E+00 0.  1.
        -11    1    3    3    0    0 -0.44832149302E+03  0.14412561684E+01 -0.14117310070E+03  0.47002561918E+03  0.00000000000E+00 0. -1.
         22    1    1    2    0    0  0.10652716437E+04  0.49364417929E+02  0.11680787034E+04  0.15816600071E+04  0.00000000000E+00 0.  1.
<mgrwt>
<rscale>  0 0.26368408E+04</rscale>
<asrwt>0</asrwt>
<pdfrwt beam="1">  1        2 0.26692723E+00 0.26368408E+04</pdfrwt>
<pdfrwt beam="2">  1       -2 0.15413037E+00 0.26368408E+04</pdfrwt>
<totfact> 0.23048770E+00</totfact>
</mgrwt>
</event>
<event>
 6    1  0.5026615E-004  0.2250080E+04  0.7818608E-02  0.8497868E-01
          2   -1    0    0  501    0  0.00000000000E+00  0.00000000000E+00  0.16706559390E+04  0.16706559390E+04  0.00000000000E+00 0.  1.
         -2   -1    0    0    0  501 -0.00000000000E+00 -0.00000000000E+00 -0.75761550117E+03  0.75761550117E+03  0.00000000000E+00 0. -1.
         23    2    1    2    0    0 -0.10153224569E+04 -0.43448634939E+03  0.67798930808E+03  0.12991535929E+04  0.92046057679E+02 0.  0.
         11    1    3    3    0    0 -0.52029061832E+03 -0.26153887887E+03  0.39055074571E+03  0.70116674026E+03  0.00000000000E+00 0. -1.
        -11    1    3    3    0    0 -0.49503183863E+03 -0.17294747052E+03  0.28743856237E+03  0.59798685266E+03  0.00000000000E+00 0.  1.
         22    1    1    2    0    0  0.10153224569E+04  0.43448634939E+03  0.23505112976E+03  0.11291178473E+04  0.00000000000E+00 0. -1.
<mgrwt>
<rscale>  0 0.22500799E+04</rscale>
<asrwt>0</asrwt>
<pdfrwt beam="1">  1        2 0.25702399E+00 0.22500799E+04</pdfrwt>
<pdfrwt beam="2">  1       -2 0.11655623E+00 0.22500799E+04</pdfrwt>
<totfact> 0.52896308E+00</totfact>
</mgrwt>
</event>
<event>
 6    1  0.5026615E-004  0.1892502E+04  0.7818608E-02  0.8658597E-01
         -2   -1    0    0    0  501 -0.00000000000E+00  0.00000000000E+00  0.65455181048E+03  0.65455181048E+03  0.00000000000E+00 0. -1.
          2   -1    0    0  501    0  0.00000000000E+00 -0.00000000000E+00 -0.13679456668E+04  0.13679456668E+04  0.00000000000E+00 0.  1.
         23    2    1    2    0    0  0.27395020833E+03  0.35221960248E+02  0.60719517632E+03  0.67333303353E+03  0.91662908433E+02 0.  0.
         11    1    3    3    0    0  0.94848047659E+02 -0.21461717910E+02  0.14681916413E+03  0.17610401596E+03  0.00000000000E+00 0.  1.
        -11    1    3    3    0    0  0.17910216067E+03  0.56683678158E+02  0.46037601219E+03  0.49722901758E+03  0.00000000000E+00 0. -1.
         22    1    1    2    0    0 -0.27395020833E+03 -0.35221960248E+02 -0.13205890326E+04  0.13491644437E+04  0.00000000000E+00 0.  1.
<mgrwt>
<rscale>  0 0.18925024E+04</rscale>
<asrwt>0</asrwt>
<pdfrwt beam="1">  1        2 0.21045318E+00 0.18925024E+04</pdfrwt>
<pdfrwt beam="2">  1       -2 0.10070028E+00 0.18925024E+04</pdfrwt>
<totfact> 0.11495944E+01</totfact>
</mgrwt>
</event>
<event>
 6    1  0.5026615E-004  0.5626155E+04  0.7818608E-02  0.7738565E-01
         -2   -1    0    0    0  501 -0.00000000000E+00  0.00000000000E+00  0.31067167259E+04  0.31067167259E+04  0.00000000000E+00 0. -1.
          2   -1    0    0  501    0  0.00000000000E+00 -0.00000000000E+00 -0.25471926028E+04  0.25471926028E+04  0.00000000000E+00 0.  1.
         23    2    1    2    0    0  0.20948630997E+03 -0.12717050260E+04 -0.22321506518E+04  0.25790814902E+04  0.89702919366E+02 0.  0.
         13    1    3    3    0    0  0.18887304675E+03 -0.98845222703E+03 -0.16856891728E+04  0.19632266350E+04  0.00000000000E+00 0.  1.
        -13    1    3    3    0    0  0.20613263226E+02 -0.28325279898E+03 -0.54646147898E+03  0.61585485527E+03  0.00000000000E+00 0. -1.
         22    1    1    2    0    0 -0.20948630997E+03  0.12717050260E+04  0.27916747749E+04  0.30748278385E+04  0.00000000000E+00 0. -1.
<mgrwt>
<rscale>  0 0.56261553E+04</rscale>
<asrwt>0</asrwt>
<pdfrwt beam="1">  1        2 0.39187578E+00 0.56261553E+04</pdfrwt>
<pdfrwt beam="2">  1       -2 0.47795642E+00 0.56261553E+04</pdfrwt>
<totfact> 0.51908809E-03</totfact>
</mgrwt>
</event>
<event>
 6    1  0.5026615E-004  0.4335457E+04  0.7818608E-02  0.7940094E-01
         -2   -1    0    0    0  501 -0.00000000000E+00  0.00000000000E+00  0.10214521400E+04  0.10214521400E+04  0.00000000000E+00 0. -1.
          2   -1    0    0  501    0  0.00000000000E+00 -0.00000000000E+00 -0.46003582469E+04  0.46003582469E+04  0.00000000000E+00 0.  1.
         23    2    1    2    0    0  0.28797159681E+03 -0.17107997125E+04 -0.34735625941E+04  0.38837480886E+04  0.89993468660E+02 0.  0.
         13    1    3    3    0    0  0.39085926914E+02 -0.46495251630E+03 -0.91109688013E+03  0.10236239920E+04  0.00000000000E+00 0. -1.
        -13    1    3    3    0    0  0.24888566989E+03 -0.12458471962E+04 -0.25624657139E+04  0.28601240966E+04  0.00000000000E+00 0.  1.
         22    1    1    2    0    0 -0.28797159681E+03  0.17107997125E+04 -0.10534351283E+03  0.17380622982E+04  0.00000000000E+00 0. -1.
<mgrwt>
<rscale>  0 0.43354565E+04</rscale>
<asrwt>0</asrwt>
<pdfrwt beam="1">  1        2 0.70774741E+00 0.43354565E+04</pdfrwt>
<pdfrwt beam="2">  1       -2 0.15714649E+00 0.43354565E+04</pdfrwt>
<totfact> 0.19649343E-02</totfact>
</mgrwt>
</event>
<event>
 6    1  0.5026615E-004  0.2884691E+04  0.7818608E-02  0.8277447E-01
         -1   -1    0    0    0  501 -0.00000000000E+00  0.00000000000E+00  0.49522539989E+03  0.49522539989E+03  0.00000000000E+00 0. -1.
          1   -1    0    0  501    0  0.00000000000E+00 -0.00000000000E+00 -0.42008346703E+04  0.42008346703E+04  0.00000000000E+00 0.  1.
         23    2    1    2    0    0 -0.26542073639E+03 -0.10880992218E+04 -0.38072120736E+03  0.11876004772E+04  0.10506270431E+03 0.  0.
         13    1    3    3    0    0 -0.42340104058E+02 -0.38285148243E+03 -0.13548546521E+03  0.40831881330E+03  0.00000000000E+00 0.  1.
        -13    1    3    3    0    0 -0.22308063233E+03 -0.70524773940E+03 -0.24523574215E+03  0.77928166389E+03  0.00000000000E+00 0. -1.
         22    1    1    2    0    0  0.26542073639E+03  0.10880992218E+04 -0.33248880631E+04  0.35084595930E+04  0.00000000000E+00 0.  1.
<mgrwt>
<rscale>  0 0.28846906E+04</rscale>
<asrwt>0</asrwt>
<pdfrwt beam="1">  1        1 0.64628224E+00 0.28846906E+04</pdfrwt>
<pdfrwt beam="2">  1       -1 0.76188525E-01 0.28846906E+04</pdfrwt>
<totfact> 0.93880358E-02</totfact>
</mgrwt>
</event>
<event>
 6    1  0.5026615E-004  0.1996269E+04  0.7818608E-02  0.8608367E-01
         -1   -1    0    0    0  501 -0.00000000000E+00  0.00000000000E+00  0.50151061137E+03  0.50151061137E+03  0.00000000000E+00 0. -1.
          1   -1    0    0  501    0  0.00000000000E+00 -0.00000000000E+00 -0.19865437930E+04  0.19865437930E+04  0.00000000000E+00 0.  1.
         23    2    1    2    0    0  0.57732868272E+02  0.47940447846E+03  0.34172196226E+03  0.59855815040E+03  0.91302912758E+02 0.  0.
         13    1    3    3    0    0  0.25528976251E+02  0.14052278691E+03  0.15313750397E+03  0.20940266806E+03  0.00000000000E+00 0.  1.
        -13    1    3    3    0    0  0.32203892021E+02  0.33888169155E+03  0.18858445830E+03  0.38915548235E+03  0.00000000000E+00 0. -1.
         22    1    1    2    0    0 -0.57732868272E+02 -0.47940447846E+03 -0.18267551439E+04  0.18894962540E+04  0.00000000000E+00 0.  1.
<mgrwt>
<rscale>  0 0.19962693E+04</rscale>
<asrwt>0</asrwt>
<pdfrwt beam="1">  1        1 0.30562212E+00 0.19962693E+04</pdfrwt>
<pdfrwt beam="2">  1       -1 0.77155478E-01 0.19962693E+04</pdfrwt>
<totfact> 0.47566914E+00</totfact>
</mgrwt>
</event>
<event>
 6    1  0.5026615E-004  0.2831840E+04  0.7818608E-02  0.8293451E-01
          2   -1    0    0  501    0  0.00000000000E+00  0.00000000000E+00  0.26569938261E+04  0.26569938261E+04  0.00000000000E+00 0.  1.
         -2   -1    0    0    0  501 -0.00000000000E+00 -0.00000000000E+00 -0.75454811952E+03  0.75454811952E+03  0.00000000000E+00 0. -1.
         23    2    1    2    0    0  0.91726657236E+03  0.36955257031E+03  0.21705190068E+04  0.23869394074E+04  0.91541840198E+02 0.  0.
         13    1    3    3    0    0  0.38379910491E+03  0.13466363104E+03  0.79475982417E+03  0.89279293488E+03  0.00000000000E+00 0. -1.
        -13    1    3    3    0    0  0.53346746745E+03  0.23488893927E+03  0.13757591827E+04  0.14941464725E+04  0.00000000000E+00 0.  1.
         22    1    1    2    0    0 -0.91726657236E+03 -0.36955257031E+03 -0.26807330027E+03  0.10246025382E+04  0.00000000000E+00 0.  1.
<mgrwt>
<rscale>  0 0.28318402E+04</rscale>
<asrwt>0</asrwt>
<pdfrwt beam="1">  1        2 0.40876828E+00 0.28318402E+04</pdfrwt>
<pdfrwt beam="2">  1       -2 0.11608433E+00 0.28318402E+04</pdfrwt>
<totfact> 0.14081793E+00</totfact>
</mgrwt>
</event>
<event>
 6    1  0.5026615E-004  0.3302972E+04  0.7818608E-02  0.8162140E-01
          2   -1    0    0  501    0  0.00000000000E+00  0.00000000000E+00  0.19724147955E+04  0.19724147955E+04  0.00000000000E+00 0.  1.
         -2   -1    0    0    0  501 -0.00000000000E+00 -0.00000000000E+00 -0.13827750620E+04  0.13827750620E+04  0.00000000000E+00 0. -1.
         23    2    1    2    0    0  0.54477650598E+03 -0.85497775417E+03  0.16179422610E+04  0.19111765301E+04  0.84203133474E+02 0.  0.
         13    1    3    3    0    0  0.98647269501E+02 -0.19300694337E+03  0.39971586447E+03  0.45470400952E+03  0.00000000000E+00 0. -1.
        -13    1    3    3    0    0  0.44612923648E+03 -0.66197081080E+03  0.12182263965E+04  0.14564725206E+04  0.00000000000E+00 0.  1.
         22    1    1    2    0    0 -0.54477650598E+03  0.85497775417E+03 -0.10283025275E+04  0.14440133274E+04  0.00000000000E+00 0. -1.
<mgrwt>
<rscale>  0 0.33029720E+04</rscale>
<asrwt>0</asrwt>
<pdfrwt beam="1">  1        2 0.30344843E+00 0.33029720E+04</pdfrwt>
<pdfrwt beam="2">  1       -2 0.21273463E+00 0.33029720E+04</pdfrwt>
<totfact> 0.63558937E-01</totfact>
</mgrwt>
</event>
<event>
 6    1  0.5026615E-004  0.2390963E+04  0.7818608E-02  0.8442895E-01
         -4   -1    0    0    0  501 -0.00000000000E+00  0.00000000000E+00  0.24017317540E+04  0.24017317540E+04  0.00000000000E+00 0. -1.
          4   -1    0    0  501    0  0.00000000000E+00 -0.00000000000E+00 -0.59506049903E+03  0.59506049903E+03  0.00000000000E+00 0.  1.
         23    2    1    2    0    0 -0.96993273053E+03 -0.69100630674E+03  0.10128959869E+04  0.15655905224E+04  0.82802087579E+02 0.  0.
         13    1    3    3    0    0 -0.59578254323E+03 -0.43149256535E+03  0.57283492349E+03  0.93235321759E+03  0.00000000000E+00 0.  1.
        -13    1    3    3    0    0 -0.37415018730E+03 -0.25951374139E+03  0.44006106340E+03  0.63323730476E+03  0.00000000000E+00 0. -1.
         22    1    1    2    0    0  0.96993273053E+03  0.69100630674E+03  0.79377526809E+03  0.14312017307E+04  0.00000000000E+00 0. -1.
<mgrwt>
<rscale>  0 0.23909627E+04</rscale>
<asrwt>0</asrwt>
<pdfrwt beam="1">  1        4 0.91547771E-01 0.23909627E+04</pdfrwt>
<pdfrwt beam="2">  1       -4 0.36949719E+00 0.23909627E+04</pdfrwt>
<totfact> 0.20153806E-02</totfact>
</mgrwt>
</event>
<event>
 6    1  0.5026615E-004  0.4565507E+03  0.7818608E-02  0.1025786E+00
         -1   -1    0    0    0  501 -0.00000000000E+00  0.00000000000E+00  0.22236370287E+02  0.22236370287E+02  0.00000000000E+00 0. -1.
          1   -1    0    0  501    0  0.00000000000E+00 -0.00000000000E+00 -0.23434418051E+04  0.23434418051E+04  0.00000000000E+00 0.  1.
         23    2    1    2    0    0  0.76159474100E+02  0.46838121735E+02 -0.22443727804E+04  0.22477912299E+04  0.85803033243E+02 0.  0.
         13    1    3    3    0    0  0.89381890194E+02  0.49391877371E+02 -0.15879384919E+04  0.15912188203E+04  0.00000000000E+00 0. -1.
        -13    1    3    3    0    0 -0.13222416094E+02 -0.25537556363E+01 -0.65643428849E+03  0.65657240961E+03  0.00000000000E+00 0.  1.
         22    1    1    2    0    0 -0.76159474100E+02 -0.46838121735E+02 -0.76832654442E+02  0.11788694555E+03  0.00000000000E+00 0. -1.
<mgrwt>
<rscale>  0 0.45655072E+03</rscale>
<asrwt>0</asrwt>
<pdfrwt beam="1">  1        1 0.36052955E+00 0.45655072E+03</pdfrwt>
<pdfrwt beam="2">  1       -1 0.34209796E-02 0.45655072E+03</pdfrwt>
<totfact> 0.61140253E+02</totfact>
</mgrwt>
</event>
<event>
 6    1  0.5026615E-004  0.3701210E+04  0.7818608E-02  0.8067694E-01
         -2   -1    0    0    0  501 -0.00000000000E+00  0.00000000000E+00  0.12701919817E+04  0.12701919817E+04  0.00000000000E+00 0. -1.
          2   -1    0    0  501    0  0.00000000000E+00 -0.00000000000E+00 -0.26962369319E+04  0.26962369319E+04  0.00000000000E+00 0.  1.
         23    2    1    2    0    0  0.35129084212E+03  0.37849130394E+03  0.11896529719E+04  0.13002450223E+04  0.93284520264E+02 0.  0.
         11    1    3    3    0    0  0.17948087275E+03  0.25524016908E+03  0.66407448411E+03  0.73372736629E+03  0.00000000000E+00 0. -1.
        -11    1    3    3    0    0  0.17180996937E+03  0.12325113486E+03  0.52557848775E+03  0.56651765604E+03  0.00000000000E+00 0.  1.
         22    1    1    2    0    0 -0.35129084212E+03 -0.37849130394E+03 -0.26156979221E+04  0.26661838913E+04  0.00000000000E+00 0.  1.
<mgrwt>
<rscale>  0 0.37012098E+04</rscale>
<asrwt>0</asrwt>
<pdfrwt beam="1">  1        2 0.41480568E+00 0.37012098E+04</pdfrwt>
<pdfrwt beam="2">  1       -2 0.19541415E+00 0.37012098E+04</pdfrwt>
<totfact> 0.30762714E-01</totfact>
</mgrwt>
</event>
<event>
 6    1  0.5026615E-004  0.3956385E+04  0.7818608E-02  0.8013403E-01
         -2   -1    0    0    0  501 -0.00000000000E+00  0.00000000000E+00  0.10900728323E+04  0.10900728323E+04  0.00000000000E+00 0. -1.
          2   -1    0    0  501    0  0.00000000000E+00 -0.00000000000E+00 -0.35898939611E+04  0.35898939611E+04  0.00000000000E+00 0.  1.
         23    2    1    2    0    0 -0.87049379154E+03  0.17076012067E+04 -0.67621531322E+03  0.20343667682E+04  0.87861682557E+02 0.  0.
         13    1    3    3    0    0 -0.26606802688E+03  0.47340581628E+03 -0.15686806136E+03  0.56525467755E+03  0.00000000000E+00 0. -1.
        -13    1    3    3    0    0 -0.60442576466E+03  0.12341953905E+04 -0.51934725186E+03  0.14691120906E+04  0.00000000000E+00 0.  1.
         22    1    1    2    0    0  0.87049379154E+03 -0.17076012067E+04 -0.18236058156E+04  0.26456000252E+04  0.00000000000E+00 0.  1.
<mgrwt>
<rscale>  0 0.39563852E+04</rscale>
<asrwt>0</asrwt>
<pdfrwt beam="1">  1        2 0.55229137E+00 0.39563852E+04</pdfrwt>
<pdfrwt beam="2">  1       -2 0.16770351E+00 0.39563852E+04</pdfrwt>
<totfact> 0.12276002E-01</totfact>
</mgrwt>
</event>
<event>
 6    1  0.5026615E-004  0.1160089E+04  0.7818608E-02  0.9148527E-01
         -2   -1    0    0    0  501 -0.00000000000E+00  0.00000000000E+00  0.11325782889E+03  0.11325782889E+03  0.00000000000E+00 0. -1.
          2   -1    0    0  501    0  0.00000000000E+00 -0.00000000000E+00 -0.29706677740E+04  0.29706677740E+04  0.00000000000E+00 0.  1.
         23    2    1    2    0    0 -0.44625757084E+03 -0.15478763515E+03 -0.23160234974E+04  0.23654520005E+04  0.91067528551E+02 0.  0.
         13    1    3    3    0    0 -0.10403352800E+03 -0.20183369283E+02 -0.36497492314E+03  0.38004873090E+03  0.00000000000E+00 0.  1.
        -13    1    3    3    0    0 -0.34222404284E+03 -0.13460426587E+03 -0.19510485743E+04  0.19854032696E+04  0.00000000000E+00 0. -1.
         22    1    1    2    0    0  0.44625757084E+03  0.15478763515E+03 -0.54138644775E+03  0.71847360240E+03  0.00000000000E+00 0. -1.
<mgrwt>
<rscale>  0 0.11600886E+04</rscale>
<asrwt>0</asrwt>
<pdfrwt beam="1">  1        2 0.45702587E+00 0.11600886E+04</pdfrwt>
<pdfrwt beam="2">  1       -2 0.17424279E-01 0.11600886E+04</pdfrwt>
<totfact> 0.49596436E+01</totfact>
</mgrwt>
</event>
<event>
 6    1  0.5026615E-004  0.1376017E+04  0.7818608E-02  0.8971364E-01
         -2   -1    0    0    0  501 -0.00000000000E+00  0.00000000000E+00  0.21584375906E+03  0.21584375906E+03  0.00000000000E+00 0. -1.
          2   -1    0    0  501    0  0.00000000000E+00 -0.00000000000E+00 -0.21930470422E+04  0.21930470422E+04  0.00000000000E+00 0.  1.
         23    2    1    2    0    0 -0.35745406425E+03 -0.34325591073E+03 -0.16464680312E+03  0.52980617794E+03  0.89375545359E+02 0.  0.
         11    1    3    3    0    0 -0.11917565489E+03 -0.82123064254E+02 -0.13555520877E+02  0.14536432350E+03  0.00000000000E+00 0. -1.
        -11    1    3    3    0    0 -0.23827840936E+03 -0.26113284648E+03 -0.15109128224E+03  0.38444185444E+03  0.00000000000E+00 0.  1.
         22    1    1    2    0    0  0.35745406425E+03  0.34325591073E+03 -0.18125564800E+04  0.18790846233E+04  0.00000000000E+00 0.  1.
<mgrwt>
<rscale>  0 0.13760167E+04</rscale>
<asrwt>0</asrwt>
<pdfrwt beam="1">  1        2 0.33739186E+00 0.13760167E+04</pdfrwt>
<pdfrwt beam="2">  1       -2 0.33206732E-01 0.13760167E+04</pdfrwt>
<totfact> 0.43095052E+01</totfact>
</mgrwt>
</event>
<event>
 6    1  0.5224674E-004  0.2644535E+04  0.7818608E-02  0.8353229E-01
          2   -1    0    0  501    0  0.00000000000E+00  0.00000000000E+00  0.12980329559E+04  0.12980329559E+04  0.00000000000E+00 0.  1.
         -2   -1    0    0    0  501 -0.00000000000E+00 -0.00000000000E+00 -0.13469542904E+04  0.13469542904E+04  0.00000000000E+00 0. -1.
         23    2    1    2    0    0  0.21221356435E+03  0.55703570065E+03 -0.12032058832E+04  0.13458736300E+04  0.91367728741E+02 0.  0.
         11    1    3    3    0    0  0.13433256331E+03  0.25882060971E+03 -0.51559005421E+03  0.59233980921E+03  0.00000000000E+00 0. -1.
        -11    1    3    3    0    0  0.77881001033E+02  0.29821509094E+03 -0.68761582895E+03  0.75353382075E+03  0.00000000000E+00 0.  1.
         22    1    1    2    0    0 -0.21221356435E+03 -0.55703570065E+03  0.11542845487E+04  0.12991136163E+04  0.00000000000E+00 0.  1.
<mgrwt>
<rscale>  0 0.26445348E+04</rscale>
<asrwt>0</asrwt>
<pdfrwt beam="1">  1        2 0.19969738E+00 0.26445348E+04</pdfrwt>
<pdfrwt beam="2">  1       -2 0.20722374E+00 0.26445348E+04</pdfrwt>
<totfact> 0.17432415E+00</totfact>
</mgrwt>
</event>
<event>
 6    1  0.7076904E-004  0.2754286E+04  0.7818608E-02  0.8317603E-01
         -2   -1    0    0    0  501 -0.00000000000E+00  0.00000000000E+00  0.91467788376E+03  0.91467788376E+03  0.00000000000E+00 0. -1.
          2   -1    0    0  501    0  0.00000000000E+00 -0.00000000000E+00 -0.20734327728E+04  0.20734327728E+04  0.00000000000E+00 0.  1.
         23    2    1    2    0    0  0.51570084624E+03  0.29199362698E+03  0.76694581265E+03  0.97328291367E+03  0.88691090267E+02 0.  0.
         13    1    3    3    0    0  0.26188613242E+03  0.11353223097E+03  0.31507202222E+03  0.42514032155E+03  0.00000000000E+00 0. -1.
        -13    1    3    3    0    0  0.25381471382E+03  0.17846139601E+03  0.45187379043E+03  0.54814259212E+03  0.00000000000E+00 0.  1.
         22    1    1    2    0    0 -0.51570084624E+03 -0.29199362698E+03 -0.19257007017E+04  0.20148277429E+04  0.00000000000E+00 0.  1.
<mgrwt>
<rscale>  0 0.27542862E+04</rscale>
<asrwt>0</asrwt>
<pdfrwt beam="1">  1        2 0.31898966E+00 0.27542862E+04</pdfrwt>
<pdfrwt beam="2">  1       -2 0.14071968E+00 0.27542862E+04</pdfrwt>
<totfact> 0.18820926E+00</totfact>
</mgrwt>
</event>
<event>
 6    1  0.5026615E-004  0.3088334E+04  0.7818608E-02  0.8218947E-01
         -1   -1    0    0    0  501 -0.00000000000E+00  0.00000000000E+00  0.14612236592E+04  0.14612236592E+04  0.00000000000E+00 0.  1.
          1   -1    0    0  501    0  0.00000000000E+00 -0.00000000000E+00 -0.16318186031E+04  0.16318186031E+04  0.00000000000E+00 0. -1.
         23    2    1    2    0    0 -0.43568173557E+03 -0.13528381786E+04  0.51593052158E+03  0.15146548173E+04  0.89471785152E+02 0.  0.
         13    1    3    3    0    0 -0.10849451107E+03 -0.42893711027E+03  0.19291768335E+03  0.48267518690E+03  0.00000000000E+00 0. -1.
        -13    1    3    3    0    0 -0.32718722450E+03 -0.92390106828E+03  0.32301283823E+03  0.10319796304E+04  0.00000000000E+00 0.  1.
         22    1    1    2    0    0  0.43568173557E+03  0.13528381786E+04 -0.68652546550E+03  0.15783874451E+04  0.00000000000E+00 0. -1.
<mgrwt>
<rscale>  0 0.30883341E+04</rscale>
<asrwt>0</asrwt>
<pdfrwt beam="1">  1        1 0.25104902E+00 0.30883341E+04</pdfrwt>
<pdfrwt beam="2">  1       -1 0.22480364E+00 0.30883341E+04</pdfrwt>
<totfact> 0.45812933E-01</totfact>
</mgrwt>
</event>
<event>
 6    1  0.5026615E-004  0.1104467E+04  0.7818608E-02  0.9200849E-01
         -2   -1    0    0    0  501 -0.00000000000E+00  0.00000000000E+00  0.27587007723E+03  0.27587007723E+03  0.00000000000E+00 0. -1.
          2   -1    0    0  501    0  0.00000000000E+00 -0.00000000000E+00 -0.11054545993E+04  0.11054545993E+04  0.00000000000E+00 0.  1.
         23    2    1    2    0    0 -0.21212356979E+03  0.14956872160E+03 -0.10219444442E+04  0.10582619101E+04  0.90446735569E+02 0.  0.
         13    1    3    3    0    0 -0.15416939387E+03  0.10432388043E+03 -0.55056302535E+03  0.58118096916E+03  0.00000000000E+00 0. -1.
        -13    1    3    3    0    0 -0.57954175924E+02  0.45244841170E+02 -0.47138141887E+03  0.47708094095E+03  0.00000000000E+00 0.  1.
         22    1    1    2    0    0  0.21212356979E+03 -0.14956872160E+03  0.19235992220E+03  0.32306276637E+03  0.00000000000E+00 0. -1.
<mgrwt>
<rscale>  0 0.11044670E+04</rscale>
<asrwt>0</asrwt>
<pdfrwt beam="1">  1        2 0.17006994E+00 0.11044670E+04</pdfrwt>
<pdfrwt beam="2">  1       -2 0.42441550E-01 0.11044670E+04</pdfrwt>
<totfact> 0.11284784E+02</totfact>
</mgrwt>
</event>
<event>
 6    1  0.5026615E-004  0.3163380E+04  0.7818608E-02  0.8198556E-01
          2   -1    0    0  501    0  0.00000000000E+00  0.00000000000E+00  0.52464941827E+04  0.52464941827E+04  0.00000000000E+00 0.  1.
         -2   -1    0    0    0  501 -0.00000000000E+00 -0.00000000000E+00 -0.47684100285E+03  0.47684100285E+03  0.00000000000E+00 0. -1.
         23    2    1    2    0    0  0.13217863091E+04 -0.50147243180E+03  0.36648194925E+04  0.39291080195E+04  0.91620246347E+02 0.  0.
         13    1    3    3    0    0  0.22380922762E+03 -0.89395535687E+02  0.53472020345E+03  0.58652180535E+03  0.00000000000E+00 0. -1.
        -13    1    3    3    0    0  0.10979770815E+04 -0.41207689612E+03  0.31300992891E+04  0.33425862142E+04  0.00000000000E+00 0.  1.
         22    1    1    2    0    0 -0.13217863091E+04  0.50147243180E+03  0.11048336874E+04  0.17942271661E+04  0.00000000000E+00 0. -1.
<mgrwt>
<rscale>  0 0.31633802E+04</rscale>
<asrwt>0</asrwt>
<pdfrwt beam="1">  1        2 0.80715291E+00 0.31633802E+04</pdfrwt>
<pdfrwt beam="2">  1       -2 0.73360158E-01 0.31633802E+04</pdfrwt>
<totfact> 0.22225370E-02</totfact>
</mgrwt>
</event>
<event>
 6    1  0.5026615E-004  0.2994919E+04  0.7818608E-02  0.8245183E-01
          2   -1    0    0  501    0  0.00000000000E+00  0.00000000000E+00  0.38155502610E+04  0.38155502610E+04  0.00000000000E+00 0.  1.
         -2   -1    0    0    0  501 -0.00000000000E+00 -0.00000000000E+00 -0.58769646352E+03  0.58769646352E+03  0.00000000000E+00 0. -1.
         23    2    1    2    0    0  0.12866266412E+04 -0.72514917467E+03  0.19714495101E+04  0.24642260509E+04  0.67434557910E+02 0.  0.
         13    1    3    3    0    0  0.42851478094E+03 -0.26611729888E+03  0.63382414948E+03  0.81004715092E+03  0.00000000000E+00 0. -1.
        -13    1    3    3    0    0  0.85811186028E+03 -0.45903187579E+03  0.13376253606E+04  0.16541789000E+04  0.00000000000E+00 0.  1.
         22    1    1    2    0    0 -0.12866266412E+04  0.72514917467E+03  0.12564042874E+04  0.19390206737E+04  0.00000000000E+00 0.  1.
<mgrwt>
<rscale>  0 0.29949193E+04</rscale>
<asrwt>0</asrwt>
<pdfrwt beam="1">  1        2 0.58700772E+00 0.29949193E+04</pdfrwt>
<pdfrwt beam="2">  1       -2 0.90414843E-01 0.29949193E+04</pdfrwt>
<totfact> 0.42763563E-01</totfact>
</mgrwt>
</event>
<event>
 6    1  0.5026615E-004  0.3398861E+03  0.7818608E-02  0.1066844E+00
         -2   -1    0    0    0  501 -0.00000000000E+00  0.00000000000E+00  0.10534401028E+03  0.10534401028E+03  0.00000000000E+00 0. -1.
          2   -1    0    0  501    0  0.00000000000E+00 -0.00000000000E+00 -0.27415543149E+03  0.27415543149E+03  0.00000000000E+00 0.  1.
         23    2    1    2    0    0  0.78153792662E+02  0.34211230768E+02 -0.23905011361E+03  0.26899198715E+03  0.89069123225E+02 0.  0.
         13    1    3    3    0    0  0.38223047988E+02  0.48433381316E+02 -0.20657937245E+03  0.21559645392E+03  0.00000000000E+00 0. -1.
        -13    1    3    3    0    0  0.39930744674E+02 -0.14222150548E+02 -0.32470741167E+02  0.53395533225E+02  0.00000000000E+00 0.  1.
         22    1    1    2    0    0 -0.78153792662E+02 -0.34211230768E+02  0.70238692396E+02  0.11050745462E+03  0.00000000000E+00 0. -1.
<mgrwt>
<rscale>  0 0.33988605E+03</rscale>
<asrwt>0</asrwt>
<pdfrwt beam="1">  1        2 0.42177758E-01 0.33988605E+03</pdfrwt>
<pdfrwt beam="2">  1       -2 0.16206771E-01 0.33988605E+03</pdfrwt>
<totfact> 0.36366165E+03</totfact>
</mgrwt>
</event>
<event>
 6    1  0.5026615E-004  0.8098184E+03  0.7818608E-02  0.9545913E-01
         -1   -1    0    0    0  501 -0.00000000000E+00  0.00000000000E+00  0.15715090807E+04  0.15715090807E+04  0.00000000000E+00 0. -1.
          1   -1    0    0  501    0  0.00000000000E+00 -0.00000000000E+00 -0.10432739321E+03  0.10432739321E+03  0.00000000000E+00 0.  1.
         23    2    1    2    0    0  0.22134823051E+03  0.29544280161E+03  0.42605503998E+03  0.57119798811E+03  0.91993240795E+02 0.  0.
         13    1    3    3    0    0  0.15047913605E+03  0.13777622729E+03  0.19143403686E+03  0.27977356855E+03  0.00000000000E+00 0. -1.
        -13    1    3    3    0    0  0.70869094459E+02  0.15766657432E+03  0.23462100312E+03  0.29142441955E+03  0.00000000000E+00 0.  1.
         22    1    1    2    0    0 -0.22134823051E+03 -0.29544280161E+03  0.10411266475E+04  0.11046384858E+04  0.00000000000E+00 0. -1.
<mgrwt>
<rscale>  0 0.80981836E+03</rscale>
<asrwt>0</asrwt>
<pdfrwt beam="1">  1        1 0.16050369E-01 0.80981836E+03</pdfrwt>
<pdfrwt beam="2">  1       -1 0.24177061E+00 0.80981836E+03</pdfrwt>
<totfact> 0.28469765E+01</totfact>
</mgrwt>
</event>
<event>
 6    1  0.5026615E-004  0.2279155E+04  0.7818608E-02  0.8486186E-01
         -2   -1    0    0    0  501 -0.00000000000E+00  0.00000000000E+00  0.37224458530E+03  0.37224458530E+03  0.00000000000E+00 0. -1.
          2   -1    0    0  501    0  0.00000000000E+00 -0.00000000000E+00 -0.34886647888E+04  0.34886647888E+04  0.00000000000E+00 0.  1.
         23    2    1    2    0    0 -0.21543855740E+03 -0.11170278334E+04 -0.15565332625E+04  0.19302586492E+04  0.94539427485E+02 0.  0.
         13    1    3    3    0    0 -0.18428743543E+03 -0.89873072106E+03 -0.11912853882E+04  0.15036088734E+04  0.00000000000E+00 0. -1.
        -13    1    3    3    0    0 -0.31151121967E+02 -0.21829711230E+03 -0.36524787423E+03  0.42664977589E+03  0.00000000000E+00 0.  1.
         22    1    1    2    0    0  0.21543855740E+03  0.11170278334E+04 -0.15598869410E+04  0.19306507248E+04  0.00000000000E+00 0.  1.
<mgrwt>
<rscale>  0 0.22791547E+04</rscale>
<asrwt>0</asrwt>
<pdfrwt beam="1">  1        2 0.53671764E+00 0.22791547E+04</pdfrwt>
<pdfrwt beam="2">  1       -2 0.57268400E-01 0.22791547E+04</pdfrwt>
<totfact> 0.21543425E+00</totfact>
</mgrwt>
</event>
<event>
 6    1  0.5026615E-004  0.1648256E+04  0.7818608E-02  0.8791439E-01
          2   -1    0    0  501    0  0.00000000000E+00  0.00000000000E+00  0.30286464181E+04  0.30286464181E+04  0.00000000000E+00 0.  1.
         -2   -1    0    0    0  501 -0.00000000000E+00 -0.00000000000E+00 -0.22425421938E+03  0.22425421938E+03  0.00000000000E+00 0. -1.
         23    2    1    2    0    0  0.55967189951E+03  0.39699047565E+03  0.22981711377E+04  0.24002026631E+04  0.92456330662E+02 0.  0.
         11    1    3    3    0    0  0.26790047527E+03  0.16901621196E+03  0.12092750572E+04  0.12500733212E+04  0.00000000000E+00 0. -1.
        -11    1    3    3    0    0  0.29177142424E+03  0.22797426368E+03  0.10888960805E+04  0.11501293419E+04  0.00000000000E+00 0.  1.
         22    1    1    2    0    0 -0.55967189951E+03 -0.39699047565E+03  0.50622106104E+03  0.85269797437E+03  0.00000000000E+00 0. -1.
<mgrwt>
<rscale>  0 0.16482557E+04</rscale>
<asrwt>0</asrwt>
<pdfrwt beam="1">  1        2 0.46594557E+00 0.16482557E+04</pdfrwt>
<pdfrwt beam="2">  1       -2 0.34500651E-01 0.16482557E+04</pdfrwt>
<totfact> 0.12637838E+01</totfact>
</mgrwt>
</event>
<event>
 6    1  0.5026615E-004  0.3708494E+04  0.7818608E-02  0.8066082E-01
          2   -1    0    0  501    0  0.00000000000E+00  0.00000000000E+00  0.36284560594E+04  0.36284560594E+04  0.00000000000E+00 0.  1.
         -2   -1    0    0    0  501 -0.00000000000E+00 -0.00000000000E+00 -0.94757417483E+03  0.94757417483E+03  0.00000000000E+00 0. -1.
         23    2    1    2    0    0 -0.32483517554E+03  0.14915884334E+04  0.26375931011E+04  0.30488668950E+04  0.91312816181E+02 0.  0.
         13    1    3    3    0    0 -0.19300468460E+03  0.10164595949E+04  0.18500765243E+04  0.21197226380E+04  0.00000000000E+00 0. -1.
        -13    1    3    3    0    0 -0.13183049094E+03  0.47512883850E+03  0.78751657686E+03  0.92914425701E+03  0.00000000000E+00 0.  1.
         22    1    1    2    0    0  0.32483517554E+03 -0.14915884334E+04  0.43288783396E+02  0.15271633392E+04  0.00000000000E+00 0. -1.
<mgrwt>
<rscale>  0 0.37084936E+04</rscale>
<asrwt>0</asrwt>
<pdfrwt beam="1">  1        2 0.55822400E+00 0.37084936E+04</pdfrwt>
<pdfrwt beam="2">  1       -2 0.14578064E+00 0.37084936E+04</pdfrwt>
<totfact> 0.17151197E-01</totfact>
</mgrwt>
</event>
<event>
 6    1  0.5026615E-004  0.1104324E+04  0.7818608E-02  0.9200988E-01
         -2   -1    0    0    0  501 -0.00000000000E+00  0.00000000000E+00  0.20044125803E+03  0.20044125803E+03  0.00000000000E+00 0. -1.
          2   -1    0    0  501    0  0.00000000000E+00 -0.00000000000E+00 -0.15210577887E+04  0.15210577887E+04  0.00000000000E+00 0.  1.
         23    2    1    2    0    0 -0.21883879394E+03 -0.50148784386E+03 -0.60812581129E+03  0.82315417949E+03  0.91571423425E+02 0.  0.
         13    1    3    3    0    0 -0.15079424582E+03 -0.29213591671E+03 -0.30438498214E+03  0.44803182449E+03  0.00000000000E+00 0.  1.
        -13    1    3    3    0    0 -0.68044548122E+02 -0.20935192715E+03 -0.30374082915E+03  0.37512235500E+03  0.00000000000E+00 0. -1.
         22    1    1    2    0    0  0.21883879394E+03  0.50148784386E+03 -0.71249071939E+03  0.89834486723E+03  0.00000000000E+00 0. -1.
<mgrwt>
<rscale>  0 0.11043238E+04</rscale>
<asrwt>0</asrwt>
<pdfrwt beam="1">  1        2 0.23400889E+00 0.11043238E+04</pdfrwt>
<pdfrwt beam="2">  1       -2 0.30837117E-01 0.11043238E+04</pdfrwt>
<totfact> 0.11931883E+02</totfact>
</mgrwt>
</event>
<event>
 6    1  0.5026615E-004  0.4198291E+04  0.7818608E-02  0.7965697E-01
          2   -1    0    0  501    0  0.00000000000E+00  0.00000000000E+00  0.38691945187E+04  0.38691945187E+04  0.00000000000E+00 0.  1.
         -2   -1    0    0    0  501 -0.00000000000E+00 -0.00000000000E+00 -0.11388446131E+04  0.11388446131E+04  0.00000000000E+00 0. -1.
         23    2    1    2    0    0  0.18675498392E+04 -0.77486102863E+03  0.20341890430E+04  0.28696303864E+04  0.93281704295E+02 0.  0.
         11    1    3    3    0    0  0.60201687356E+03 -0.25814781887E+03  0.72064283871E+03  0.97385353798E+03  0.00000000000E+00 0.  1.
        -11    1    3    3    0    0  0.12655329656E+04 -0.51671320976E+03  0.13135462043E+04  0.18957768484E+04  0.00000000000E+00 0. -1.
         22    1    1    2    0    0 -0.18675498392E+04  0.77486102863E+03  0.69616086262E+03  0.21384087453E+04  0.00000000000E+00 0. -1.
<mgrwt>
<rscale>  0 0.41982908E+04</rscale>
<asrwt>0</asrwt>
<pdfrwt beam="1">  1        2 0.59526069E+00 0.41982908E+04</pdfrwt>
<pdfrwt beam="2">  1       -2 0.17520687E+00 0.41982908E+04</pdfrwt>
<totfact> 0.65839602E-02</totfact>
</mgrwt>
</event>
<event>
 6    1  0.5026615E-004  0.2205878E+04  0.7818608E-02  0.8515985E-01
         -2   -1    0    0    0  501 -0.00000000000E+00  0.00000000000E+00  0.80555390651E+03  0.80555390651E+03  0.00000000000E+00 0. -1.
          2   -1    0    0  501    0  0.00000000000E+00 -0.00000000000E+00 -0.15101094416E+04  0.15101094416E+04  0.00000000000E+00 0.  1.
         23    2    1    2    0    0 -0.77880933200E+03  0.77533911199E+03 -0.28110641964E+03  0.11379520645E+04  0.90660728574E+02 0.  0.
         13    1    3    3    0    0 -0.15923200891E+03  0.11234513992E+03 -0.38425313179E+02  0.19862720815E+03  0.00000000000E+00 0.  1.
        -13    1    3    3    0    0 -0.61957732309E+03  0.66299397207E+03 -0.24268110646E+03  0.93932485633E+03  0.00000000000E+00 0. -1.
         22    1    1    2    0    0  0.77880933200E+03 -0.77533911199E+03 -0.42344911545E+03  0.11777112836E+04  0.00000000000E+00 0.  1.
<mgrwt>
<rscale>  0 0.22058781E+04</rscale>
<asrwt>0</asrwt>
<pdfrwt beam="1">  1        2 0.23232453E+00 0.22058781E+04</pdfrwt>
<pdfrwt beam="2">  1       -2 0.12393137E+00 0.22058781E+04</pdfrwt>
<totfact> 0.56084192E+00</totfact>
</mgrwt>
</event>
<event>
 6    1  0.5026615E-004  0.3671885E+04  0.7818608E-02  0.8074221E-01
          2   -1    0    0  501    0  0.00000000000E+00  0.00000000000E+00  0.12539200147E+04  0.12539200147E+04  0.00000000000E+00 0.  1.
         -2   -1    0    0    0  501 -0.00000000000E+00 -0.00000000000E+00 -0.26881181764E+04  0.26881181764E+04  0.00000000000E+00 0. -1.
         23    2    1    2    0    0  0.81305337666E+03  0.14485432437E+04 -0.15539963410E+04  0.22765998326E+04  0.93106648194E+02 0.  0.
         13    1    3    3    0    0  0.36085449900E+03  0.73576692907E+03 -0.75176846588E+03  0.11120812783E+04  0.00000000000E+00 0.  1.
        -13    1    3    3    0    0  0.45219887766E+03  0.71277631462E+03 -0.80222787510E+03  0.11645185543E+04  0.00000000000E+00 0. -1.
         22    1    1    2    0    0 -0.81305337666E+03 -0.14485432437E+04  0.11979817923E+03  0.16654383585E+04  0.00000000000E+00 0.  1.
<mgrwt>
<rscale>  0 0.36718852E+04</rscale>
<asrwt>0</asrwt>
<pdfrwt beam="1">  1        2 0.19291077E+00 0.36718852E+04</pdfrwt>
<pdfrwt beam="2">  1       -2 0.41355664E+00 0.36718852E+04</pdfrwt>
<totfact> 0.86130484E-02</totfact>
</mgrwt>
</event>
<event>
 6    1  0.5026615E-004  0.2449339E+04  0.7818608E-02  0.8421259E-01
          2   -1    0    0  501    0  0.00000000000E+00  0.00000000000E+00  0.17745314098E+04  0.17745314098E+04  0.00000000000E+00 0.  1.
         -2   -1    0    0    0  501 -0.00000000000E+00 -0.00000000000E+00 -0.84518947622E+03  0.84518947622E+03  0.00000000000E+00 0. -1.
         23    2    1    2    0    0 -0.44237365403E+03 -0.86982810618E+03  0.12537738671E+04  0.15913476738E+04  0.90239263903E+02 0.  0.
         13    1    3    3    0    0 -0.27760612789E+03 -0.60893341651E+03  0.80724926795E+03  0.10485782987E+04  0.00000000000E+00 0.  1.
        -13    1    3    3    0    0 -0.16476752614E+03 -0.26089468968E+03  0.44652459919E+03  0.54276937501E+03  0.00000000000E+00 0. -1.
         22    1    1    2    0    0  0.44237365403E+03  0.86982810618E+03 -0.32443193360E+03  0.10283732122E+04  0.00000000000E+00 0. -1.
<mgrwt>
<rscale>  0 0.24493389E+04</rscale>
<asrwt>0</asrwt>
<pdfrwt beam="1">  1        2 0.27300483E+00 0.24493389E+04</pdfrwt>
<pdfrwt beam="2">  1       -2 0.13002915E+00 0.24493389E+04</pdfrwt>
<totfact> 0.34657825E+00</totfact>
</mgrwt>
</event>
<event>
 6    1  0.5026615E-004  0.8958394E+03  0.7818608E-02  0.9430797E-01
         -2   -1    0    0    0  501 -0.00000000000E+00  0.00000000000E+00  0.37773288942E+03  0.37773288942E+03  0.00000000000E+00 0. -1.
          2   -1    0    0  501    0  0.00000000000E+00 -0.00000000000E+00 -0.53114794709E+03  0.53114794709E+03  0.00000000000E+00 0.  1.
         23    2    1    2    0    0 -0.15412373135E+03  0.41535801623E+03 -0.62611587712E+02  0.45664010816E+03  0.91233608121E+02 0.  0.
         13    1    3    3    0    0 -0.78843371059E+02  0.11160275368E+03  0.39265806915E+01  0.13669992620E+03  0.00000000000E+00 0. -1.
        -13    1    3    3    0    0 -0.75280360295E+02  0.30375526256E+03 -0.66538168404E+02  0.31994018196E+03  0.00000000000E+00 0.  1.
         22    1    1    2    0    0  0.15412373135E+03 -0.41535801623E+03 -0.90803469951E+02  0.45224072834E+03  0.00000000000E+00 0.  1.
<mgrwt>
<rscale>  0 0.89583938E+03</rscale>
<asrwt>0</asrwt>
<pdfrwt beam="1">  1        2 0.81715068E-01 0.89583938E+03</pdfrwt>
<pdfrwt beam="2">  1       -2 0.58112753E-01 0.89583938E+03</pdfrwt>
<totfact> 0.15958659E+02</totfact>
</mgrwt>
</event>
<event>
 6    1  0.5026615E-004  0.1114427E+04  0.7818608E-02  0.9191244E-01
          2   -1    0    0  501    0  0.00000000000E+00  0.00000000000E+00  0.72192492870E+03  0.72192492870E+03  0.00000000000E+00 0.  1.
         -2   -1    0    0    0  501 -0.00000000000E+00 -0.00000000000E+00 -0.43008167946E+03  0.43008167946E+03  0.00000000000E+00 0. -1.
         23    2    1    2    0    0  0.49233923658E+03  0.20934394419E+03  0.11548109002E+00  0.54263980438E+03  0.90747634200E+02 0.  0.
         13    1    3    3    0    0  0.85085916032E+02  0.40377229911E+01 -0.14104671755E+02  0.86341520019E+02  0.00000000000E+00 0. -1.
        -13    1    3    3    0    0  0.40725332055E+03  0.20530622120E+03  0.14220152845E+02  0.45629828436E+03  0.00000000000E+00 0.  1.
         22    1    1    2    0    0 -0.49233923658E+03 -0.20934394419E+03  0.29172776814E+03  0.60936680378E+03  0.00000000000E+00 0. -1.
<mgrwt>
<rscale>  0 0.11144266E+04</rscale>
<asrwt>0</asrwt>
<pdfrwt beam="1">  1        2 0.11106537E+00 0.11144266E+04</pdfrwt>
<pdfrwt beam="2">  1       -2 0.66166412E-01 0.11144266E+04</pdfrwt>
<totfact> 0.82146718E+01</totfact>
</mgrwt>
</event>
<event>
 6    1  0.5026615E-004  0.3399224E+04  0.7818608E-02  0.8138097E-01
         -2   -1    0    0    0  501 -0.00000000000E+00  0.00000000000E+00  0.84035289478E+03  0.84035289478E+03  0.00000000000E+00 0. -1.
          2   -1    0    0  501    0  0.00000000000E+00 -0.00000000000E+00 -0.34374612766E+04  0.34374612766E+04  0.00000000000E+00 0.  1.
         23    2    1    2    0    0 -0.52425745220E+03 -0.15336909419E+04 -0.19374452247E+04  0.25278972413E+04  0.97553485394E+02 0.  0.
         13    1    3    3    0    0 -0.26098382229E+03 -0.67579532332E+03 -0.80442508085E+03  0.10825486526E+04  0.00000000000E+00 0. -1.
        -13    1    3    3    0    0 -0.26327362991E+03 -0.85789561856E+03 -0.11330201438E+04  0.14453485887E+04  0.00000000000E+00 0.  1.
         22    1    1    2    0    0  0.52425745220E+03  0.15336909419E+04 -0.65966315714E+03  0.17499169301E+04  0.00000000000E+00 0.  1.
<mgrwt>
<rscale>  0 0.33992238E+04</rscale>
<asrwt>0</asrwt>
<pdfrwt beam="1">  1        2 0.52884020E+00 0.33992238E+04</pdfrwt>
<pdfrwt beam="2">  1       -2 0.12928506E+00 0.33992238E+04</pdfrwt>
<totfact> 0.32740217E-01</totfact>
</mgrwt>
</event>
<event>
 6    1  0.5026615E-004  0.1581802E+04  0.7818608E-02  0.8831806E-01
         -2   -1    0    0    0  501 -0.00000000000E+00  0.00000000000E+00  0.15137001105E+04  0.15137001105E+04  0.00000000000E+00 0. -1.
          2   -1    0    0  501    0  0.00000000000E+00 -0.00000000000E+00 -0.41324211220E+03  0.41324211220E+03  0.00000000000E+00 0.  1.
         23    2    1    2    0    0 -0.69176068769E+01  0.52917208364E+03 -0.16146265389E+03  0.55854364048E+03  0.76353535132E+02 0.  0.
         11    1    3    3    0    0  0.24897547801E+02  0.39500586372E+03 -0.13470272773E+03  0.41808413641E+03  0.00000000000E+00 0. -1.
        -11    1    3    3    0    0 -0.31815154678E+02  0.13416621992E+03 -0.26759926165E+02  0.14045950407E+03  0.00000000000E+00 0.  1.
         22    1    1    2    0    0  0.69176068769E+01 -0.52917208364E+03  0.12619206522E+04  0.13683985822E+04  0.00000000000E+00 0. -1.
<mgrwt>
<rscale>  0 0.15818023E+04</rscale>
<asrwt>0</asrwt>
<pdfrwt beam="1">  1        2 0.63575710E-01 0.15818023E+04</pdfrwt>
<pdfrwt beam="2">  1       -2 0.23287694E+00 0.15818023E+04</pdfrwt>
<totfact> 0.60351113E+00</totfact>
</mgrwt>
</event>
<event>
 6    1  0.5026615E-004  0.7120242E+04  0.7818608E-02  0.7565160E-01
         -2   -1    0    0    0  501 -0.00000000000E+00  0.00000000000E+00  0.50555459194E+04  0.50555459194E+04  0.00000000000E+00 0.  1.
          2   -1    0    0  501    0  0.00000000000E+00 -0.00000000000E+00 -0.25070410769E+04  0.25070410769E+04  0.00000000000E+00 0. -1.
         23    2    1    2    0    0  0.28942155980E+04 -0.13305551050E+04 -0.41293397992E+03  0.32132214432E+04  0.86120591163E+02 0.  0.
         13    1    3    3    0    0  0.74980156087E+03 -0.33230301735E+03 -0.14261320061E+03  0.83244591477E+03  0.00000000000E+00 0. -1.
        -13    1    3    3    0    0  0.21444140371E+04 -0.99825208768E+03 -0.27032077931E+03  0.23807755284E+04  0.00000000000E+00 0.  1.
         22    1    1    2    0    0 -0.28942155980E+04  0.13305551050E+04  0.29614388224E+04  0.43493655530E+04  0.00000000000E+00 0.  1.
<mgrwt>
<rscale>  0 0.71202419E+04</rscale>
<asrwt>0</asrwt>
<pdfrwt beam="1">  1        2 0.38569863E+00 0.71202419E+04</pdfrwt>
<pdfrwt beam="2">  1       -2 0.77777630E+00 0.71202419E+04</pdfrwt>
<totfact> 0.22647133E-04</totfact>
</mgrwt>
</event>
<event>
 6    1  0.5026615E-004  0.3647424E+04  0.7818608E-02  0.8079714E-01
          2   -1    0    0  501    0  0.00000000000E+00  0.00000000000E+00  0.20405209412E+04  0.20405209412E+04  0.00000000000E+00 0.  1.
         -2   -1    0    0    0  501 -0.00000000000E+00 -0.00000000000E+00 -0.16299391040E+04  0.16299391040E+04  0.00000000000E+00 0. -1.
         23    2    1    2    0    0  0.19299178614E+03  0.16932278873E+04 -0.44482323690E+03  0.17636343194E+04  0.90949396110E+02 0.  0.
         13    1    3    3    0    0  0.11234808187E+03  0.74288668490E+03 -0.23306689624E+03  0.78665297064E+03  0.00000000000E+00 0.  1.
        -13    1    3    3    0    0  0.80643704270E+02  0.95034120241E+03 -0.21175634066E+03  0.97698134877E+03  0.00000000000E+00 0. -1.
         22    1    1    2    0    0 -0.19299178614E+03 -0.16932278873E+04  0.85540507411E+03  0.19068257258E+04  0.00000000000E+00 0.  1.
<mgrwt>
<rscale>  0 0.36474237E+04</rscale>
<asrwt>0</asrwt>
<pdfrwt beam="1">  1        2 0.31392630E+00 0.36474237E+04</pdfrwt>
<pdfrwt beam="2">  1       -2 0.25075986E+00 0.36474237E+04</pdfrwt>
<totfact> 0.32740142E-01</totfact>
</mgrwt>
</event>
<event>
 6    1  0.5026615E-004  0.1344750E+04  0.7818608E-02  0.8994812E-01
         -2   -1    0    0    0  501 -0.00000000000E+00  0.00000000000E+00  0.20002297435E+03  0.20002297435E+03  0.00000000000E+00 0. -1.
          2   -1    0    0  501    0  0.00000000000E+00 -0.00000000000E+00 -0.22601798662E+04  0.22601798662E+04  0.00000000000E+00 0.  1.
         23    2    1    2    0    0 -0.17697966659E+03 -0.57913581705E+03 -0.15560113347E+04  0.16722416488E+04  0.92199572660E+02 0.  0.
         13    1    3    3    0    0 -0.11503949317E+03 -0.23373756120E+03 -0.61317771540E+03  0.66622386865E+03  0.00000000000E+00 0.  1.
        -13    1    3    3    0    0 -0.61940173421E+02 -0.34539825585E+03 -0.94283361929E+03  0.10060177801E+04  0.00000000000E+00 0. -1.
         22    1    1    2    0    0  0.17697966659E+03  0.57913581705E+03 -0.50414555719E+03  0.78796119181E+03  0.00000000000E+00 0. -1.
<mgrwt>
<rscale>  0 0.13447496E+04</rscale>
<asrwt>0</asrwt>
<pdfrwt beam="1">  1        2 0.34771997E+00 0.13447496E+04</pdfrwt>
<pdfrwt beam="2">  1       -2 0.30772766E-01 0.13447496E+04</pdfrwt>
<totfact> 0.45727632E+01</totfact>
</mgrwt>
</event>
<event>
 6    1  0.5026615E-004  0.3466866E+04  0.7818608E-02  0.8121688E-01
         -2   -1    0    0    0  501 -0.00000000000E+00  0.00000000000E+00  0.24552573520E+04  0.24552573520E+04  0.00000000000E+00 0. -1.
          2   -1    0    0  501    0  0.00000000000E+00 -0.00000000000E+00 -0.12238184846E+04  0.12238184846E+04  0.00000000000E+00 0.  1.
         23    2    1    2    0    0 -0.90683227655E+03  0.12235864222E+04 -0.25965921737E+03  0.15476720718E+04  0.91418939284E+02 0.  0.
         13    1    3    3    0    0 -0.62499429751E+03  0.78553641583E+03 -0.19766803575E+03  0.10231119122E+04  0.00000000000E+00 0.  1.
        -13    1    3    3    0    0 -0.28183797904E+03  0.43805000635E+03 -0.61991181621E+02  0.52456015965E+03  0.00000000000E+00 0. -1.
         22    1    1    2    0    0  0.90683227655E+03 -0.12235864222E+04  0.14910980847E+04  0.21314037648E+04  0.00000000000E+00 0. -1.
<mgrwt>
<rscale>  0 0.34668656E+04</rscale>
<asrwt>0</asrwt>
<pdfrwt beam="1">  1        2 0.18827977E+00 0.34668656E+04</pdfrwt>
<pdfrwt beam="2">  1       -2 0.37773190E+00 0.34668656E+04</pdfrwt>
<totfact> 0.15629589E-01</totfact>
</mgrwt>
</event>
<event>
 6    1  0.5026615E-004  0.2384609E+04  0.7818608E-02  0.8445288E-01
          2   -1    0    0  501    0  0.00000000000E+00  0.00000000000E+00  0.81419433527E+03  0.81419433527E+03  0.00000000000E+00 0.  1.
         -2   -1    0    0    0  501 -0.00000000000E+00 -0.00000000000E+00 -0.17460086019E+04  0.17460086019E+04  0.00000000000E+00 0. -1.
         23    2    1    2    0    0  0.48218240496E+03 -0.10517658592E+04 -0.76563389463E+03  0.13913029371E+04  0.10400628755E+03 0.  0.
         11    1    3    3    0    0  0.42010976807E+03 -0.82612254753E+03 -0.63242529091E+03  0.11220215815E+04  0.00000000000E+00 0. -1.
        -11    1    3    3    0    0  0.62072636896E+02 -0.22564331168E+03 -0.13320860373E+03  0.26928135558E+03  0.00000000000E+00 0.  1.
         22    1    1    2    0    0 -0.48218240496E+03  0.10517658592E+04 -0.16618037203E+03  0.11689000001E+04  0.00000000000E+00 0.  1.
<mgrwt>
<rscale>  0 0.23846092E+04</rscale>
<asrwt>0</asrwt>
<pdfrwt beam="1">  1        2 0.12526067E+00 0.23846092E+04</pdfrwt>
<pdfrwt beam="2">  1       -2 0.26861671E+00 0.23846092E+04</pdfrwt>
<totfact> 0.14970047E+00</totfact>
</mgrwt>
</event>
<event>
 6    1  0.5026615E-004  0.2283024E+04  0.7818608E-02  0.8484645E-01
         -2   -1    0    0    0  501 -0.00000000000E+00  0.00000000000E+00  0.66961740959E+03  0.66961740959E+03  0.00000000000E+00 0. -1.
          2   -1    0    0  501    0  0.00000000000E+00 -0.00000000000E+00 -0.19459618267E+04  0.19459618267E+04  0.00000000000E+00 0.  1.
         23    2    1    2    0    0 -0.10987881782E+04 -0.64407623231E+02 -0.30084502363E+03  0.11448369512E+04  0.93059733662E+02 0.  0.
         11    1    3    3    0    0 -0.89473837641E+03 -0.83511123978E+02 -0.22554812417E+03  0.92650031105E+03  0.00000000000E+00 0.  1.
        -11    1    3    3    0    0 -0.20404980181E+03  0.19103500747E+02 -0.75296899460E+02  0.21833664014E+03  0.00000000000E+00 0. -1.
         22    1    1    2    0    0  0.10987881782E+04  0.64407623231E+02 -0.97549939345E+03  0.14707422851E+04  0.00000000000E+00 0.  1.
<mgrwt>
<rscale>  0 0.22830242E+04</rscale>
<asrwt>0</asrwt>
<pdfrwt beam="1">  1        2 0.29937874E+00 0.22830242E+04</pdfrwt>
<pdfrwt beam="2">  1       -2 0.10301806E+00 0.22830242E+04</pdfrwt>
<totfact> 0.50014783E+00</totfact>
</mgrwt>
</event>
<event>
 6    1  0.5026615E-004  0.1563475E+04  0.7818608E-02  0.8843307E-01
         -2   -1    0    0    0  501 -0.00000000000E+00  0.00000000000E+00  0.32052698939E+03  0.32052698939E+03  0.00000000000E+00 0. -1.
          2   -1    0    0  501    0  0.00000000000E+00 -0.00000000000E+00 -0.19065889604E+04  0.19065889604E+04  0.00000000000E+00 0.  1.
         23    2    1    2    0    0  0.61205412484E+03  0.27802567902E+03 -0.23469958988E+03  0.71778205199E+03  0.90656752322E+02 0.  0.
         11    1    3    3    0    0  0.14942984389E+03  0.10067605274E+03 -0.34736815622E+02  0.18349820761E+03  0.00000000000E+00 0.  1.
        -11    1    3    3    0    0  0.46262428095E+03  0.17734962628E+03 -0.19996277426E+03  0.53428384438E+03  0.00000000000E+00 0. -1.
         22    1    1    2    0    0 -0.61205412484E+03 -0.27802567902E+03 -0.13513623811E+04  0.15093338978E+04  0.00000000000E+00 0.  1.
<mgrwt>
<rscale>  0 0.15634746E+04</rscale>
<asrwt>0</asrwt>
<pdfrwt beam="1">  1        2 0.29332138E+00 0.15634746E+04</pdfrwt>
<pdfrwt beam="2">  1       -2 0.49311844E-01 0.15634746E+04</pdfrwt>
<totfact> 0.28188601E+01</totfact>
</mgrwt>
</event>
<event>
 6    1  0.5026615E-004  0.2772269E+04  0.7818608E-02  0.8311930E-01
          2   -1    0    0  501    0  0.00000000000E+00  0.00000000000E+00  0.14436965182E+04  0.14436965182E+04  0.00000000000E+00 0.  1.
         -2   -1    0    0    0  501 -0.00000000000E+00 -0.00000000000E+00 -0.13308674965E+04  0.13308674965E+04  0.00000000000E+00 0. -1.
         23    2    1    2    0    0  0.13328090107E+04  0.34545714152E+03  0.20300346835E+03  0.13947626064E+04  0.91824966728E+02 0.  0.
         11    1    3    3    0    0  0.10485405790E+04  0.27819076856E+03  0.19714658999E+03  0.11025852472E+04  0.00000000000E+00 0.  1.
        -11    1    3    3    0    0  0.28426843170E+03  0.67266372961E+02  0.58568783617E+01  0.29217735918E+03  0.00000000000E+00 0. -1.
         22    1    1    2    0    0 -0.13328090107E+04 -0.34545714152E+03 -0.90174446634E+02  0.13798014083E+04  0.00000000000E+00 0.  1.
<mgrwt>
<rscale>  0 0.27722689E+04</rscale>
<asrwt>0</asrwt>
<pdfrwt beam="1">  1        2 0.22210716E+00 0.27722689E+04</pdfrwt>
<pdfrwt beam="2">  1       -2 0.20474885E+00 0.27722689E+04</pdfrwt>
<totfact> 0.14755601E+00</totfact>
</mgrwt>
</event>
<event>
 6    1  0.5026615E-004  0.3129220E+04  0.7818608E-02  0.8207764E-01
         -2   -1    0    0    0  501 -0.00000000000E+00  0.00000000000E+00  0.84428619760E+03  0.84428619760E+03  0.00000000000E+00 0. -1.
          2   -1    0    0  501    0  0.00000000000E+00 -0.00000000000E+00 -0.28994955702E+04  0.28994955702E+04  0.00000000000E+00 0.  1.
         23    2    1    2    0    0 -0.40644792933E+03  0.14972602475E+04 -0.79916016689E+03  0.17476235137E+04  0.92427297007E+02 0.  0.
         13    1    3    3    0    0 -0.16585092427E+03  0.44845098902E+03 -0.24861782163E+03  0.53891153251E+03  0.00000000000E+00 0. -1.
        -13    1    3    3    0    0 -0.24059700506E+03  0.10488092585E+04 -0.55054234527E+03  0.12087119812E+04  0.00000000000E+00 0.  1.
         22    1    1    2    0    0  0.40644792933E+03 -0.14972602475E+04 -0.12560492057E+04  0.19961582541E+04  0.00000000000E+00 0.  1.
<mgrwt>
<rscale>  0 0.31292198E+04</rscale>
<asrwt>0</asrwt>
<pdfrwt beam="1">  1        2 0.44607624E+00 0.31292198E+04</pdfrwt>
<pdfrwt beam="2">  1       -2 0.12989018E+00 0.31292198E+04</pdfrwt>
<totfact> 0.74070887E-01</totfact>
</mgrwt>
</event>
<event>
 6    1  0.5026615E-004  0.1835040E+04  0.7818608E-02  0.8687884E-01
         -2   -1    0    0    0  501 -0.00000000000E+00  0.00000000000E+00  0.85449909671E+03  0.85449909671E+03  0.00000000000E+00 0. -1.
          2   -1    0    0  501    0  0.00000000000E+00 -0.00000000000E+00 -0.98518931066E+03  0.98518931066E+03  0.00000000000E+00 0.  1.
         23    2    1    2    0    0 -0.68823081364E+03  0.53918945365E+03 -0.33690835692E+03  0.94140513231E+03  0.91375392797E+02 0.  0.
         11    1    3    3    0    0 -0.27857799380E+03  0.18769576881E+03 -0.89518936933E+02  0.34763348563E+03  0.00000000000E+00 0.  1.
        -11    1    3    3    0    0 -0.40965281983E+03  0.35149368484E+03 -0.24738941999E+03  0.59377164668E+03  0.00000000000E+00 0. -1.
         22    1    1    2    0    0  0.68823081364E+03 -0.53918945365E+03  0.20621814297E+03  0.89828327506E+03  0.00000000000E+00 0. -1.
<mgrwt>
<rscale>  0 0.18350405E+04</rscale>
<asrwt>0</asrwt>
<pdfrwt beam="1">  1        2 0.15156759E+00 0.18350405E+04</pdfrwt>
<pdfrwt beam="2">  1       -2 0.13146140E+00 0.18350405E+04</pdfrwt>
<totfact> 0.10233365E+01</totfact>
</mgrwt>
</event>
<event>
 6    1  0.5026615E-004  0.1992727E+04  0.7818608E-02  0.8610028E-01
         -2   -1    0    0    0  501 -0.00000000000E+00  0.00000000000E+00  0.97013594361E+03  0.97013594361E+03  0.00000000000E+00 0.  1.
          2   -1    0    0  501    0  0.00000000000E+00 -0.00000000000E+00 -0.10233004075E+04  0.10233004075E+04  0.00000000000E+00 0. -1.
         23    2    1    2    0    0  0.55462625237E+03 -0.82260602244E+03  0.39050277842E+02  0.99704561125E+03  0.91016914632E+02 0.  0.
         11    1    3    3    0    0  0.76316092228E+02 -0.11901912110E+03  0.37489804778E+02  0.14627092186E+03  0.00000000000E+00 0. -1.
        -11    1    3    3    0    0  0.47831016014E+03 -0.70358690134E+03  0.15604730640E+01  0.85077468939E+03  0.00000000000E+00 0.  1.
         22    1    1    2    0    0 -0.55462625237E+03  0.82260602244E+03 -0.92214741777E+02  0.99639073991E+03  0.00000000000E+00 0. -1.
<mgrwt>
<rscale>  0 0.19927273E+04</rscale>
<asrwt>0</asrwt>
<pdfrwt beam="1">  1        2 0.15743083E+00 0.19927273E+04</pdfrwt>
<pdfrwt beam="2">  1       -2 0.14925168E+00 0.19927273E+04</pdfrwt>
<totfact> 0.68687383E+00</totfact>
</mgrwt>
</event>
<event>
 6    1  0.5026615E-004  0.2414374E+04  0.7818608E-02  0.8434142E-01
         -2   -1    0    0    0  501 -0.00000000000E+00  0.00000000000E+00  0.55649690407E+03  0.55649690407E+03  0.00000000000E+00 0. -1.
          2   -1    0    0  501    0  0.00000000000E+00 -0.00000000000E+00 -0.26187045364E+04  0.26187045364E+04  0.00000000000E+00 0.  1.
         23    2    1    2    0    0 -0.94767536254E+03  0.73861989690E+03 -0.93117037474E+03  0.15250822863E+04  0.12308439531E+03 0.  0.
         13    1    3    3    0    0 -0.41925555832E+03  0.39990118973E+03 -0.42008243878E+03  0.71565734825E+03  0.00000000000E+00 0.  1.
        -13    1    3    3    0    0 -0.52841980422E+03  0.33871870718E+03 -0.51108793596E+03  0.80942493806E+03  0.00000000000E+00 0. -1.
         22    1    1    2    0    0  0.94767536254E+03 -0.73861989690E+03 -0.11310372576E+04  0.16501191542E+04  0.00000000000E+00 0.  1.
<mgrwt>
<rscale>  0 0.24143744E+04</rscale>
<asrwt>0</asrwt>
<pdfrwt beam="1">  1        2 0.40287763E+00 0.24143744E+04</pdfrwt>
<pdfrwt beam="2">  1       -2 0.85614907E-01 0.24143744E+04</pdfrwt>
<totfact> 0.31584530E+00</totfact>
</mgrwt>
</event>
<event>
 6    1  0.5026615E-004  0.4806223E+04  0.7818608E-02  0.7859115E-01
         -2   -1    0    0    0  501 -0.00000000000E+00  0.00000000000E+00  0.28714604422E+04  0.28714604422E+04  0.00000000000E+00 0. -1.
          2   -1    0    0  501    0  0.00000000000E+00 -0.00000000000E+00 -0.20111525654E+04  0.20111525654E+04  0.00000000000E+00 0.  1.
         23    2    1    2    0    0  0.18861773044E+04  0.83782772769E+03 -0.81855797613E+03  0.22221223241E+04  0.90389921990E+02 0.  0.
         13    1    3    3    0    0  0.83772145240E+03  0.41255800536E+03 -0.34255872735E+03  0.99464959723E+03  0.00000000000E+00 0. -1.
        -13    1    3    3    0    0  0.10484558520E+04  0.42526972233E+03 -0.47599924878E+03  0.12274727268E+04  0.00000000000E+00 0.  1.
         22    1    1    2    0    0 -0.18861773044E+04 -0.83782772769E+03  0.16788658530E+04  0.26604906835E+04  0.00000000000E+00 0. -1.
<mgrwt>
<rscale>  0 0.48062231E+04</rscale>
<asrwt>0</asrwt>
<pdfrwt beam="1">  1        2 0.30940809E+00 0.48062231E+04</pdfrwt>
<pdfrwt beam="2">  1       -2 0.44176314E+00 0.48062231E+04</pdfrwt>
<totfact> 0.19195317E-02</totfact>
</mgrwt>
</event>
<event>
 6    1  0.5026615E-004  0.8570364E+03  0.7818608E-02  0.9480941E-01
         -2   -1    0    0    0  501 -0.00000000000E+00  0.00000000000E+00  0.12151673738E+03  0.12151673738E+03  0.00000000000E+00 0. -1.
          2   -1    0    0  501    0  0.00000000000E+00 -0.00000000000E+00 -0.15111322664E+04  0.15111322664E+04  0.00000000000E+00 0.  1.
         23    2    1    2    0    0  0.82320617630E+02  0.38640166651E+03 -0.10017057942E+04  0.10789732012E+04  0.68452457173E+02 0.  0.
         13    1    3    3    0    0  0.16388553762E+02  0.99308211057E+02 -0.18247223076E+03  0.20839102782E+03  0.00000000000E+00 0.  1.
        -13    1    3    3    0    0  0.65932063868E+02  0.28709345545E+03 -0.81923356343E+03  0.87058217341E+03  0.00000000000E+00 0. -1.
         22    1    1    2    0    0 -0.82320617630E+02 -0.38640166651E+03 -0.38790973486E+03  0.55367580258E+03  0.00000000000E+00 0.  1.
<mgrwt>
<rscale>  0 0.85703644E+03</rscale>
<asrwt>0</asrwt>
<pdfrwt beam="1">  1        2 0.23248188E+00 0.85703644E+03</pdfrwt>
<pdfrwt beam="2">  1       -2 0.18694883E-01 0.85703644E+03</pdfrwt>
<totfact> 0.30243586E+02</totfact>
</mgrwt>
</event>
<event>
 6    1  0.5026615E-004  0.2088477E+04  0.7818608E-02  0.8566337E-01
          2   -1    0    0  501    0  0.00000000000E+00  0.00000000000E+00  0.11800387455E+04  0.11800387455E+04  0.00000000000E+00 0.  1.
         -2   -1    0    0    0  501 -0.00000000000E+00 -0.00000000000E+00 -0.92406592506E+03  0.92406592506E+03  0.00000000000E+00 0. -1.
         23    2    1    2    0    0 -0.96145494998E+03 -0.35219356254E+02  0.53215131524E+03  0.11031498340E+04  0.90102774759E+02 0.  0.
         13    1    3    3    0    0 -0.51804686122E+03 -0.63325244938E+02  0.29569559990E+03  0.59984875166E+03  0.00000000000E+00 0.  1.
        -13    1    3    3    0    0 -0.44340808876E+03  0.28105888684E+02  0.23645571534E+03  0.50330108234E+03  0.00000000000E+00 0. -1.
         22    1    1    2    0    0  0.96145494998E+03  0.35219356254E+02 -0.27617849479E+03  0.10009548366E+04  0.00000000000E+00 0. -1.
<mgrwt>
<rscale>  0 0.20884766E+04</rscale>
<asrwt>0</asrwt>
<pdfrwt beam="1">  1        2 0.18154442E+00 0.20884766E+04</pdfrwt>
<pdfrwt beam="2">  1       -2 0.14216399E+00 0.20884766E+04</pdfrwt>
<totfact> 0.61982660E+00</totfact>
</mgrwt>
</event>
<event>
 6    1  0.5026615E-004  0.3039168E+04  0.7818608E-02  0.8232634E-01
         -2   -1    0    0    0  501 -0.00000000000E+00  0.00000000000E+00  0.65192253437E+03  0.65192253437E+03  0.00000000000E+00 0. -1.
          2   -1    0    0  501    0  0.00000000000E+00 -0.00000000000E+00 -0.35420401138E+04  0.35420401138E+04  0.00000000000E+00 0.  1.
         23    2    1    2    0    0 -0.60102170347E+03 -0.11212918746E+04 -0.25898023017E+04  0.28867856050E+04  0.89065207029E+02 0.  0.
         13    1    3    3    0    0 -0.21463495879E+03 -0.44364572844E+03 -0.91716272518E+03  0.10411902623E+04  0.00000000000E+00 0.  1.
        -13    1    3    3    0    0 -0.38638674468E+03 -0.67764614618E+03 -0.16726395765E+04  0.18455953427E+04  0.00000000000E+00 0. -1.
         22    1    1    2    0    0  0.60102170347E+03  0.11212918746E+04 -0.30031527770E+03  0.13071770432E+04  0.00000000000E+00 0. -1.
<mgrwt>
<rscale>  0 0.30391682E+04</rscale>
<asrwt>0</asrwt>
<pdfrwt beam="1">  1        2 0.54492925E+00 0.30391682E+04</pdfrwt>
<pdfrwt beam="2">  1       -2 0.10029577E+00 0.30391682E+04</pdfrwt>
<totfact> 0.53100096E-01</totfact>
</mgrwt>
</event>
<event>
 6    1  0.5026615E-004  0.1384056E+04  0.7818608E-02  0.8965441E-01
         -2   -1    0    0    0  501 -0.00000000000E+00  0.00000000000E+00  0.19035327809E+03  0.19035327809E+03  0.00000000000E+00 0.  1.
          2   -1    0    0  501    0  0.00000000000E+00 -0.00000000000E+00 -0.25158626360E+04  0.25158626360E+04  0.00000000000E+00 0. -1.
         23    2    1    2    0    0 -0.52705056134E+03  0.32924341117E+03 -0.17492439787E+04  0.18587105718E+04  0.93632123434E+02 0.  0.
         13    1    3    3    0    0 -0.30133494308E+03  0.21584482229E+03 -0.11546115429E+04  0.12126498053E+04  0.00000000000E+00 0.  1.
        -13    1    3    3    0    0 -0.22571561826E+03  0.11339858887E+03 -0.59463243583E+03  0.64606076651E+03  0.00000000000E+00 0. -1.
         22    1    1    2    0    0  0.52705056134E+03 -0.32924341117E+03 -0.57626537919E+03  0.84750534232E+03  0.00000000000E+00 0. -1.
<mgrwt>
<rscale>  0 0.13840559E+04</rscale>
<asrwt>0</asrwt>
<pdfrwt beam="1">  1        2 0.38705579E+00 0.13840559E+04</pdfrwt>
<pdfrwt beam="2">  1       -2 0.29285120E-01 0.13840559E+04</pdfrwt>
<totfact> 0.35762228E+01</totfact>
</mgrwt>
</event>
<event>
 6    1  0.5026615E-004  0.1642913E+04  0.7818608E-02  0.8794610E-01
          2   -1    0    0  501    0  0.00000000000E+00  0.00000000000E+00  0.80700012623E+03  0.80700012623E+03  0.00000000000E+00 0.  1.
         -2   -1    0    0    0  501 -0.00000000000E+00 -0.00000000000E+00 -0.83617204329E+03  0.83617204329E+03  0.00000000000E+00 0. -1.
         23    2    1    2    0    0  0.74537136077E+03  0.26163381419E+03  0.20041084420E+03  0.82053071514E+03  0.95265050364E+02 0.  0.
         13    1    3    3    0    0  0.64269673449E+03  0.22923365641E+03  0.20584951194E+03  0.71272798691E+03  0.00000000000E+00 0. -1.
        -13    1    3    3    0    0  0.10267462629E+03  0.32400157779E+02 -0.54386677426E+01  0.10780272823E+03  0.00000000000E+00 0.  1.
         22    1    1    2    0    0 -0.74537136077E+03 -0.26163381419E+03 -0.22958276126E+03  0.82264145438E+03  0.00000000000E+00 0. -1.
<mgrwt>
<rscale>  0 0.16429132E+04</rscale>
<asrwt>0</asrwt>
<pdfrwt beam="1">  1        2 0.12415387E+00 0.16429132E+04</pdfrwt>
<pdfrwt beam="2">  1       -2 0.12864185E+00 0.16429132E+04</pdfrwt>
<totfact> 0.14511478E+01</totfact>
</mgrwt>
</event>
<event>
 6    1  0.5026615E-004  0.4149137E+04  0.7818608E-02  0.7975119E-01
         -2   -1    0    0    0  501 -0.00000000000E+00  0.00000000000E+00  0.23619095490E+04  0.23619095490E+04  0.00000000000E+00 0. -1.
          2   -1    0    0  501    0  0.00000000000E+00 -0.00000000000E+00 -0.18221842118E+04  0.18221842118E+04  0.00000000000E+00 0.  1.
         23    2    1    2    0    0 -0.59648872772E+03 -0.12186815840E+04 -0.13111968153E+04  0.18891217740E+04  0.92522338208E+02 0.  0.
         11    1    3    3    0    0 -0.39992840234E+03 -0.75873312299E+03 -0.87839736648E+03  0.12276809897E+04  0.00000000000E+00 0. -1.
        -11    1    3    3    0    0 -0.19656032537E+03 -0.45994846096E+03 -0.43279944883E+03  0.66144078432E+03  0.00000000000E+00 0.  1.
         22    1    1    2    0    0  0.59648872772E+03  0.12186815840E+04  0.18509221526E+04  0.22949719868E+04  0.00000000000E+00 0. -1.
<mgrwt>
<rscale>  0 0.41491369E+04</rscale>
<asrwt>0</asrwt>
<pdfrwt beam="1">  1        2 0.28033603E+00 0.41491369E+04</pdfrwt>
<pdfrwt beam="2">  1       -2 0.36337070E+00 0.41491369E+04</pdfrwt>
<totfact> 0.83657439E-02</totfact>
</mgrwt>
</event>
<event>
 6    1  0.5026615E-004  0.2580006E+04  0.7818608E-02  0.8375025E-01
         -2   -1    0    0    0  501 -0.00000000000E+00  0.00000000000E+00  0.11298873063E+04  0.11298873063E+04  0.00000000000E+00 0. -1.
          2   -1    0    0  501    0  0.00000000000E+00 -0.00000000000E+00 -0.14728085975E+04  0.14728085975E+04  0.00000000000E+00 0.  1.
         23    2    1    2    0    0 -0.96462625479E+03  0.58447878932E+03 -0.80013194681E+03  0.13856663847E+04  0.87982559885E+02 0.  0.
         13    1    3    3    0    0 -0.37587535025E+03  0.25929163372E+03 -0.36513450282E+03  0.58466882540E+03  0.00000000000E+00 0.  1.
        -13    1    3    3    0    0 -0.58875090453E+03  0.32518715560E+03 -0.43499744399E+03  0.80099755932E+03  0.00000000000E+00 0. -1.
         22    1    1    2    0    0  0.96462625479E+03 -0.58447878932E+03  0.45721065567E+03  0.12170295191E+04  0.00000000000E+00 0. -1.
<mgrwt>
<rscale>  0 0.25800060E+04</rscale>
<asrwt>0</asrwt>
<pdfrwt beam="1">  1        2 0.22658594E+00 0.25800060E+04</pdfrwt>
<pdfrwt beam="2">  1       -2 0.17382882E+00 0.25800060E+04</pdfrwt>
<totfact> 0.23337466E+00</totfact>
</mgrwt>
</event>
<event>
 6    1  0.5026615E-004  0.5204477E+04  0.7818608E-02  0.7797716E-01
          2   -1    0    0  501    0  0.00000000000E+00  0.00000000000E+00  0.29388996150E+04  0.29388996150E+04  0.00000000000E+00 0.  1.
         -2   -1    0    0    0  501 -0.00000000000E+00 -0.00000000000E+00 -0.23041429042E+04  0.23041429042E+04  0.00000000000E+00 0. -1.
         23    2    1    2    0    0 -0.21596801737E+03  0.23549481957E+04  0.14095701979E+04  0.27545170263E+04  0.89736930461E+02 0.  0.
         11    1    3    3    0    0 -0.13549996376E+03  0.99714042038E+03  0.60707412344E+03  0.11752396562E+04  0.00000000000E+00 0. -1.
        -11    1    3    3    0    0 -0.80468053601E+02  0.13578077753E+04  0.80249607447E+03  0.15792773701E+04  0.00000000000E+00 0.  1.
         22    1    1    2    0    0  0.21596801737E+03 -0.23549481957E+04 -0.77481348717E+03  0.24885254929E+04  0.00000000000E+00 0. -1.
<mgrwt>
<rscale>  0 0.52044768E+04</rscale>
<asrwt>0</asrwt>
<pdfrwt beam="1">  1        2 0.45213840E+00 0.52044768E+04</pdfrwt>
<pdfrwt beam="2">  1       -2 0.35448352E+00 0.52044768E+04</pdfrwt>
<totfact> 0.19842562E-02</totfact>
</mgrwt>
</event>
<event>
 6    1  0.5026615E-004  0.1255740E+04  0.7818608E-02  0.9065419E-01
         -2   -1    0    0    0  501 -0.00000000000E+00  0.00000000000E+00  0.49775081481E+03  0.49775081481E+03  0.00000000000E+00 0. -1.
          2   -1    0    0  501    0  0.00000000000E+00 -0.00000000000E+00 -0.79200453818E+03  0.79200453818E+03  0.00000000000E+00 0.  1.
         23    2    1    2    0    0  0.61893035065E+03  0.64811584872E+02 -0.92968431283E+02  0.63569794778E+03  0.90517573484E+02 0.  0.
         13    1    3    3    0    0  0.10673762195E+03  0.40365297433E+01 -0.50547896164E+02  0.11817065338E+03  0.00000000000E+00 0.  1.
        -13    1    3    3    0    0  0.51219272870E+03  0.60775055129E+02 -0.42420535120E+02  0.51752729441E+03  0.00000000000E+00 0. -1.
         22    1    1    2    0    0 -0.61893035065E+03 -0.64811584872E+02 -0.20128529209E+03  0.65405740520E+03  0.00000000000E+00 0.  1.
<mgrwt>
<rscale>  0 0.12557403E+04</rscale>
<asrwt>0</asrwt>
<pdfrwt beam="1">  1        2 0.12184685E+00 0.12557403E+04</pdfrwt>
<pdfrwt beam="2">  1       -2 0.76577048E-01 0.12557403E+04</pdfrwt>
<totfact> 0.52347390E+01</totfact>
</mgrwt>
</event>
<event>
 6    1  0.5026615E-004  0.1302609E+04  0.7818608E-02  0.9027498E-01
          2   -1    0    0  501    0  0.00000000000E+00  0.00000000000E+00  0.26075873409E+04  0.26075873409E+04  0.00000000000E+00 0.  1.
         -2   -1    0    0    0  501 -0.00000000000E+00 -0.00000000000E+00 -0.16267826263E+03  0.16267826263E+03  0.00000000000E+00 0. -1.
         23    2    1    2    0    0 -0.60153404763E+03  0.46325854246E+01  0.71574022674E+03  0.93944895832E+03  0.91736589257E+02 0.  0.
         11    1    3    3    0    0 -0.25202594027E+03  0.34279958966E+02  0.25254701437E+03  0.35843016701E+03  0.00000000000E+00 0. -1.
        -11    1    3    3    0    0 -0.34950810735E+03 -0.29647373542E+02  0.46319321238E+03  0.58101879131E+03  0.00000000000E+00 0.  1.
         22    1    1    2    0    0  0.60153404763E+03 -0.46325854246E+01  0.17291688515E+04  0.18308166452E+04  0.00000000000E+00 0.  1.
<mgrwt>
<rscale>  0 0.13026093E+04</rscale>
<asrwt>0</asrwt>
<pdfrwt beam="1">  1        2 0.40116725E+00 0.13026093E+04</pdfrwt>
<pdfrwt beam="2">  1       -2 0.25027427E-01 0.13026093E+04</pdfrwt>
<totfact> 0.42515692E+01</totfact>
</mgrwt>
</event>
<event>
 6    1  0.5026615E-004  0.3170590E+04  0.7818608E-02  0.8196628E-01
         -4   -1    0    0    0  501 -0.00000000000E+00  0.00000000000E+00  0.12296361880E+04  0.12296361880E+04  0.00000000000E+00 0. -1.
          4   -1    0    0  501    0  0.00000000000E+00 -0.00000000000E+00 -0.20438240826E+04  0.20438240826E+04  0.00000000000E+00 0.  1.
         23    2    1    2    0    0 -0.10811484202E+04  0.16072285686E+03  0.77611966330E+03  0.13437473717E+04  0.92636515803E+02 0.  0.
         11    1    3    3    0    0 -0.85396103695E+02 -0.42096108004E+01  0.84441558034E+02  0.12016901461E+03  0.00000000000E+00 0.  1.
        -11    1    3    3    0    0 -0.99575231647E+03  0.16493246766E+03  0.69167810526E+03  0.12235783571E+04  0.00000000000E+00 0. -1.
         22    1    1    2    0    0  0.10811484202E+04 -0.16072285686E+03 -0.15903075580E+04  0.19297128989E+04  0.00000000000E+00 0.  1.
<mgrwt>
<rscale>  0 0.31705899E+04</rscale>
<asrwt>0</asrwt>
<pdfrwt beam="1">  1        4 0.31443448E+00 0.31705899E+04</pdfrwt>
<pdfrwt beam="2">  1       -4 0.18917480E+00 0.31705899E+04</pdfrwt>
<totfact> 0.65165892E-03</totfact>
</mgrwt>
</event>
<event>
 6    1  0.5026615E-004  0.2284989E+04  0.7818608E-02  0.8483863E-01
          2   -1    0    0  501    0  0.00000000000E+00  0.00000000000E+00  0.19657787577E+04  0.19657787577E+04  0.00000000000E+00 0.  1.
         -2   -1    0    0    0  501 -0.00000000000E+00 -0.00000000000E+00 -0.66400856811E+03  0.66400856811E+03  0.00000000000E+00 0. -1.
         23    2    1    2    0    0  0.66618599013E+03 -0.84658689084E+03  0.22034070896E+03  0.11033526371E+04  0.91235281718E+02 0.  0.
         11    1    3    3    0    0  0.58435374836E+03 -0.70140582080E+03  0.16479019985E+03  0.92768272520E+03  0.00000000000E+00 0. -1.
        -11    1    3    3    0    0  0.81832241772E+02 -0.14518107005E+03  0.55550509105E+02  0.17566991192E+03  0.00000000000E+00 0.  1.
         22    1    1    2    0    0 -0.66618599013E+03  0.84658689084E+03  0.10814294806E+04  0.15264346886E+04  0.00000000000E+00 0.  1.
<mgrwt>
<rscale>  0 0.22849892E+04</rscale>
<asrwt>0</asrwt>
<pdfrwt beam="1">  1        2 0.30242750E+00 0.22849892E+04</pdfrwt>
<pdfrwt beam="2">  1       -2 0.10215517E+00 0.22849892E+04</pdfrwt>
<totfact> 0.49744381E+00</totfact>
</mgrwt>
</event>
<event>
 6    1  0.5026615E-004  0.2605900E+04  0.7818608E-02  0.8366200E-01
          2   -1    0    0  501    0  0.00000000000E+00  0.00000000000E+00  0.11773049817E+04  0.11773049817E+04  0.00000000000E+00 0.  1.
         -2   -1    0    0    0  501 -0.00000000000E+00 -0.00000000000E+00 -0.14420042910E+04  0.14420042910E+04  0.00000000000E+00 0. -1.
         23    2    1    2    0    0  0.10180615034E+04  0.24703260611E+03  0.64343553055E+03  0.12328810486E+04  0.92260852309E+02 0.  0.
         11    1    3    3    0    0  0.84062212253E+03  0.23936695742E+03  0.53220110573E+03  0.10233181862E+04  0.00000000000E+00 0. -1.
        -11    1    3    3    0    0  0.17743938082E+03  0.76656486855E+01  0.11123442482E+03  0.20956286241E+03  0.00000000000E+00 0.  1.
         22    1    1    2    0    0 -0.10180615034E+04 -0.24703260611E+03 -0.90813483984E+03  0.13864282240E+04  0.00000000000E+00 0. -1.
<mgrwt>
<rscale>  0 0.26059001E+04</rscale>
<asrwt>0</asrwt>
<pdfrwt beam="1">  1        2 0.18112384E+00 0.26059001E+04</pdfrwt>
<pdfrwt beam="2">  1       -2 0.22184681E+00 0.26059001E+04</pdfrwt>
<totfact> 0.16624338E+00</totfact>
</mgrwt>
</event>
<event>
 6    1  0.5026615E-004  0.4581803E+04  0.7818608E-02  0.7896470E-01
          2   -1    0    0  501    0  0.00000000000E+00  0.00000000000E+00  0.42823506316E+04  0.42823506316E+04  0.00000000000E+00 0.  1.
         -2   -1    0    0    0  501 -0.00000000000E+00 -0.00000000000E+00 -0.12255487540E+04  0.12255487540E+04  0.00000000000E+00 0. -1.
         23    2    1    2    0    0 -0.11780558320E+04 -0.14073887569E+04  0.31753559690E+04  0.36687110513E+04  0.89423662652E+02 0.  0.
         13    1    3    3    0    0 -0.76425513523E+03 -0.84572175188E+03  0.19616920766E+04  0.22688250256E+04  0.00000000000E+00 0.  1.
        -13    1    3    3    0    0 -0.41380069678E+03 -0.56166700499E+03  0.12136638924E+04  0.13998860257E+04  0.00000000000E+00 0. -1.
         22    1    1    2    0    0  0.11780558320E+04  0.14073887569E+04 -0.11855409145E+03  0.18391883343E+04  0.00000000000E+00 0. -1.
<mgrwt>
<rscale>  0 0.45818029E+04</rscale>
<asrwt>0</asrwt>
<pdfrwt beam="1">  1        2 0.65882316E+00 0.45818029E+04</pdfrwt>
<pdfrwt beam="2">  1       -2 0.18854597E+00 0.45818029E+04</pdfrwt>
<totfact> 0.23322866E-02</totfact>
</mgrwt>
</event>
<event>
 6    1  0.5026615E-004  0.5538058E+04  0.7818608E-02  0.7750474E-01
         -2   -1    0    0    0  501 -0.00000000000E+00  0.00000000000E+00  0.26426636689E+04  0.26426636689E+04  0.00000000000E+00 0. -1.
          2   -1    0    0  501    0  0.00000000000E+00 -0.00000000000E+00 -0.29014370248E+04  0.29014370248E+04  0.00000000000E+00 0.  1.
         23    2    1    2    0    0  0.72971387055E+03 -0.24244836084E+04 -0.12499397402E+04  0.28250909656E+04  0.90479333705E+02 0.  0.
         13    1    3    3    0    0  0.25604434829E+03 -0.97430549785E+03 -0.52650783551E+03  0.11366795557E+04  0.00000000000E+00 0. -1.
        -13    1    3    3    0    0  0.47366952226E+03 -0.14501781105E+04 -0.72343190465E+03  0.16884114099E+04  0.00000000000E+00 0.  1.
         22    1    1    2    0    0 -0.72971387055E+03  0.24244836084E+04  0.99116638427E+03  0.27190097281E+04  0.00000000000E+00 0. -1.
<mgrwt>
<rscale>  0 0.55380582E+04</rscale>
<asrwt>0</asrwt>
<pdfrwt beam="1">  1        2 0.44637493E+00 0.55380582E+04</pdfrwt>
<pdfrwt beam="2">  1       -2 0.40656364E+00 0.55380582E+04</pdfrwt>
<totfact> 0.94134411E-03</totfact>
</mgrwt>
</event>
<event>
 6    1  0.5026615E-004  0.1728652E+04  0.7818608E-02  0.8745190E-01
         -2   -1    0    0    0  501 -0.00000000000E+00  0.00000000000E+00  0.50860132322E+03  0.50860132322E+03  0.00000000000E+00 0. -1.
          2   -1    0    0  501    0  0.00000000000E+00 -0.00000000000E+00 -0.14688513360E+04  0.14688513360E+04  0.00000000000E+00 0.  1.
         23    2    1    2    0    0  0.41241353675E+03  0.67766172160E+03 -0.86626267466E+03  0.11786135303E+04  0.96997412841E+02 0.  0.
         13    1    3    3    0    0  0.20941664309E+03  0.43527061209E+03 -0.52553794159E+03  0.71379686480E+03  0.00000000000E+00 0.  1.
        -13    1    3    3    0    0  0.20299689366E+03  0.24239110951E+03 -0.34072473307E+03  0.46481666550E+03  0.00000000000E+00 0. -1.
         22    1    1    2    0    0 -0.41241353675E+03 -0.67766172160E+03 -0.93987338158E+02  0.79883912896E+03  0.00000000000E+00 0. -1.
<mgrwt>
<rscale>  0 0.17286523E+04</rscale>
<asrwt>0</asrwt>
<pdfrwt beam="1">  1        2 0.22597713E+00 0.17286523E+04</pdfrwt>
<pdfrwt beam="2">  1       -2 0.78246357E-01 0.17286523E+04</pdfrwt>
<totfact> 0.18234884E+01</totfact>
</mgrwt>
</event>
<event>
 6    1  0.5026615E-004  0.2693850E+04  0.7818608E-02  0.8337003E-01
         -2   -1    0    0    0  501 -0.00000000000E+00  0.00000000000E+00  0.62106980014E+03  0.62106980014E+03  0.00000000000E+00 0. -1.
          2   -1    0    0  501    0  0.00000000000E+00 -0.00000000000E+00 -0.29210990717E+04  0.29210990717E+04  0.00000000000E+00 0.  1.
         23    2    1    2    0    0 -0.85940236574E+02  0.13341483759E+04 -0.13498829372E+04  0.19020116630E+04  0.90148813516E+02 0.  0.
         13    1    3    3    0    0 -0.26038189434E+02  0.10084323386E+04 -0.10178254806E+04  0.14330326157E+04  0.00000000000E+00 0.  1.
        -13    1    3    3    0    0 -0.59902047140E+02  0.32571603734E+03 -0.33205745667E+03  0.46897904725E+03  0.00000000000E+00 0. -1.
         22    1    1    2    0    0  0.85940236574E+02 -0.13341483759E+04 -0.95014633427E+03  0.16401572088E+04  0.00000000000E+00 0. -1.
<mgrwt>
<rscale>  0 0.26938496E+04</rscale>
<asrwt>0</asrwt>
<pdfrwt beam="1">  1        2 0.44939985E+00 0.26938496E+04</pdfrwt>
<pdfrwt beam="2">  1       -2 0.95549201E-01 0.26938496E+04</pdfrwt>
<totfact> 0.15731394E+00</totfact>
</mgrwt>
</event>
<event>
 6    1  0.5026615E-004  0.1922746E+04  0.7818608E-02  0.8643616E-01
          2   -1    0    0  501    0  0.00000000000E+00  0.00000000000E+00  0.12603862078E+04  0.12603862078E+04  0.00000000000E+00 0.  1.
         -2   -1    0    0    0  501 -0.00000000000E+00 -0.00000000000E+00 -0.73329750692E+03  0.73329750692E+03  0.00000000000E+00 0. -1.
         23    2    1    2    0    0 -0.70469979519E+03  0.62506380790E+03  0.45251771519E+03  0.10487671061E+04  0.88507598294E+02 0.  0.
         13    1    3    3    0    0 -0.50434577976E+03  0.49836148378E+03  0.34271202967E+03  0.78751531373E+03  0.00000000000E+00 0. -1.
        -13    1    3    3    0    0 -0.20035401543E+03  0.12670232412E+03  0.10980568552E+03  0.26125179236E+03  0.00000000000E+00 0.  1.
         22    1    1    2    0    0  0.70469979519E+03 -0.62506380790E+03  0.74570985640E+02  0.94491660859E+03  0.00000000000E+00 0. -1.
<mgrwt>
<rscale>  0 0.19227460E+04</rscale>
<asrwt>0</asrwt>
<pdfrwt beam="1">  1        2 0.19390557E+00 0.19227460E+04</pdfrwt>
<pdfrwt beam="2">  1       -2 0.11281500E+00 0.19227460E+04</pdfrwt>
<totfact> 0.10075897E+01</totfact>
</mgrwt>
</event>
<event>
 6    1  0.5026615E-004  0.1738808E+04  0.7818608E-02  0.8739535E-01
         -2   -1    0    0    0  501 -0.00000000000E+00  0.00000000000E+00  0.87352664959E+03  0.87352664959E+03  0.00000000000E+00 0. -1.
          2   -1    0    0  501    0  0.00000000000E+00 -0.00000000000E+00 -0.86530099481E+03  0.86530099481E+03  0.00000000000E+00 0.  1.
         23    2    1    2    0    0  0.52978181060E+03 -0.61891771308E+03  0.30074510614E+03  0.87320906105E+03  0.91206047064E+02 0.  0.
         13    1    3    3    0    0  0.34288607017E+03 -0.42093610708E+03  0.24336472613E+03  0.59496592615E+03  0.00000000000E+00 0. -1.
        -13    1    3    3    0    0  0.18689574043E+03 -0.19798160601E+03  0.57380380012E+02  0.27824313490E+03  0.00000000000E+00 0.  1.
         22    1    1    2    0    0 -0.52978181060E+03  0.61891771308E+03 -0.29251945137E+03  0.86561858335E+03  0.00000000000E+00 0.  1.
<mgrwt>
<rscale>  0 0.17388082E+04</rscale>
<asrwt>0</asrwt>
<pdfrwt beam="1">  1        2 0.13312323E+00 0.17388082E+04</pdfrwt>
<pdfrwt beam="2">  1       -2 0.13438872E+00 0.17388082E+04</pdfrwt>
<totfact> 0.11724279E+01</totfact>
</mgrwt>
</event>
<event>
 6    1  0.5026615E-004  0.1438819E+04  0.7818608E-02  0.8926189E-01
          2   -1    0    0  501    0  0.00000000000E+00  0.00000000000E+00  0.82956113551E+03  0.82956113551E+03  0.00000000000E+00 0.  1.
         -2   -1    0    0    0  501 -0.00000000000E+00 -0.00000000000E+00 -0.62388389101E+03  0.62388389101E+03  0.00000000000E+00 0. -1.
         23    2    1    2    0    0 -0.50825101498E+03  0.22776500371E+03  0.55858439803E+03  0.79409728052E+03  0.91531251806E+02 0.  0.
         11    1    3    3    0    0 -0.29480319587E+03  0.83222563147E+02  0.31651036735E+03  0.44046989903E+03  0.00000000000E+00 0. -1.
        -11    1    3    3    0    0 -0.21344781911E+03  0.14454244056E+03  0.24207403068E+03  0.35362738149E+03  0.00000000000E+00 0.  1.
         22    1    1    2    0    0  0.50825101498E+03 -0.22776500371E+03 -0.35290715353E+03  0.65934774600E+03  0.00000000000E+00 0. -1.
<mgrwt>
<rscale>  0 0.14388187E+04</rscale>
<asrwt>0</asrwt>
<pdfrwt beam="1">  1        2 0.12762479E+00 0.14388187E+04</pdfrwt>
<pdfrwt beam="2">  1       -2 0.95982137E-01 0.14388187E+04</pdfrwt>
<totfact> 0.28978274E+01</totfact>
</mgrwt>
</event>
<event>
 6    1  0.5026615E-004  0.2756388E+04  0.7818608E-02  0.8316937E-01
          1   -1    0    0  501    0  0.00000000000E+00  0.00000000000E+00  0.25318129853E+04  0.25318129853E+04  0.00000000000E+00 0.  1.
         -1   -1    0    0    0  501 -0.00000000000E+00 -0.00000000000E+00 -0.75022089892E+03  0.75022089892E+03  0.00000000000E+00 0. -1.
         23    2    1    2    0    0  0.49167636660E+03 -0.11038164432E+04  0.10629897034E+03  0.12164193475E+04  0.90665143028E+02 0.  0.
         11    1    3    3    0    0  0.30335558447E+02 -0.12614812211E+03  0.26534850108E+02  0.13242995540E+03  0.00000000000E+00 0. -1.
        -11    1    3    3    0    0  0.46134080815E+03 -0.97766832106E+03  0.79764120236E+02  0.10839893921E+04  0.00000000000E+00 0.  1.
         22    1    1    2    0    0 -0.49167636660E+03  0.11038164432E+04  0.16752931160E+04  0.20656145367E+04  0.00000000000E+00 0. -1.
<mgrwt>
<rscale>  0 0.27563882E+04</rscale>
<asrwt>0</asrwt>
<pdfrwt beam="1">  1        1 0.38950969E+00 0.27563882E+04</pdfrwt>
<pdfrwt beam="2">  1       -1 0.11541860E+00 0.27563882E+04</pdfrwt>
<totfact> 0.76090051E-01</totfact>
</mgrwt>
</event>
<event>
 6    1  0.5026615E-004  0.2793378E+04  0.7818608E-02  0.8305327E-01
         -2   -1    0    0    0  501 -0.00000000000E+00  0.00000000000E+00  0.64536169021E+03  0.64536169021E+03  0.00000000000E+00 0. -1.
          2   -1    0    0  501    0  0.00000000000E+00 -0.00000000000E+00 -0.30227081261E+04  0.30227081261E+04  0.00000000000E+00 0.  1.
         23    2    1    2    0    0  0.51840722664E+02 -0.11206283238E+04 -0.22795153779E+04  0.25419853539E+04  0.83689189811E+02 0.  0.
         11    1    3    3    0    0 -0.16967257035E+02 -0.52510118746E+03 -0.10495677349E+04  0.11737169910E+04  0.00000000000E+00 0.  1.
        -11    1    3    3    0    0  0.68807979700E+02 -0.59552713635E+03 -0.12299476431E+04  0.13682683629E+04  0.00000000000E+00 0. -1.
         22    1    1    2    0    0 -0.51840722664E+02  0.11206283238E+04 -0.97831057996E+02  0.11260844625E+04  0.00000000000E+00 0. -1.
<mgrwt>
<rscale>  0 0.27933779E+04</rscale>
<asrwt>0</asrwt>
<pdfrwt beam="1">  1        2 0.46503202E+00 0.27933779E+04</pdfrwt>
<pdfrwt beam="2">  1       -2 0.99286415E-01 0.27933779E+04</pdfrwt>
<totfact> 0.12318771E+00</totfact>
</mgrwt>
</event>
<event>
 6    1  0.5026615E-004  0.3924527E+04  0.7818608E-02  0.8019947E-01
         -2   -1    0    0    0  501 -0.00000000000E+00  0.00000000000E+00  0.14563268998E+04  0.14563268998E+04  0.00000000000E+00 0. -1.
          2   -1    0    0  501    0  0.00000000000E+00 -0.00000000000E+00 -0.26439658667E+04  0.26439658667E+04  0.00000000000E+00 0.  1.
         23    2    1    2    0    0  0.42853436896E+03 -0.73827152107E+03  0.12506127521E+04  0.15169310053E+04  0.91437821059E+02 0.  0.
         13    1    3    3    0    0  0.19249149126E+03 -0.39751081810E+03  0.58931076383E+03  0.73644755487E+03  0.00000000000E+00 0.  1.
        -13    1    3    3    0    0  0.23604287771E+03 -0.34076070297E+03  0.66130198824E+03  0.78048345047E+03  0.00000000000E+00 0. -1.
         22    1    1    2    0    0 -0.42853436896E+03  0.73827152107E+03 -0.24382517189E+04  0.25833617612E+04  0.00000000000E+00 0.  1.
<mgrwt>
<rscale>  0 0.39245273E+04</rscale>
<asrwt>0</asrwt>
<pdfrwt beam="1">  1        2 0.40676398E+00 0.39245273E+04</pdfrwt>
<pdfrwt beam="2">  1       -2 0.22405029E+00 0.39245273E+04</pdfrwt>
<totfact> 0.21199906E-01</totfact>
</mgrwt>
</event>
<event>
 6    1  0.5026615E-004  0.2924316E+04  0.7818608E-02  0.8265679E-01
          4   -1    0    0  501    0  0.00000000000E+00  0.00000000000E+00  0.15744452483E+04  0.15744452483E+04  0.00000000000E+00 0.  1.
         -4   -1    0    0    0  501 -0.00000000000E+00 -0.00000000000E+00 -0.13578786612E+04  0.13578786612E+04  0.00000000000E+00 0. -1.
         23    2    1    2    0    0  0.11673785524E+04 -0.66330345644E+03  0.68525596012E+03  0.15102079198E+04  0.91695529608E+02 0.  0.
         13    1    3    3    0    0  0.54750385071E+03 -0.27180264084E+03  0.34562314685E+03  0.70220545551E+03  0.00000000000E+00 0.  1.
        -13    1    3    3    0    0  0.61987470166E+03 -0.39150081560E+03  0.33963281326E+03  0.80800246424E+03  0.00000000000E+00 0. -1.
         22    1    1    2    0    0 -0.11673785524E+04  0.66330345644E+03 -0.46868937302E+03  0.14221159897E+04  0.00000000000E+00 0. -1.
<mgrwt>
<rscale>  0 0.29243157E+04</rscale>
<asrwt>0</asrwt>
<pdfrwt beam="1">  1        4 0.24222235E+00 0.29243157E+04</pdfrwt>
<pdfrwt beam="2">  1       -4 0.20890441E+00 0.29243157E+04</pdfrwt>
<totfact> 0.13895364E-02</totfact>
</mgrwt>
</event>
<event>
 6    1  0.5026615E-004  0.1669149E+04  0.7818608E-02  0.8779158E-01
         -1   -1    0    0    0  501 -0.00000000000E+00  0.00000000000E+00  0.86428190500E+03  0.86428190500E+03  0.00000000000E+00 0.  1.
          1   -1    0    0  501    0  0.00000000000E+00 -0.00000000000E+00 -0.80588811365E+03  0.80588811365E+03  0.00000000000E+00 0. -1.
         23    2    1    2    0    0 -0.95719803941E+02  0.41357720517E+03 -0.68673800338E+03  0.81259799425E+03  0.92184757284E+02 0.  0.
         13    1    3    3    0    0 -0.92203633139E+02  0.19540180911E+03 -0.35185944082E+03  0.41290246192E+03  0.00000000000E+00 0. -1.
        -13    1    3    3    0    0 -0.35161708022E+01  0.21817539606E+03 -0.33487856256E+03  0.39969553233E+03  0.00000000000E+00 0.  1.
         22    1    1    2    0    0  0.95719803941E+02 -0.41357720517E+03  0.74513179474E+03  0.85757202440E+03  0.00000000000E+00 0.  1.
<mgrwt>
<rscale>  0 0.16691489E+04</rscale>
<asrwt>0</asrwt>
<pdfrwt beam="1">  1        1 0.12398279E+00 0.16691489E+04</pdfrwt>
<pdfrwt beam="2">  1       -1 0.13296645E+00 0.16691489E+04</pdfrwt>
<totfact> 0.99848167E+00</totfact>
</mgrwt>
</event>
<event>
 6    1  0.5026615E-004  0.1900888E+04  0.7818608E-02  0.8654415E-01
         -2   -1    0    0    0  501 -0.00000000000E+00  0.00000000000E+00  0.14268791100E+04  0.14268791100E+04  0.00000000000E+00 0. -1.
          2   -1    0    0  501    0  0.00000000000E+00 -0.00000000000E+00 -0.63309051093E+03  0.63309051093E+03  0.00000000000E+00 0.  1.
         23    2    1    2    0    0 -0.25896532624E+03  0.87338370808E+03  0.11185609256E+03  0.92203549052E+03  0.88178901184E+02 0.  0.
         11    1    3    3    0    0 -0.38260189052E+02  0.25156590643E+03  0.49934767648E+02  0.25931202896E+03  0.00000000000E+00 0. -1.
        -11    1    3    3    0    0 -0.22070513719E+03  0.62181780165E+03  0.61921324913E+02  0.66272346156E+03  0.00000000000E+00 0.  1.
         22    1    1    2    0    0  0.25896532624E+03 -0.87338370808E+03  0.68193250654E+03  0.11379341304E+04  0.00000000000E+00 0. -1.
<mgrwt>
<rscale>  0 0.19008878E+04</rscale>
<asrwt>0</asrwt>
<pdfrwt beam="1">  1        2 0.97398540E-01 0.19008878E+04</pdfrwt>
<pdfrwt beam="2">  1       -2 0.21951986E+00 0.19008878E+04</pdfrwt>
<totfact> 0.43269078E+00</totfact>
</mgrwt>
</event>
<event>
 6    1  0.5026615E-004  0.9851603E+03  0.7818608E-02  0.9324972E-01
          2   -1    0    0  501    0  0.00000000000E+00  0.00000000000E+00  0.29033046584E+04  0.29033046584E+04  0.00000000000E+00 0.  1.
         -2   -1    0    0    0  501 -0.00000000000E+00 -0.00000000000E+00 -0.83572072366E+02  0.83572072366E+02  0.00000000000E+00 0. -1.
         23    2    1    2    0    0  0.34575840309E+03 -0.68226683422E+02  0.24465798123E+04  0.24736060944E+04  0.93651366898E+02 0.  0.
         11    1    3    3    0    0  0.73112446861E+02 -0.46936959229E+02  0.76738903610E+03  0.77229168114E+03  0.00000000000E+00 0. -1.
        -11    1    3    3    0    0  0.27264595623E+03 -0.21289724193E+02  0.16791907762E+04  0.17013144132E+04  0.00000000000E+00 0.  1.
         22    1    1    2    0    0 -0.34575840309E+03  0.68226683422E+02  0.37315277373E+03  0.51327063639E+03  0.00000000000E+00 0. -1.
<mgrwt>
<rscale>  0 0.98516027E+03</rscale>
<asrwt>0</asrwt>
<pdfrwt beam="1">  1        2 0.44666218E+00 0.98516027E+03</pdfrwt>
<pdfrwt beam="2">  1       -2 0.12857244E-01 0.98516027E+03</pdfrwt>
<totfact> 0.92982367E+01</totfact>
</mgrwt>
</event>
<event>
 6    1  0.5026615E-004  0.4571406E+04  0.7818608E-02  0.7898254E-01
          1   -1    0    0  501    0  0.00000000000E+00  0.00000000000E+00  0.34670540055E+04  0.34670540055E+04  0.00000000000E+00 0.  1.
         -1   -1    0    0    0  501 -0.00000000000E+00 -0.00000000000E+00 -0.15068812310E+04  0.15068812310E+04  0.00000000000E+00 0. -1.
         23    2    1    2    0    0  0.53067216884E+03  0.16167679666E+04  0.26392981637E+04  0.31417881619E+04  0.96883686353E+02 0.  0.
         13    1    3    3    0    0  0.15092706909E+03  0.52359105423E+03  0.92098039757E+03  0.10701081557E+04  0.00000000000E+00 0. -1.
        -13    1    3    3    0    0  0.37974509975E+03  0.10931769124E+04  0.17183177662E+04  0.20716800062E+04  0.00000000000E+00 0.  1.
         22    1    1    2    0    0 -0.53067216884E+03 -0.16167679666E+04 -0.67912538925E+03  0.18321470746E+04  0.00000000000E+00 0. -1.
<mgrwt>
<rscale>  0 0.45714062E+04</rscale>
<asrwt>0</asrwt>
<pdfrwt beam="1">  1        1 0.53339292E+00 0.45714062E+04</pdfrwt>
<pdfrwt beam="2">  1       -1 0.23182788E+00 0.45714062E+04</pdfrwt>
<totfact> 0.18168991E-02</totfact>
</mgrwt>
</event>
<event>
 6    1  0.5026615E-004  0.3522248E+04  0.7818608E-02  0.8108538E-01
          1   -1    0    0  501    0  0.00000000000E+00  0.00000000000E+00  0.20094900687E+04  0.20094900687E+04  0.00000000000E+00 0. -1.
         -1   -1    0    0    0  501 -0.00000000000E+00 -0.00000000000E+00 -0.15434548173E+04  0.15434548173E+04  0.00000000000E+00 0.  1.
         23    2    1    2    0    0 -0.14142452360E+04 -0.46461506873E+03  0.11803222278E+04  0.19018353698E+04  0.88659252522E+02 0.  0.
         13    1    3    3    0    0 -0.85154571248E+03 -0.26400142097E+03  0.75841904360E+03  0.11704812243E+04  0.00000000000E+00 0.  1.
        -13    1    3    3    0    0 -0.56269952350E+03 -0.20061364776E+03  0.42190318415E+03  0.73135414555E+03  0.00000000000E+00 0. -1.
         22    1    1    2    0    0  0.14142452360E+04  0.46461506873E+03 -0.71428697641E+03  0.16511095161E+04  0.00000000000E+00 0.  1.
<mgrwt>
<rscale>  0 0.35222476E+04</rscale>
<asrwt>0</asrwt>
<pdfrwt beam="1">  1        1 0.30915232E+00 0.35222476E+04</pdfrwt>
<pdfrwt beam="2">  1       -1 0.23745459E+00 0.35222476E+04</pdfrwt>
<totfact> 0.20148444E-01</totfact>
</mgrwt>
</event>
<event>
 6    1  0.5026615E-004  0.2967497E+04  0.7818608E-02  0.8253074E-01
          2   -1    0    0  501    0  0.00000000000E+00  0.00000000000E+00  0.16511538523E+04  0.16511538523E+04  0.00000000000E+00 0.  1.
         -2   -1    0    0    0  501 -0.00000000000E+00 -0.00000000000E+00 -0.13333157835E+04  0.13333157835E+04  0.00000000000E+00 0. -1.
         23    2    1    2    0    0  0.41451650791E+03  0.15360362165E+03  0.15820437572E+04  0.16452034073E+04  0.91726734549E+02 0.  0.
         13    1    3    3    0    0  0.23989976960E+03  0.13649642935E+03  0.96145162170E+03  0.10002861568E+04  0.00000000000E+00 0. -1.
        -13    1    3    3    0    0  0.17461673831E+03  0.17107192301E+02  0.62059213553E+03  0.64491725051E+03  0.00000000000E+00 0.  1.
         22    1    1    2    0    0 -0.41451650791E+03 -0.15360362165E+03 -0.12642056884E+04  0.13392662284E+04  0.00000000000E+00 0. -1.
<mgrwt>
<rscale>  0 0.29674969E+04</rscale>
<asrwt>0</asrwt>
<pdfrwt beam="1">  1        2 0.25402367E+00 0.29674969E+04</pdfrwt>
<pdfrwt beam="2">  1       -2 0.20512551E+00 0.29674969E+04</pdfrwt>
<totfact> 0.11035755E+00</totfact>
</mgrwt>
</event>
<event>
 6    1  0.5026615E-004  0.3772309E+04  0.7818608E-02  0.8052123E-01
         -2   -1    0    0    0  501 -0.00000000000E+00  0.00000000000E+00  0.16156194418E+04  0.16156194418E+04  0.00000000000E+00 0. -1.
          2   -1    0    0  501    0  0.00000000000E+00 -0.00000000000E+00 -0.22019908395E+04  0.22019908395E+04  0.00000000000E+00 0.  1.
         23    2    1    2    0    0  0.19488013341E+03  0.14252694906E+04  0.93940968997E+03  0.17206173593E+04  0.93070641178E+02 0.  0.
         11    1    3    3    0    0  0.10986389310E+03  0.64087747078E+03  0.37593239359E+03  0.75107867238E+03  0.00000000000E+00 0. -1.
        -11    1    3    3    0    0  0.85016240308E+02  0.78439201986E+03  0.56347729638E+03  0.96953868694E+03  0.00000000000E+00 0.  1.
         22    1    1    2    0    0 -0.19488013341E+03 -0.14252694906E+04 -0.15257810877E+04  0.20969929220E+04  0.00000000000E+00 0.  1.
<mgrwt>
<rscale>  0 0.37723092E+04</rscale>
<asrwt>0</asrwt>
<pdfrwt beam="1">  1        2 0.33876782E+00 0.37723092E+04</pdfrwt>
<pdfrwt beam="2">  1       -2 0.24855684E+00 0.37723092E+04</pdfrwt>
<totfact> 0.27150388E-01</totfact>
</mgrwt>
</event>
<event>
 6    1  0.5026615E-004  0.1272165E+04  0.7818608E-02  0.9051935E-01
         -2   -1    0    0    0  501 -0.00000000000E+00  0.00000000000E+00  0.76899730614E+03  0.76899730614E+03  0.00000000000E+00 0. -1.
          2   -1    0    0  501    0  0.00000000000E+00 -0.00000000000E+00 -0.52614070489E+03  0.52614070489E+03  0.00000000000E+00 0.  1.
         23    2    1    2    0    0  0.42815870502E+03 -0.34254659938E+03  0.44376434571E+03  0.71116714599E+03  0.90409433101E+02 0.  0.
         11    1    3    3    0    0  0.21541925838E+03 -0.11573870020E+03  0.18548039664E+03  0.30692650773E+03  0.00000000000E+00 0. -1.
        -11    1    3    3    0    0  0.21273944663E+03 -0.22680789917E+03  0.25828394907E+03  0.40424063827E+03  0.00000000000E+00 0.  1.
         22    1    1    2    0    0 -0.42815870502E+03  0.34254659938E+03 -0.20090774446E+03  0.58397086504E+03  0.00000000000E+00 0.  1.
<mgrwt>
<rscale>  0 0.12721647E+04</rscale>
<asrwt>0</asrwt>
<pdfrwt beam="1">  1        2 0.80944724E-01 0.12721647E+04</pdfrwt>
<pdfrwt beam="2">  1       -2 0.11830728E+00 0.12721647E+04</pdfrwt>
<totfact> 0.31330718E+01</totfact>
</mgrwt>
</event>
<event>
 6    1  0.5026615E-004  0.1816533E+04  0.7818608E-02  0.8697556E-01
         -2   -1    0    0    0  501 -0.00000000000E+00  0.00000000000E+00  0.25634419092E+03  0.25634419092E+03  0.00000000000E+00 0. -1.
          2   -1    0    0  501    0  0.00000000000E+00 -0.00000000000E+00 -0.32181270348E+04  0.32181270348E+04  0.00000000000E+00 0.  1.
         23    2    1    2    0    0 -0.50697005083E+03  0.70016859212E+03 -0.96594466623E+03  0.12994712898E+04  0.91224147070E+02 0.  0.
         13    1    3    3    0    0 -0.59950814181E+02  0.61550202304E+02 -0.13580954295E+03  0.16070706108E+03  0.00000000000E+00 0. -1.
        -13    1    3    3    0    0 -0.44701923665E+03  0.63861838981E+03 -0.83013512327E+03  0.11387642287E+04  0.00000000000E+00 0.  1.
         22    1    1    2    0    0  0.50697005083E+03 -0.70016859212E+03 -0.19958381777E+04  0.21749999359E+04  0.00000000000E+00 0.  1.
<mgrwt>
<rscale>  0 0.18165331E+04</rscale>
<asrwt>0</asrwt>
<pdfrwt beam="1">  1        2 0.49509648E+00 0.18165331E+04</pdfrwt>
<pdfrwt beam="2">  1       -2 0.39437567E-01 0.18165331E+04</pdfrwt>
<totfact> 0.72727448E+00</totfact>
</mgrwt>
</event>
<event>
 6    1  0.5026615E-004  0.4133966E+04  0.7818608E-02  0.7978053E-01
          2   -1    0    0  501    0  0.00000000000E+00  0.00000000000E+00  0.24611143496E+04  0.24611143496E+04  0.00000000000E+00 0.  1.
         -2   -1    0    0    0  501 -0.00000000000E+00 -0.00000000000E+00 -0.17359693620E+04  0.17359693620E+04  0.00000000000E+00 0. -1.
         23    2    1    2    0    0 -0.10532072219E+04  0.14659674808E+04 -0.65765146776E+03  0.19232252850E+04  0.89352876105E+02 0.  0.
         13    1    3    3    0    0 -0.31099386302E+03  0.47045729324E+03 -0.16823012833E+03  0.58851391120E+03  0.00000000000E+00 0. -1.
        -13    1    3    3    0    0 -0.74221335891E+03  0.99551018761E+03 -0.48942133944E+03  0.13347113738E+04  0.00000000000E+00 0.  1.
         22    1    1    2    0    0  0.10532072219E+04 -0.14659674808E+04  0.13827964554E+04  0.22738584266E+04  0.00000000000E+00 0.  1.
<mgrwt>
<rscale>  0 0.41339662E+04</rscale>
<asrwt>0</asrwt>
<pdfrwt beam="1">  1        2 0.37863298E+00 0.41339662E+04</pdfrwt>
<pdfrwt beam="2">  1       -2 0.26707221E+00 0.41339662E+04</pdfrwt>
<totfact> 0.14450902E-01</totfact>
</mgrwt>
</event>
<event>
 6    1  0.5026615E-004  0.4174267E+04  0.7818608E-02  0.7970285E-01
         -2   -1    0    0    0  501 -0.00000000000E+00  0.00000000000E+00  0.15845720977E+04  0.15845720977E+04  0.00000000000E+00 0. -1.
          2   -1    0    0  501    0  0.00000000000E+00 -0.00000000000E+00 -0.27490864885E+04  0.27490864885E+04  0.00000000000E+00 0.  1.
         23    2    1    2    0    0  0.19680979786E+04  0.47897831937E+03 -0.11008859824E+04  0.23071151107E+04  0.89444419385E+02 0.  0.
         13    1    3    3    0    0  0.15284010438E+04  0.36618906160E+03 -0.81162660398E+03  0.17688532794E+04  0.00000000000E+00 0. -1.
        -13    1    3    3    0    0  0.43969693472E+03  0.11278925777E+03 -0.28925937840E+03  0.53826183133E+03  0.00000000000E+00 0.  1.
         22    1    1    2    0    0 -0.19680979786E+04 -0.47897831937E+03 -0.63628408371E+02  0.20265434755E+04  0.00000000000E+00 0. -1.
<mgrwt>
<rscale>  0 0.41742668E+04</rscale>
<asrwt>0</asrwt>
<pdfrwt beam="1">  1        2 0.42293638E+00 0.41742668E+04</pdfrwt>
<pdfrwt beam="2">  1       -2 0.24378033E+00 0.41742668E+04</pdfrwt>
<totfact> 0.13548610E-01</totfact>
</mgrwt>
</event>
<event>
 6    1  0.5026615E-004  0.1110622E+04  0.7818608E-02  0.9194900E-01
         -4   -1    0    0    0  501 -0.00000000000E+00  0.00000000000E+00  0.10836598260E+04  0.10836598260E+04  0.00000000000E+00 0. -1.
          4   -1    0    0  501    0  0.00000000000E+00 -0.00000000000E+00 -0.28456378572E+03  0.28456378572E+03  0.00000000000E+00 0.  1.
         23    2    1    2    0    0  0.38180702824E+03  0.37612418642E+03  0.24271109854E+03  0.59568868447E+03  0.93221891306E+02 0.  0.
         13    1    3    3    0    0  0.68974303205E+02  0.40966833318E+02  0.67628044423E+02  0.10492515584E+03  0.00000000000E+00 0.  1.
        -13    1    3    3    0    0  0.31283272504E+03  0.33515735311E+03  0.17508305412E+03  0.49076352863E+03  0.00000000000E+00 0. -1.
         22    1    1    2    0    0 -0.38180702824E+03 -0.37612418642E+03  0.55638494168E+03  0.77253492721E+03  0.00000000000E+00 0. -1.
<mgrwt>
<rscale>  0 0.11106221E+04</rscale>
<asrwt>0</asrwt>
<pdfrwt beam="1">  1        4 0.43779044E-01 0.11106221E+04</pdfrwt>
<pdfrwt beam="2">  1       -4 0.16671689E+00 0.11106221E+04</pdfrwt>
<totfact> 0.22429000E+00</totfact>
</mgrwt>
</event>
<event>
 6    1  0.5026615E-004  0.2064376E+04  0.7818608E-02  0.8577100E-01
         -2   -1    0    0    0  501 -0.00000000000E+00  0.00000000000E+00  0.23488976967E+03  0.23488976967E+03  0.00000000000E+00 0. -1.
          2   -1    0    0  501    0  0.00000000000E+00 -0.00000000000E+00 -0.45357976179E+04  0.45357976179E+04  0.00000000000E+00 0.  1.
         23    2    1    2    0    0  0.74233591891E+03  0.10800701720E+03 -0.52293390741E+03  0.91895852512E+03  0.91086591262E+02 0.  0.
         13    1    3    3    0    0  0.52861779677E+02  0.82980643506E+01 -0.11487549402E+02  0.54728323690E+02  0.00000000000E+00 0.  1.
        -13    1    3    3    0    0  0.68947413923E+03  0.99708952850E+02 -0.51144635801E+03  0.86423020143E+03  0.00000000000E+00 0. -1.
         22    1    1    2    0    0 -0.74233591891E+03 -0.10800701720E+03 -0.37779739408E+04  0.38517288625E+04  0.00000000000E+00 0.  1.
<mgrwt>
<rscale>  0 0.20643764E+04</rscale>
<asrwt>0</asrwt>
<pdfrwt beam="1">  1        2 0.69781496E+00 0.20643764E+04</pdfrwt>
<pdfrwt beam="2">  1       -2 0.36136891E-01 0.20643764E+04</pdfrwt>
<totfact> 0.76721258E-01</totfact>
</mgrwt>
</event>
<event>
 6    1  0.5026615E-004  0.1560644E+04  0.7818608E-02  0.8845097E-01
          1   -1    0    0  501    0  0.00000000000E+00  0.00000000000E+00  0.18492167842E+04  0.18492167842E+04  0.00000000000E+00 0.  1.
         -1   -1    0    0    0  501 -0.00000000000E+00 -0.00000000000E+00 -0.32927583345E+03  0.32927583345E+03  0.00000000000E+00 0. -1.
         23    2    1    2    0    0 -0.61814113728E+03  0.34403845862E+03  0.31163392418E+03  0.77832591433E+03  0.90634428320E+02 0.  0.
         13    1    3    3    0    0 -0.48278332346E+03  0.22567427206E+03  0.24531097789E+03  0.58667375121E+03  0.00000000000E+00 0. -1.
        -13    1    3    3    0    0 -0.13535781382E+03  0.11836418656E+03  0.66322946289E+02  0.19165216311E+03  0.00000000000E+00 0.  1.
         22    1    1    2    0    0  0.61814113728E+03 -0.34403845862E+03  0.12083070265E+04  0.14001667033E+04  0.00000000000E+00 0.  1.
<mgrwt>
<rscale>  0 0.15606440E+04</rscale>
<asrwt>0</asrwt>
<pdfrwt beam="1">  1        1 0.28449488E+00 0.15606440E+04</pdfrwt>
<pdfrwt beam="2">  1       -1 0.50657822E-01 0.15606440E+04</pdfrwt>
<totfact> 0.14218231E+01</totfact>
</mgrwt>
</event>
<event>
 6    1  0.5026615E-004  0.1225288E+04  0.7818608E-02  0.9091006E-01
         -2   -1    0    0    0  501 -0.00000000000E+00  0.00000000000E+00  0.26838075358E+03  0.26838075358E+03  0.00000000000E+00 0. -1.
          2   -1    0    0  501    0  0.00000000000E+00 -0.00000000000E+00 -0.13985081007E+04  0.13985081007E+04  0.00000000000E+00 0.  1.
         23    2    1    2    0    0  0.38806674089E+03  0.45053128827E+03 -0.74878023576E+03  0.96048963537E+03  0.91072834022E+02 0.  0.
         11    1    3    3    0    0  0.74720862936E+02  0.12387757759E+03 -0.13516544375E+03  0.19798625905E+03  0.00000000000E+00 0. -1.
        -11    1    3    3    0    0  0.31334587795E+03  0.32665371068E+03 -0.61361479201E+03  0.76250337633E+03  0.00000000000E+00 0.  1.
         22    1    1    2    0    0 -0.38806674089E+03 -0.45053128827E+03 -0.38134711132E+03  0.70639921886E+03  0.00000000000E+00 0.  1.
<mgrwt>
<rscale>  0 0.12252880E+04</rscale>
<asrwt>0</asrwt>
<pdfrwt beam="1">  1        2 0.21515510E+00 0.12252880E+04</pdfrwt>
<pdfrwt beam="2">  1       -2 0.41289346E-01 0.12252880E+04</pdfrwt>
<totfact> 0.79324411E+01</totfact>
</mgrwt>
</event>
<event>
 6    1  0.5026615E-004  0.1742119E+04  0.7818608E-02  0.8737700E-01
         -2   -1    0    0    0  501 -0.00000000000E+00  0.00000000000E+00  0.37416490028E+03  0.37416490028E+03  0.00000000000E+00 0. -1.
          2   -1    0    0  501    0  0.00000000000E+00 -0.00000000000E+00 -0.20278353978E+04  0.20278353978E+04  0.00000000000E+00 0.  1.
         23    2    1    2    0    0 -0.44633075513E+03  0.73182733282E+03 -0.10247192204E+04  0.13388154143E+04  0.87148407525E+02 0.  0.
         13    1    3    3    0    0 -0.41351627402E+02  0.42419132877E+02 -0.45900564395E+02  0.74941321943E+02  0.00000000000E+00 0.  1.
        -13    1    3    3    0    0 -0.40497912773E+03  0.68940819994E+03 -0.97881865604E+03  0.12638740924E+04  0.00000000000E+00 0. -1.
         22    1    1    2    0    0  0.44633075513E+03 -0.73182733282E+03 -0.62895127706E+03  0.10631848837E+04  0.00000000000E+00 0. -1.
<mgrwt>
<rscale>  0 0.17421192E+04</rscale>
<asrwt>0</asrwt>
<pdfrwt beam="1">  1        2 0.31197468E+00 0.17421192E+04</pdfrwt>
<pdfrwt beam="2">  1       -2 0.57563830E-01 0.17421192E+04</pdfrwt>
<totfact> 0.17283548E+01</totfact>
</mgrwt>
</event>
<event>
 6    1  0.5026615E-004  0.1564929E+04  0.7818608E-02  0.8842388E-01
         -2   -1    0    0    0  501 -0.00000000000E+00  0.00000000000E+00  0.22908179218E+03  0.22908179218E+03  0.00000000000E+00 0. -1.
          2   -1    0    0  501    0  0.00000000000E+00 -0.00000000000E+00 -0.26726308213E+04  0.26726308213E+04  0.00000000000E+00 0.  1.
         23    2    1    2    0    0 -0.28951063912E+03  0.30883390292E+03 -0.11705589917E+02  0.43330071460E+03  0.91748017316E+02 0.  0.
         11    1    3    3    0    0 -0.70297627270E+02  0.38205040226E+02  0.23142153103E+02  0.83288298990E+02  0.00000000000E+00 0. -1.
        -11    1    3    3    0    0 -0.21921301185E+03  0.27062886270E+03 -0.34847743020E+02  0.35001241561E+03  0.00000000000E+00 0.  1.
         22    1    1    2    0    0  0.28951063912E+03 -0.30883390292E+03 -0.24318434392E+04  0.24684118988E+04  0.00000000000E+00 0.  1.
<mgrwt>
<rscale>  0 0.15649295E+04</rscale>
<asrwt>0</asrwt>
<pdfrwt beam="1">  1        2 0.41117400E+00 0.15649295E+04</pdfrwt>
<pdfrwt beam="2">  1       -2 0.35243350E-01 0.15649295E+04</pdfrwt>
<totfact> 0.20110141E+01</totfact>
</mgrwt>
</event>
<event>
 6    1  0.5026615E-004  0.2708886E+04  0.7818608E-02  0.8332128E-01
         -2   -1    0    0    0  501 -0.00000000000E+00  0.00000000000E+00  0.88894924513E+03  0.88894924513E+03  0.00000000000E+00 0. -1.
          2   -1    0    0  501    0  0.00000000000E+00 -0.00000000000E+00 -0.20636902533E+04  0.20636902533E+04  0.00000000000E+00 0.  1.
         23    2    1    2    0    0  0.12573505097E+04  0.41300207355E+03 -0.89452203935E+03  0.15998558175E+04  0.88701413362E+02 0.  0.
         11    1    3    3    0    0  0.64022482293E+03  0.23062243745E+03 -0.50784213119E+03  0.84910432973E+03  0.00000000000E+00 0. -1.
        -11    1    3    3    0    0  0.61712568679E+03  0.18237963610E+03 -0.38667990816E+03  0.75075148773E+03  0.00000000000E+00 0.  1.
         22    1    1    2    0    0 -0.12573505097E+04 -0.41300207355E+03 -0.28021896885E+03  0.13527836810E+04  0.00000000000E+00 0. -1.
<mgrwt>
<rscale>  0 0.27088860E+04</rscale>
<asrwt>0</asrwt>
<pdfrwt beam="1">  1        2 0.31749080E+00 0.27088860E+04</pdfrwt>
<pdfrwt beam="2">  1       -2 0.13676143E+00 0.27088860E+04</pdfrwt>
<totfact> 0.20598465E+00</totfact>
</mgrwt>
</event>
<event>
 6    1  0.5026615E-004  0.3078939E+04  0.7818608E-02  0.8221542E-01
         -2   -1    0    0    0  501 -0.00000000000E+00  0.00000000000E+00  0.57675214861E+03  0.57675214861E+03  0.00000000000E+00 0.  1.
          2   -1    0    0  501    0  0.00000000000E+00 -0.00000000000E+00 -0.41091599158E+04  0.41091599158E+04  0.00000000000E+00 0. -1.
         23    2    1    2    0    0  0.12142800370E+04 -0.38270862465E+03 -0.30807850676E+04  0.33350216312E+04  0.10094923697E+03 0.  0.
         13    1    3    3    0    0  0.56129123591E+03 -0.22877176820E+03 -0.14875933649E+04  0.16063369487E+04  0.00000000000E+00 0.  1.
        -13    1    3    3    0    0  0.65298880109E+03 -0.15393685644E+03 -0.15931917027E+04  0.17286846825E+04  0.00000000000E+00 0. -1.
         22    1    1    2    0    0 -0.12142800370E+04  0.38270862465E+03 -0.45162269960E+03  0.13508904332E+04  0.00000000000E+00 0.  1.
<mgrwt>
<rscale>  0 0.30789393E+04</rscale>
<asrwt>0</asrwt>
<pdfrwt beam="1">  1        2 0.63217845E+00 0.30789393E+04</pdfrwt>
<pdfrwt beam="2">  1       -2 0.88731100E-01 0.30789393E+04</pdfrwt>
<totfact> 0.25793015E-01</totfact>
</mgrwt>
</event>
<event>
 6    1  0.5026615E-004  0.2461233E+04  0.7818608E-02  0.8416928E-01
         -2   -1    0    0    0  501 -0.00000000000E+00  0.00000000000E+00  0.16517334983E+04  0.16517334983E+04  0.00000000000E+00 0.  1.
          2   -1    0    0  501    0  0.00000000000E+00 -0.00000000000E+00 -0.91686555774E+03  0.91686555774E+03  0.00000000000E+00 0. -1.
         23    2    1    2    0    0 -0.74150567162E+03  0.68869640689E+03 -0.35981519612E+03  0.10778057868E+04  0.89804993079E+02 0.  0.
         13    1    3    3    0    0 -0.38296268388E+03  0.30609963280E+03 -0.14593893349E+03  0.51152279984E+03  0.00000000000E+00 0.  1.
        -13    1    3    3    0    0 -0.35854298774E+03  0.38259677409E+03 -0.21387626263E+03  0.56628298696E+03  0.00000000000E+00 0. -1.
         22    1    1    2    0    0  0.74150567162E+03 -0.68869640689E+03  0.10946831367E+04  0.14907932693E+04  0.00000000000E+00 0.  1.
<mgrwt>
<rscale>  0 0.24612335E+04</rscale>
<asrwt>0</asrwt>
<pdfrwt beam="1">  1        2 0.14105624E+00 0.24612335E+04</pdfrwt>
<pdfrwt beam="2">  1       -2 0.25411284E+00 0.24612335E+04</pdfrwt>
<totfact> 0.15492345E+00</totfact>
</mgrwt>
</event>
<event>
 6    1  0.5026615E-004  0.1420604E+04  0.7818608E-02  0.8939038E-01
          2   -1    0    0  501    0  0.00000000000E+00  0.00000000000E+00  0.49524068561E+03  0.49524068561E+03  0.00000000000E+00 0.  1.
         -2   -1    0    0    0  501 -0.00000000000E+00 -0.00000000000E+00 -0.10187550521E+04  0.10187550521E+04  0.00000000000E+00 0. -1.
         23    2    1    2    0    0  0.32972720999E+03  0.36616517073E+03  0.27796460554E+03  0.57316338928E+03  0.91950984820E+02 0.  0.
         11    1    3    3    0    0  0.23265550775E+03  0.20522009757E+03  0.14198843403E+03  0.34118116761E+03  0.00000000000E+00 0.  1.
        -11    1    3    3    0    0  0.97071702240E+02  0.16094507316E+03  0.13597617151E+03  0.23198222167E+03  0.00000000000E+00 0. -1.
         22    1    1    2    0    0 -0.32972720999E+03 -0.36616517073E+03 -0.80147897205E+03  0.94083234846E+03  0.00000000000E+00 0. -1.
<mgrwt>
<rscale>  0 0.14206040E+04</rscale>
<asrwt>0</asrwt>
<pdfrwt beam="1">  1        2 0.76190875E-01 0.14206040E+04</pdfrwt>
<pdfrwt beam="2">  1       -2 0.15673155E+00 0.14206040E+04</pdfrwt>
<totfact> 0.16106682E+01</totfact>
</mgrwt>
</event>
<event>
 6    1  0.5026615E-004  0.1070666E+04  0.7818608E-02  0.9234264E-01
          2   -1    0    0  501    0  0.00000000000E+00  0.00000000000E+00  0.26366428441E+03  0.26366428441E+03  0.00000000000E+00 0.  1.
         -2   -1    0    0    0  501 -0.00000000000E+00 -0.00000000000E+00 -0.10869171297E+04  0.10869171297E+04  0.00000000000E+00 0. -1.
         23    2    1    2    0    0 -0.79764727921E+01 -0.48638316821E+03 -0.14411271840E+03  0.51519915287E+03  0.89607371803E+02 0.  0.
         13    1    3    3    0    0  0.33280654979E+02 -0.19745751118E+03 -0.33188331358E+02  0.20297422510E+03  0.00000000000E+00 0.  1.
        -13    1    3    3    0    0 -0.41257127771E+02 -0.28892565703E+03 -0.11092438704E+03  0.31222492777E+03  0.00000000000E+00 0. -1.
         22    1    1    2    0    0  0.79764727921E+01  0.48638316821E+03 -0.67914012689E+03  0.83538226123E+03  0.00000000000E+00 0. -1.
<mgrwt>
<rscale>  0 0.10706656E+04</rscale>
<asrwt>0</asrwt>
<pdfrwt beam="1">  1        2 0.40563736E-01 0.10706656E+04</pdfrwt>
<pdfrwt beam="2">  1       -2 0.16721802E+00 0.10706656E+04</pdfrwt>
<totfact> 0.28113461E+01</totfact>
</mgrwt>
</event>
<event>
 6    1  0.5026615E-004  0.1729241E+04  0.7818608E-02  0.8744861E-01
          2   -1    0    0  501    0  0.00000000000E+00  0.00000000000E+00  0.13868857557E+04  0.13868857557E+04  0.00000000000E+00 0.  1.
         -2   -1    0    0    0  501 -0.00000000000E+00 -0.00000000000E+00 -0.53902650160E+03  0.53902650160E+03  0.00000000000E+00 0. -1.
         23    2    1    2    0    0 -0.17660441230E+03 -0.22182193163E+03  0.13319122939E+04  0.13649296968E+04  0.92998015233E+02 0.  0.
         13    1    3    3    0    0 -0.15525316462E+03 -0.12559228324E+03  0.87199192482E+03  0.89456519253E+03  0.00000000000E+00 0.  1.
        -13    1    3    3    0    0 -0.21351247682E+02 -0.96229648393E+02  0.45992036910E+03  0.47036450432E+03  0.00000000000E+00 0. -1.
         22    1    1    2    0    0  0.17660441230E+03  0.22182193163E+03 -0.48405303981E+03  0.56098256047E+03  0.00000000000E+00 0. -1.
<mgrwt>
<rscale>  0 0.17292405E+04</rscale>
<asrwt>0</asrwt>
<pdfrwt beam="1">  1        2 0.21336704E+00 0.17292405E+04</pdfrwt>
<pdfrwt beam="2">  1       -2 0.82927155E-01 0.17292405E+04</pdfrwt>
<totfact> 0.17815532E+01</totfact>
</mgrwt>
</event>
<event>
 6    1  0.5026615E-004  0.7100356E+03  0.7818608E-02  0.9700222E-01
          2   -1    0    0  501    0  0.00000000000E+00  0.00000000000E+00  0.72444992911E+03  0.72444992911E+03  0.00000000000E+00 0.  1.
         -2   -1    0    0    0  501 -0.00000000000E+00 -0.00000000000E+00 -0.17397700347E+03  0.17397700347E+03  0.00000000000E+00 0. -1.
         23    2    1    2    0    0  0.24725635643E+03 -0.23111089712E+03  0.38807341957E+03  0.52303173797E+03  0.91723864866E+02 0.  0.
         13    1    3    3    0    0  0.37038135547E+02 -0.56148315667E+01  0.18569862586E+02  0.41811357485E+02  0.00000000000E+00 0.  1.
        -13    1    3    3    0    0  0.21021822088E+03 -0.22549606556E+03  0.36950355699E+03  0.48122038049E+03  0.00000000000E+00 0. -1.
         22    1    1    2    0    0 -0.24725635643E+03  0.23111089712E+03  0.16239950607E+03  0.37539519461E+03  0.00000000000E+00 0.  1.
<mgrwt>
<rscale>  0 0.71003557E+03</rscale>
<asrwt>0</asrwt>
<pdfrwt beam="1">  1        2 0.11145383E+00 0.71003557E+03</pdfrwt>
<pdfrwt beam="2">  1       -2 0.26765693E-01 0.71003557E+03</pdfrwt>
<totfact> 0.49933375E+02</totfact>
</mgrwt>
</event>
<event>
 6    1  0.5026615E-004  0.3273606E+04  0.7818608E-02  0.8169644E-01
          2   -1    0    0  501    0  0.00000000000E+00  0.00000000000E+00  0.50501903758E+04  0.50501903758E+04  0.00000000000E+00 0. -1.
         -2   -1    0    0    0  501 -0.00000000000E+00 -0.00000000000E+00 -0.53049973314E+03  0.53049973314E+03  0.00000000000E+00 0.  1.
         23    2    1    2    0    0  0.14445388667E+04  0.15638939542E+03  0.35419077546E+04  0.38293450383E+04  0.87308072652E+02 0.  0.
         11    1    3    3    0    0  0.35102881118E+03  0.19114264100E+02  0.77395492166E+03  0.85005458774E+03  0.00000000000E+00 0.  1.
        -11    1    3    3    0    0  0.10935100555E+04  0.13727513132E+03  0.27679528330E+04  0.29792904505E+04  0.00000000000E+00 0. -1.
         22    1    1    2    0    0 -0.14445388667E+04 -0.15638939542E+03  0.97778288802E+03  0.17513450706E+04  0.00000000000E+00 0.  1.
<mgrwt>
<rscale>  0 0.32736064E+04</rscale>
<asrwt>0</asrwt>
<pdfrwt beam="1">  1        2 0.77695233E+00 0.32736064E+04</pdfrwt>
<pdfrwt beam="2">  1       -2 0.81615347E-01 0.32736064E+04</pdfrwt>
<totfact> 0.32569724E-02</totfact>
</mgrwt>
</event>
<event>
 6    1  0.5026615E-004  0.2487650E+04  0.7818608E-02  0.8407399E-01
          2   -1    0    0  501    0  0.00000000000E+00  0.00000000000E+00  0.13622827701E+04  0.13622827701E+04  0.00000000000E+00 0.  1.
         -2   -1    0    0    0  501 -0.00000000000E+00 -0.00000000000E+00 -0.11356677076E+04  0.11356677076E+04  0.00000000000E+00 0. -1.
         23    2    1    2    0    0  0.69366479619E+03  0.43695930169E+03 -0.82387752330E+03  0.11654194448E+04  0.85580535912E+02 0.  0.
         13    1    3    3    0    0  0.54725930518E+03  0.34454914929E+03 -0.69684338287E+03  0.95068268294E+03  0.00000000000E+00 0.  1.
        -13    1    3    3    0    0  0.14640549101E+03  0.92410152399E+02 -0.12703414043E+03  0.21473676187E+03  0.00000000000E+00 0. -1.
         22    1    1    2    0    0 -0.69366479619E+03 -0.43695930169E+03  0.10504925858E+04  0.13325310329E+04  0.00000000000E+00 0.  1.
<mgrwt>
<rscale>  0 0.24876499E+04</rscale>
<asrwt>0</asrwt>
<pdfrwt beam="1">  1        2 0.20958196E+00 0.24876499E+04</pdfrwt>
<pdfrwt beam="2">  1       -2 0.17471811E+00 0.24876499E+04</pdfrwt>
<totfact> 0.26807744E+00</totfact>
</mgrwt>
</event>
<event>
 6    1  0.5026615E-004  0.2307747E+04  0.7818608E-02  0.8474873E-01
         -2   -1    0    0    0  501 -0.00000000000E+00  0.00000000000E+00  0.12204294048E+04  0.12204294048E+04  0.00000000000E+00 0. -1.
          2   -1    0    0  501    0  0.00000000000E+00 -0.00000000000E+00 -0.10909470477E+04  0.10909470477E+04  0.00000000000E+00 0.  1.
         23    2    1    2    0    0 -0.42013431576E+03  0.10366670886E+04 -0.21152786683E+03  0.11419836748E+04  0.90505134121E+02 0.  0.
         13    1    3    3    0    0 -0.21679892418E+03  0.64701033584E+03 -0.14228080794E+03  0.69704230612E+03  0.00000000000E+00 0.  1.
        -13    1    3    3    0    0 -0.20333539158E+03  0.38965675274E+03 -0.69247058886E+02  0.44494136871E+03  0.00000000000E+00 0. -1.
         22    1    1    2    0    0  0.42013431576E+03 -0.10366670886E+04  0.34101022392E+03  0.11693927777E+04  0.00000000000E+00 0. -1.
<mgrwt>
<rscale>  0 0.23077468E+04</rscale>
<asrwt>0</asrwt>
<pdfrwt beam="1">  1        2 0.16783801E+00 0.23077468E+04</pdfrwt>
<pdfrwt beam="2">  1       -2 0.18775837E+00 0.23077468E+04</pdfrwt>
<totfact> 0.32086181E+00</totfact>
</mgrwt>
</event>
<event>
 6    1  0.5026615E-004  0.2658990E+04  0.7818608E-02  0.8348435E-01
          1   -1    0    0  501    0  0.00000000000E+00  0.00000000000E+00  0.28784482316E+04  0.28784482316E+04  0.00000000000E+00 0.  1.
         -1   -1    0    0    0  501 -0.00000000000E+00 -0.00000000000E+00 -0.61406597391E+03  0.61406597391E+03  0.00000000000E+00 0. -1.
         23    2    1    2    0    0  0.78617881115E+03 -0.68319500198E+03  0.51474614155E+02  0.10467438212E+04  0.90501146675E+02 0.  0.
         13    1    3    3    0    0  0.40372861804E+03 -0.30505885303E+03 -0.42587912631E+01  0.50603936422E+03  0.00000000000E+00 0.  1.
        -13    1    3    3    0    0  0.38245019311E+03 -0.37813614894E+03  0.55733405418E+02  0.54070445701E+03  0.00000000000E+00 0. -1.
         22    1    1    2    0    0 -0.78617881115E+03  0.68319500198E+03  0.22129076435E+04  0.24457703843E+04  0.00000000000E+00 0.  1.
<mgrwt>
<rscale>  0 0.26589901E+04</rscale>
<asrwt>0</asrwt>
<pdfrwt beam="1">  1        1 0.44283818E+00 0.26589901E+04</pdfrwt>
<pdfrwt beam="2">  1       -1 0.94471690E-01 0.26589901E+04</pdfrwt>
<totfact> 0.69535137E-01</totfact>
</mgrwt>
</event>
<event>
 6    1  0.5026615E-004  0.4170633E+04  0.7818608E-02  0.7970982E-01
         -2   -1    0    0    0  501 -0.00000000000E+00  0.00000000000E+00  0.34905412227E+04  0.34905412227E+04  0.00000000000E+00 0. -1.
          2   -1    0    0  501    0  0.00000000000E+00 -0.00000000000E+00 -0.12458079940E+04  0.12458079940E+04  0.00000000000E+00 0.  1.
         23    2    1    2    0    0 -0.20614392002E+04 -0.16990489501E+03  0.14143857075E+04  0.25074759014E+04  0.92461976601E+02 0.  0.
         11    1    3    3    0    0 -0.62225455447E+03 -0.13600192527E+02  0.44919554727E+03  0.76756910795E+03  0.00000000000E+00 0.  1.
        -11    1    3    3    0    0 -0.14391846458E+04 -0.15630470249E+03  0.96519016020E+03  0.17399067935E+04  0.00000000000E+00 0. -1.
         22    1    1    2    0    0  0.20614392002E+04  0.16990489501E+03  0.83034752116E+03  0.22288733153E+04  0.00000000000E+00 0. -1.
<mgrwt>
<rscale>  0 0.41706326E+04</rscale>
<asrwt>0</asrwt>
<pdfrwt beam="1">  1        2 0.19166277E+00 0.41706326E+04</pdfrwt>
<pdfrwt beam="2">  1       -2 0.53700634E+00 0.41706326E+04</pdfrwt>
<totfact> 0.13888214E-02</totfact>
</mgrwt>
</event>
<event>
 6    1  0.5026615E-004  0.1311259E+04  0.7818608E-02  0.9020684E-01
         -2   -1    0    0    0  501 -0.00000000000E+00  0.00000000000E+00  0.32584745631E+03  0.32584745631E+03  0.00000000000E+00 0. -1.
          2   -1    0    0  501    0  0.00000000000E+00 -0.00000000000E+00 -0.13191754547E+04  0.13191754547E+04  0.00000000000E+00 0.  1.
         23    2    1    2    0    0 -0.33519458643E+03 -0.24752178152E+03  0.13072074268E+03  0.44622851021E+03  0.91703476804E+02 0.  0.
         13    1    3    3    0    0 -0.19172758033E+03 -0.99163617805E+02  0.34780605027E+02  0.21863800823E+03  0.00000000000E+00 0. -1.
        -13    1    3    3    0    0 -0.14346700611E+03 -0.14835816372E+03  0.95940137650E+02  0.22759050199E+03  0.00000000000E+00 0.  1.
         22    1    1    2    0    0  0.33519458643E+03  0.24752178152E+03 -0.11240487411E+04  0.11987944008E+04  0.00000000000E+00 0.  1.
<mgrwt>
<rscale>  0 0.13112589E+04</rscale>
<asrwt>0</asrwt>
<pdfrwt beam="1">  1        2 0.20295007E+00 0.13112589E+04</pdfrwt>
<pdfrwt beam="2">  1       -2 0.50130377E-01 0.13112589E+04</pdfrwt>
<totfact> 0.59382251E+01</totfact>
</mgrwt>
</event>
<event>
 6    1  0.5026615E-004  0.2022335E+04  0.7818608E-02  0.8596249E-01
          2   -1    0    0  501    0  0.00000000000E+00  0.00000000000E+00  0.17073577258E+04  0.17073577258E+04  0.00000000000E+00 0.  1.
         -2   -1    0    0    0  501 -0.00000000000E+00 -0.00000000000E+00 -0.59885503532E+03  0.59885503532E+03  0.00000000000E+00 0. -1.
         23    2    1    2    0    0  0.84269543727E+03  0.42089622388E+03  0.14220631731E+03  0.95676179423E+03  0.88776477486E+02 0.  0.
         11    1    3    3    0    0  0.22658193775E+03  0.13240091441E+03  0.76121669168E+02  0.27324693076E+03  0.00000000000E+00 0. -1.
        -11    1    3    3    0    0  0.61611349951E+03  0.28849530946E+03  0.66084648145E+02  0.68351486347E+03  0.00000000000E+00 0.  1.
         22    1    1    2    0    0 -0.84269543727E+03 -0.42089622388E+03  0.96629637316E+03  0.13494509669E+04  0.00000000000E+00 0. -1.
<mgrwt>
<rscale>  0 0.20223351E+04</rscale>
<asrwt>0</asrwt>
<pdfrwt beam="1">  1        2 0.26267042E+00 0.20223351E+04</pdfrwt>
<pdfrwt beam="2">  1       -2 0.92131545E-01 0.20223351E+04</pdfrwt>
<totfact> 0.90188286E+00</totfact>
</mgrwt>
</event>
<event>
 6    1  0.5026615E-004  0.2028491E+04  0.7818608E-02  0.8593415E-01
         -2   -1    0    0    0  501 -0.00000000000E+00  0.00000000000E+00  0.92360843582E+03  0.92360843582E+03  0.00000000000E+00 0. -1.
          2   -1    0    0  501    0  0.00000000000E+00 -0.00000000000E+00 -0.11137774961E+04  0.11137774961E+04  0.00000000000E+00 0.  1.
         23    2    1    2    0    0 -0.23576717881E+03 -0.79166731967E+03 -0.68276868522E+03  0.10756283230E+04  0.92086395255E+02 0.  0.
         11    1    3    3    0    0 -0.10212266478E+03 -0.45631463614E+03 -0.34335663839E+03  0.58012573374E+03  0.00000000000E+00 0. -1.
        -11    1    3    3    0    0 -0.13364451402E+03 -0.33535268352E+03 -0.33941204684E+03  0.49550258931E+03  0.00000000000E+00 0.  1.
         22    1    1    2    0    0  0.23576717881E+03  0.79166731967E+03  0.49259962497E+03  0.96175760884E+03  0.00000000000E+00 0. -1.
<mgrwt>
<rscale>  0 0.20284914E+04</rscale>
<asrwt>0</asrwt>
<pdfrwt beam="1">  1        2 0.17135038E+00 0.20284914E+04</pdfrwt>
<pdfrwt beam="2">  1       -2 0.14209361E+00 0.20284914E+04</pdfrwt>
<totfact> 0.68427891E+00</totfact>
</mgrwt>
</event>
<event>
 6    1  0.5026615E-004  0.2538285E+04  0.7818608E-02  0.8389472E-01
          2   -1    0    0  501    0  0.00000000000E+00  0.00000000000E+00  0.18178275155E+04  0.18178275155E+04  0.00000000000E+00 0.  1.
         -2   -1    0    0    0  501 -0.00000000000E+00 -0.00000000000E+00 -0.88606989377E+03  0.88606989377E+03  0.00000000000E+00 0. -1.
         23    2    1    2    0    0 -0.64440245432E+03 -0.23223112218E+03 -0.66962835956E+03  0.96216755700E+03  0.90434786361E+02 0.  0.
         11    1    3    3    0    0 -0.60750164034E+03 -0.21783682195E+03 -0.59559914526E+03  0.87820809940E+03  0.00000000000E+00 0. -1.
        -11    1    3    3    0    0 -0.36900813972E+02 -0.14394300226E+02 -0.74029214301E+02  0.83959457602E+02  0.00000000000E+00 0.  1.
         22    1    1    2    0    0  0.64440245432E+03  0.23223112218E+03  0.16013859813E+04  0.17417298523E+04  0.00000000000E+00 0.  1.
<mgrwt>
<rscale>  0 0.25382846E+04</rscale>
<asrwt>0</asrwt>
<pdfrwt beam="1">  1        2 0.27966577E+00 0.25382846E+04</pdfrwt>
<pdfrwt beam="2">  1       -2 0.13631845E+00 0.25382846E+04</pdfrwt>
<totfact> 0.28859819E+00</totfact>
</mgrwt>
</event>
<event>
 6    1  0.5026615E-004  0.5952127E+04  0.7818608E-02  0.7696366E-01
          2   -1    0    0  501    0  0.00000000000E+00  0.00000000000E+00  0.25651915266E+04  0.25651915266E+04  0.00000000000E+00 0.  1.
         -2   -1    0    0    0  501 -0.00000000000E+00 -0.00000000000E+00 -0.34527457154E+04  0.34527457154E+04  0.00000000000E+00 0. -1.
         23    2    1    2    0    0 -0.11335339364E+04  0.26833096526E+04  0.16932060212E+03  0.29192223147E+04  0.90219618670E+02 0.  0.
         13    1    3    3    0    0 -0.24910404302E+03  0.50721149673E+03  0.17262338903E+02  0.56534442158E+03  0.00000000000E+00 0.  1.
        -13    1    3    3    0    0 -0.88442989334E+03  0.21760981559E+04  0.15205826322E+03  0.23538778931E+04  0.00000000000E+00 0. -1.
         22    1    1    2    0    0  0.11335339364E+04 -0.26833096526E+04 -0.10568747910E+04  0.30987149273E+04  0.00000000000E+00 0.  1.
<mgrwt>
<rscale>  0 0.59521270E+04</rscale>
<asrwt>0</asrwt>
<pdfrwt beam="1">  1        2 0.39464485E+00 0.59521270E+04</pdfrwt>
<pdfrwt beam="2">  1       -2 0.53119164E+00 0.59521270E+04</pdfrwt>
<totfact> 0.23591486E-03</totfact>
</mgrwt>
</event>
<event>
 6    1  0.5026615E-004  0.1960243E+04  0.7818608E-02  0.8625437E-01
          2   -1    0    0  501    0  0.00000000000E+00  0.00000000000E+00  0.77870184547E+03  0.77870184547E+03  0.00000000000E+00 0.  1.
         -2   -1    0    0    0  501 -0.00000000000E+00 -0.00000000000E+00 -0.12336404753E+04  0.12336404753E+04  0.00000000000E+00 0. -1.
         23    2    1    2    0    0 -0.24151323031E+02  0.70770924863E+03 -0.92037946155E+03  0.11649517173E+04  0.92620102557E+02 0.  0.
         11    1    3    3    0    0  0.23120040299E+02  0.15786118066E+03 -0.25086915922E+03  0.29730459746E+03  0.00000000000E+00 0. -1.
        -11    1    3    3    0    0 -0.47271363330E+02  0.54984806797E+03 -0.66951030233E+03  0.86764711984E+03  0.00000000000E+00 0.  1.
         22    1    1    2    0    0  0.24151323031E+02 -0.70770924863E+03  0.46544083173E+03  0.84739060346E+03  0.00000000000E+00 0.  1.
<mgrwt>
<rscale>  0 0.19602430E+04</rscale>
<asrwt>0</asrwt>
<pdfrwt beam="1">  1        2 0.11980028E+00 0.19602430E+04</pdfrwt>
<pdfrwt beam="2">  1       -2 0.18979084E+00 0.19602430E+04</pdfrwt>
<totfact> 0.51714368E+00</totfact>
</mgrwt>
</event>
<event>
 6    1  0.5026615E-004  0.5673773E+04  0.7818608E-02  0.7732220E-01
         -2   -1    0    0    0  501 -0.00000000000E+00  0.00000000000E+00  0.16169051510E+04  0.16169051510E+04  0.00000000000E+00 0. -1.
          2   -1    0    0  501    0  0.00000000000E+00 -0.00000000000E+00 -0.49773643792E+04  0.49773643792E+04  0.00000000000E+00 0.  1.
         23    2    1    2    0    0  0.11891138332E+04 -0.94777748144E+03  0.11017080998E+04  0.18801194344E+04  0.93885502777E+02 0.  0.
         11    1    3    3    0    0  0.92980591242E+03 -0.69836651705E+03  0.81421575970E+03  0.14195781522E+04  0.00000000000E+00 0.  1.
        -11    1    3    3    0    0  0.25930792081E+03 -0.24941096440E+03  0.28749234007E+03  0.46054128214E+03  0.00000000000E+00 0. -1.
         22    1    1    2    0    0 -0.11891138332E+04  0.94777748144E+03 -0.44621673280E+04  0.47141500958E+04  0.00000000000E+00 0.  1.
<mgrwt>
<rscale>  0 0.56737734E+04</rscale>
<asrwt>0</asrwt>
<pdfrwt beam="1">  1        2 0.76574834E+00 0.56737734E+04</pdfrwt>
<pdfrwt beam="2">  1       -2 0.24875465E+00 0.56737734E+04</pdfrwt>
<totfact> 0.16225905E-03</totfact>
</mgrwt>
</event>
<event>
 6    1  0.5026615E-004  0.3323667E+04  0.7818608E-02  0.8156899E-01
          2   -1    0    0  501    0  0.00000000000E+00  0.00000000000E+00  0.22068848167E+04  0.22068848167E+04  0.00000000000E+00 0.  1.
         -2   -1    0    0    0  501 -0.00000000000E+00 -0.00000000000E+00 -0.12513978691E+04  0.12513978691E+04  0.00000000000E+00 0. -1.
         23    2    1    2    0    0  0.13236458539E+04  0.52824449113E+03  0.13649305629E+04  0.19754729667E+04  0.91528202509E+02 0.  0.
         13    1    3    3    0    0  0.72359595629E+03  0.31281670720E+03  0.69955090202E+03  0.10539529709E+04  0.00000000000E+00 0.  1.
        -13    1    3    3    0    0  0.60004989760E+03  0.21542778393E+03  0.66537966088E+03  0.92151999588E+03  0.00000000000E+00 0. -1.
         22    1    1    2    0    0 -0.13236458539E+04 -0.52824449113E+03 -0.40944361526E+03  0.14828097191E+04  0.00000000000E+00 0. -1.
<mgrwt>
<rscale>  0 0.33236672E+04</rscale>
<asrwt>0</asrwt>
<pdfrwt beam="1">  1        2 0.33952074E+00 0.33236672E+04</pdfrwt>
<pdfrwt beam="2">  1       -2 0.19252275E+00 0.33236672E+04</pdfrwt>
<totfact> 0.63604904E-01</totfact>
</mgrwt>
</event>
<event>
 6    1  0.5026615E-004  0.1592916E+04  0.7818608E-02  0.8824912E-01
          2   -1    0    0  501    0  0.00000000000E+00  0.00000000000E+00  0.37894481223E+04  0.37894481223E+04  0.00000000000E+00 0.  1.
         -2   -1    0    0    0  501 -0.00000000000E+00 -0.00000000000E+00 -0.16739772571E+03  0.16739772571E+03  0.00000000000E+00 0. -1.
         23    2    1    2    0    0 -0.49069873210E+03  0.34026735921E+03  0.51846619130E+03  0.79633923659E+03  0.93711615034E+02 0.  0.
         13    1    3    3    0    0 -0.97350981044E+02  0.84583219684E+02  0.67346303688E+02  0.14548903458E+03  0.00000000000E+00 0.  1.
        -13    1    3    3    0    0 -0.39334775105E+03  0.25568413953E+03  0.45111988761E+03  0.65085020201E+03  0.00000000000E+00 0. -1.
         22    1    1    2    0    0  0.49069873210E+03 -0.34026735921E+03  0.31035842053E+04  0.31605066115E+04  0.00000000000E+00 0.  1.
<mgrwt>
<rscale>  0 0.15929156E+04</rscale>
<asrwt>0</asrwt>
<pdfrwt beam="1">  1        2 0.58299195E+00 0.15929156E+04</pdfrwt>
<pdfrwt beam="2">  1       -2 0.25753499E-01 0.15929156E+04</pdfrwt>
<totfact> 0.66328729E+00</totfact>
</mgrwt>
</event>
<event>
 6    1  0.5026615E-004  0.3272567E+04  0.7818608E-02  0.8169911E-01
         -2   -1    0    0    0  501 -0.00000000000E+00  0.00000000000E+00  0.72091221264E+03  0.72091221264E+03  0.00000000000E+00 0. -1.
          2   -1    0    0  501    0  0.00000000000E+00 -0.00000000000E+00 -0.37139374992E+04  0.37139374992E+04  0.00000000000E+00 0.  1.
         23    2    1    2    0    0  0.92773234078E+03 -0.13155478618E+04 -0.11092197216E+04  0.19569318602E+04  0.88659134188E+02 0.  0.
         11    1    3    3    0    0  0.40384970492E+03 -0.53910206778E+03 -0.51183572786E+03  0.84599139237E+03  0.00000000000E+00 0.  1.
        -11    1    3    3    0    0  0.52388263586E+03 -0.77644579399E+03 -0.59738399370E+03  0.11109404678E+04  0.00000000000E+00 0. -1.
         22    1    1    2    0    0 -0.92773234078E+03  0.13155478618E+04 -0.18838055650E+04  0.24779178516E+04  0.00000000000E+00 0. -1.
<mgrwt>
<rscale>  0 0.32725665E+04</rscale>
<asrwt>0</asrwt>
<pdfrwt beam="1">  1        2 0.57137499E+00 0.32725665E+04</pdfrwt>
<pdfrwt beam="2">  1       -2 0.11090957E+00 0.32725665E+04</pdfrwt>
<totfact> 0.30676907E-01</totfact>
</mgrwt>
</event>
<event>
 6    1  0.5026615E-004  0.4132825E+04  0.7818608E-02  0.7978275E-01
         -2   -1    0    0    0  501 -0.00000000000E+00  0.00000000000E+00  0.10142928877E+04  0.10142928877E+04  0.00000000000E+00 0. -1.
          2   -1    0    0  501    0  0.00000000000E+00 -0.00000000000E+00 -0.42098896263E+04  0.42098896263E+04  0.00000000000E+00 0.  1.
         23    2    1    2    0    0 -0.69791460100E+03  0.55055615274E+03 -0.39551996678E+04  0.40549120245E+04  0.92251000802E+02 0.  0.
         11    1    3    3    0    0 -0.45205625606E+03  0.41035075281E+03 -0.27368921880E+04  0.28041614517E+04  0.00000000000E+00 0. -1.
        -11    1    3    3    0    0 -0.24585834494E+03  0.14020539993E+03 -0.12183074798E+04  0.12507505728E+04  0.00000000000E+00 0.  1.
         22    1    1    2    0    0  0.69791460100E+03 -0.55055615274E+03  0.75960292914E+03  0.11692704895E+04  0.00000000000E+00 0. -1.
<mgrwt>
<rscale>  0 0.41328252E+04</rscale>
<asrwt>0</asrwt>
<pdfrwt beam="1">  1        2 0.64767533E+00 0.41328252E+04</pdfrwt>
<pdfrwt beam="2">  1       -2 0.15604506E+00 0.41328252E+04</pdfrwt>
<totfact> 0.47722132E-02</totfact>
</mgrwt>
</event>
<event>
 6    1  0.5026615E-004  0.2570956E+04  0.7818608E-02  0.8378134E-01
          2   -1    0    0  501    0  0.00000000000E+00  0.00000000000E+00  0.22036796666E+04  0.22036796666E+04  0.00000000000E+00 0.  1.
         -2   -1    0    0    0  501 -0.00000000000E+00 -0.00000000000E+00 -0.74986084557E+03  0.74986084557E+03  0.00000000000E+00 0. -1.
         23    2    1    2    0    0 -0.10245945925E+04  0.21113787658E+03  0.15825671536E+04  0.18995246608E+04  0.96446148914E+02 0.  0.
         13    1    3    3    0    0 -0.77914967363E+03  0.17101912569E+03  0.12751384214E+04  0.15040943285E+04  0.00000000000E+00 0.  1.
        -13    1    3    3    0    0 -0.24544491885E+03  0.40118750894E+02  0.30742873217E+03  0.39543033233E+03  0.00000000000E+00 0. -1.
         22    1    1    2    0    0  0.10245945925E+04 -0.21113787658E+03 -0.12874833249E+03  0.10540158514E+04  0.00000000000E+00 0. -1.
<mgrwt>
<rscale>  0 0.25709555E+04</rscale>
<asrwt>0</asrwt>
<pdfrwt beam="1">  1        2 0.33902764E+00 0.25709555E+04</pdfrwt>
<pdfrwt beam="2">  1       -2 0.11536321E+00 0.25709555E+04</pdfrwt>
<totfact> 0.26660418E+00</totfact>
</mgrwt>
</event>
<event>
 6    1  0.5262586E-004  0.3483594E+04  0.7818608E-02  0.8117689E-01
         -2   -1    0    0    0  501 -0.00000000000E+00  0.00000000000E+00  0.17822570922E+04  0.17822570922E+04  0.00000000000E+00 0. -1.
          2   -1    0    0  501    0  0.00000000000E+00 -0.00000000000E+00 -0.17022552697E+04  0.17022552697E+04  0.00000000000E+00 0.  1.
         23    2    1    2    0    0 -0.51121627213E+03 -0.86503217931E+03  0.14616766348E+04  0.17761072475E+04  0.91845642023E+02 0.  0.
         11    1    3    3    0    0 -0.33055319614E+03 -0.49546702131E+03  0.80885303070E+03  0.10044880338E+04  0.00000000000E+00 0.  1.
        -11    1    3    3    0    0 -0.18066307599E+03 -0.36956515800E+03  0.65282360406E+03  0.77161921376E+03  0.00000000000E+00 0. -1.
         22    1    1    2    0    0  0.51121627213E+03  0.86503217931E+03 -0.13816748123E+04  0.17084051144E+04  0.00000000000E+00 0.  1.
<mgrwt>
<rscale>  0 0.34835938E+04</rscale>
<asrwt>0</asrwt>
<pdfrwt beam="1">  1        2 0.26188543E+00 0.34835938E+04</pdfrwt>
<pdfrwt beam="2">  1       -2 0.27419340E+00 0.34835938E+04</pdfrwt>
<totfact> 0.36763624E-01</totfact>
</mgrwt>
</event>
<event>
 6    1  0.5026615E-004  0.2345479E+04  0.7818608E-02  0.8460202E-01
         -2   -1    0    0    0  501 -0.00000000000E+00  0.00000000000E+00  0.93801060341E+03  0.93801060341E+03  0.00000000000E+00 0. -1.
          2   -1    0    0  501    0  0.00000000000E+00 -0.00000000000E+00 -0.14662069739E+04  0.14662069739E+04  0.00000000000E+00 0.  1.
         23    2    1    2    0    0 -0.70340542712E+03 -0.24215090240E+03  0.66246329871E+03  0.10002636243E+04  0.90848453039E+02 0.  0.
         13    1    3    3    0    0 -0.24720811260E+03 -0.56903048874E+02  0.18111051463E+03  0.31169027321E+03  0.00000000000E+00 0. -1.
        -13    1    3    3    0    0 -0.45619731452E+03 -0.18524785353E+03  0.48135278409E+03  0.68857335104E+03  0.00000000000E+00 0.  1.
         22    1    1    2    0    0  0.70340542712E+03  0.24215090240E+03 -0.11906596693E+04  0.14039539531E+04  0.00000000000E+00 0.  1.
<mgrwt>
<rscale>  0 0.23454788E+04</rscale>
<asrwt>0</asrwt>
<pdfrwt beam="1">  1        2 0.22557031E+00 0.23454788E+04</pdfrwt>
<pdfrwt beam="2">  1       -2 0.14430932E+00 0.23454788E+04</pdfrwt>
<totfact> 0.39765699E+00</totfact>
</mgrwt>
</event>
<event>
 6    1  0.5026615E-004  0.2380202E+04  0.7818608E-02  0.8446953E-01
         -2   -1    0    0    0  501 -0.00000000000E+00  0.00000000000E+00  0.17661894072E+04  0.17661894072E+04  0.00000000000E+00 0. -1.
          2   -1    0    0  501    0  0.00000000000E+00 -0.00000000000E+00 -0.80191841569E+03  0.80191841569E+03  0.00000000000E+00 0.  1.
         23    2    1    2    0    0  0.84868108503E+02 -0.44015046412E+03  0.16702695736E+04  0.17318249612E+04  0.92098971552E+02 0.  0.
         13    1    3    3    0    0  0.71357026688E+02 -0.24743172239E+03  0.10992118253E+04  0.11289733918E+04  0.00000000000E+00 0.  1.
        -13    1    3    3    0    0  0.13511081815E+02 -0.19271874172E+03  0.57105774833E+03  0.60285156935E+03  0.00000000000E+00 0. -1.
         22    1    1    2    0    0 -0.84868108503E+02  0.44015046412E+03 -0.70599858212E+03  0.83628286175E+03  0.00000000000E+00 0.  1.
<mgrwt>
<rscale>  0 0.23802015E+04</rscale>
<asrwt>0</asrwt>
<pdfrwt beam="1">  1        2 0.12337206E+00 0.23802015E+04</pdfrwt>
<pdfrwt beam="2">  1       -2 0.27172145E+00 0.23802015E+04</pdfrwt>
<totfact> 0.14630518E+00</totfact>
</mgrwt>
</event>
<event>
 6    1  0.5026615E-004  0.2267963E+04  0.7818608E-02  0.8490661E-01
          2   -1    0    0  501    0  0.00000000000E+00  0.00000000000E+00  0.70017529496E+03  0.70017529496E+03  0.00000000000E+00 0.  1.
         -2   -1    0    0    0  501 -0.00000000000E+00 -0.00000000000E+00 -0.18365603851E+04  0.18365603851E+04  0.00000000000E+00 0. -1.
         23    2    1    2    0    0 -0.46689130585E+03 -0.93564197504E+03 -0.10542756067E+04  0.14878527676E+04  0.93783826087E+02 0.  0.
         13    1    3    3    0    0 -0.30803513948E+03 -0.53576290932E+03 -0.66140906400E+03  0.90520135445E+03  0.00000000000E+00 0. -1.
        -13    1    3    3    0    0 -0.15885616637E+03 -0.39987906572E+03 -0.39286654274E+03  0.58265141311E+03  0.00000000000E+00 0.  1.
         22    1    1    2    0    0  0.46689130585E+03  0.93564197504E+03 -0.82109483418E+02  0.10488829125E+04  0.00000000000E+00 0.  1.
<mgrwt>
<rscale>  0 0.22679631E+04</rscale>
<asrwt>0</asrwt>
<pdfrwt beam="1">  1        2 0.10771928E+00 0.22679631E+04</pdfrwt>
<pdfrwt beam="2">  1       -2 0.28254775E+00 0.22679631E+04</pdfrwt>
<totfact> 0.15130863E+00</totfact>
</mgrwt>
</event>
<event>
 6    1  0.5026615E-004  0.4019337E+04  0.7818608E-02  0.8000657E-01
         -2   -1    0    0    0  501 -0.00000000000E+00  0.00000000000E+00  0.18844188672E+04  0.18844188672E+04  0.00000000000E+00 0. -1.
          2   -1    0    0  501    0  0.00000000000E+00 -0.00000000000E+00 -0.21432427580E+04  0.21432427580E+04  0.00000000000E+00 0.  1.
         23    2    1    2    0    0  0.15259134293E+03  0.90097681810E+03  0.16629746338E+04  0.18996689292E+04  0.90631469223E+02 0.  0.
         13    1    3    3    0    0  0.65078018806E+02  0.29466234640E+03  0.63383578657E+03  0.70200345530E+03  0.00000000000E+00 0. -1.
        -13    1    3    3    0    0  0.87513324121E+02  0.60631447170E+03  0.10291388473E+04  0.11976654739E+04  0.00000000000E+00 0.  1.
         22    1    1    2    0    0 -0.15259134293E+03 -0.90097681810E+03 -0.19217985246E+04  0.21279926959E+04  0.00000000000E+00 0.  1.
<mgrwt>
<rscale>  0 0.40193368E+04</rscale>
<asrwt>0</asrwt>
<pdfrwt beam="1">  1        2 0.32972966E+00 0.40193368E+04</pdfrwt>
<pdfrwt beam="2">  1       -2 0.28991059E+00 0.40193368E+04</pdfrwt>
<totfact> 0.16036961E-01</totfact>
</mgrwt>
</event>
<event>
 6    1  0.5026615E-004  0.2957729E+04  0.7818608E-02  0.8255906E-01
         -2   -1    0    0    0  501 -0.00000000000E+00  0.00000000000E+00  0.58283625882E+03  0.58283625882E+03  0.00000000000E+00 0. -1.
          2   -1    0    0  501    0  0.00000000000E+00 -0.00000000000E+00 -0.37524084627E+04  0.37524084627E+04  0.00000000000E+00 0.  1.
         23    2    1    2    0    0  0.77226778292E+03 -0.34247513629E+03 -0.33629435374E+04  0.34685964537E+04  0.89918718351E+02 0.  0.
         13    1    3    3    0    0  0.21551006592E+03 -0.72301924428E+02 -0.10473976733E+04  0.10717807812E+04  0.00000000000E+00 0.  1.
        -13    1    3    3    0    0  0.55675771699E+03 -0.27017321186E+03 -0.23155458640E+04  0.23968156725E+04  0.00000000000E+00 0. -1.
         22    1    1    2    0    0 -0.77226778292E+03  0.34247513629E+03  0.19337133345E+03  0.86664826781E+03  0.00000000000E+00 0. -1.
<mgrwt>
<rscale>  0 0.29577287E+04</rscale>
<asrwt>0</asrwt>
<pdfrwt beam="1">  1        2 0.57729361E+00 0.29577287E+04</pdfrwt>
<pdfrwt beam="2">  1       -2 0.89667117E-01 0.29577287E+04</pdfrwt>
<totfact> 0.48821649E-01</totfact>
</mgrwt>
</event>
<event>
 6    1  0.5026615E-004  0.1488187E+04  0.7818608E-02  0.8892347E-01
         -2   -1    0    0    0  501 -0.00000000000E+00  0.00000000000E+00  0.69220230369E+03  0.69220230369E+03  0.00000000000E+00 0. -1.
          2   -1    0    0  501    0  0.00000000000E+00 -0.00000000000E+00 -0.79987474461E+03  0.79987474461E+03  0.00000000000E+00 0.  1.
         23    2    1    2    0    0 -0.28504405973E+03  0.68110733813E+03 -0.11955791717E+03  0.75363369462E+03  0.92262278652E+02 0.  0.
         13    1    3    3    0    0 -0.22346788794E+03  0.42024312697E+03 -0.70786237408E+02  0.48119941201E+03  0.00000000000E+00 0.  1.
        -13    1    3    3    0    0 -0.61576171790E+02  0.26086421116E+03 -0.48771679765E+02  0.27243428261E+03  0.00000000000E+00 0. -1.
         22    1    1    2    0    0  0.28504405973E+03 -0.68110733813E+03  0.11885476257E+02  0.73844335368E+03  0.00000000000E+00 0.  1.
<mgrwt>
<rscale>  0 0.14881870E+04</rscale>
<asrwt>0</asrwt>
<pdfrwt beam="1">  1        2 0.12305765E+00 0.14881870E+04</pdfrwt>
<pdfrwt beam="2">  1       -2 0.10649266E+00 0.14881870E+04</pdfrwt>
<totfact> 0.23676961E+01</totfact>
</mgrwt>
</event>
<event>
 6    1  0.5026615E-004  0.2252194E+04  0.7818608E-02  0.8497012E-01
          2   -1    0    0  501    0  0.00000000000E+00  0.00000000000E+00  0.21980226379E+04  0.21980226379E+04  0.00000000000E+00 0.  1.
         -2   -1    0    0    0  501 -0.00000000000E+00 -0.00000000000E+00 -0.57692527161E+03  0.57692527161E+03  0.00000000000E+00 0. -1.
         23    2    1    2    0    0 -0.91666056033E+03  0.40938001636E+03  0.18829538136E+03  0.10254393760E+04  0.90621093700E+02 0.  0.
         13    1    3    3    0    0 -0.20472291488E+03  0.73770371550E+02  0.68345615667E+01  0.21771598662E+03  0.00000000000E+00 0. -1.
        -13    1    3    3    0    0 -0.71193764545E+03  0.33560964481E+03  0.18146081979E+03  0.80772338942E+03  0.00000000000E+00 0.  1.
         22    1    1    2    0    0  0.91666056033E+03 -0.40938001636E+03  0.14328019849E+04  0.17495085334E+04  0.00000000000E+00 0.  1.
<mgrwt>
<rscale>  0 0.22521943E+04</rscale>
<asrwt>0</asrwt>
<pdfrwt beam="1">  1        2 0.33815732E+00 0.22521943E+04</pdfrwt>
<pdfrwt beam="2">  1       -2 0.88757735E-01 0.22521943E+04</pdfrwt>
<totfact> 0.51411194E+00</totfact>
</mgrwt>
</event>
<event>
 6    1  0.5026615E-004  0.3317909E+04  0.7818608E-02  0.8158353E-01
         -2   -1    0    0    0  501 -0.00000000000E+00  0.00000000000E+00  0.13686732215E+04  0.13686732215E+04  0.00000000000E+00 0.  1.
          2   -1    0    0  501    0  0.00000000000E+00 -0.00000000000E+00 -0.20108017067E+04  0.20108017067E+04  0.00000000000E+00 0. -1.
         23    2    1    2    0    0  0.85240705431E+03 -0.11479183732E+04  0.53310046274E+03  0.15286703849E+04  0.91228638745E+02 0.  0.
         11    1    3    3    0    0  0.13443828254E+03 -0.21360054318E+03  0.63714117941E+02  0.26030430785E+03  0.00000000000E+00 0. -1.
        -11    1    3    3    0    0  0.71796877176E+03 -0.93431782997E+03  0.46938634480E+03  0.12683660770E+04  0.00000000000E+00 0.  1.
         22    1    1    2    0    0 -0.85240705431E+03  0.11479183732E+04 -0.11752289480E+04  0.18508045434E+04  0.00000000000E+00 0. -1.
<mgrwt>
<rscale>  0 0.33179093E+04</rscale>
<asrwt>0</asrwt>
<pdfrwt beam="1">  1        2 0.30935411E+00 0.33179093E+04</pdfrwt>
<pdfrwt beam="2">  1       -2 0.21056511E+00 0.33179093E+04</pdfrwt>
<totfact> 0.62407469E-01</totfact>
</mgrwt>
</event>
<event>
 6    1  0.5026615E-004  0.1320225E+04  0.7818608E-02  0.9013678E-01
          1   -1    0    0  501    0  0.00000000000E+00  0.00000000000E+00  0.16072853776E+04  0.16072853776E+04  0.00000000000E+00 0.  1.
         -1   -1    0    0    0  501 -0.00000000000E+00 -0.00000000000E+00 -0.27110848043E+03  0.27110848043E+03  0.00000000000E+00 0. -1.
         23    2    1    2    0    0  0.34862778086E+03 -0.54129473265E+03  0.48504813898E+03  0.81117247511E+03  0.90486297606E+02 0.  0.
         13    1    3    3    0    0  0.73242809238E+02 -0.10959195199E+03  0.56362312441E+02  0.14335834580E+03  0.00000000000E+00 0. -1.
        -13    1    3    3    0    0  0.27538497162E+03 -0.43170278067E+03  0.42868582654E+03  0.66781412931E+03  0.00000000000E+00 0.  1.
         22    1    1    2    0    0 -0.34862778086E+03  0.54129473265E+03  0.85112875823E+03  0.10672213830E+04  0.00000000000E+00 0.  1.
<mgrwt>
<rscale>  0 0.13202253E+04</rscale>
<asrwt>0</asrwt>
<pdfrwt beam="1">  1        1 0.24727467E+00 0.13202253E+04</pdfrwt>
<pdfrwt beam="2">  1       -1 0.41708998E-01 0.13202253E+04</pdfrwt>
<totfact> 0.30519622E+01</totfact>
</mgrwt>
</event>
<event>
 6    1  0.5026615E-004  0.1661423E+04  0.7818608E-02  0.8783677E-01
         -2   -1    0    0    0  501 -0.00000000000E+00  0.00000000000E+00  0.13904028165E+04  0.13904028165E+04  0.00000000000E+00 0. -1.
          2   -1    0    0  501    0  0.00000000000E+00 -0.00000000000E+00 -0.49631780078E+03  0.49631780078E+03  0.00000000000E+00 0.  1.
         23    2    1    2    0    0  0.30149952373E+03 -0.49559779594E+03  0.11197140729E+04  0.12642837854E+04  0.90192831135E+02 0.  0.
         13    1    3    3    0    0  0.18038287303E+03 -0.23031891885E+03  0.49794411852E+03  0.57752327263E+03  0.00000000000E+00 0.  1.
        -13    1    3    3    0    0  0.12111665070E+03 -0.26527887709E+03  0.62176995441E+03  0.68676051278E+03  0.00000000000E+00 0. -1.
         22    1    1    2    0    0 -0.30149952373E+03  0.49559779594E+03 -0.22562905725E+03  0.62243683183E+03  0.00000000000E+00 0.  1.
<mgrwt>
<rscale>  0 0.16614231E+04</rscale>
<asrwt>0</asrwt>
<pdfrwt beam="1">  1        2 0.76356585E-01 0.16614231E+04</pdfrwt>
<pdfrwt beam="2">  1       -2 0.21390812E+00 0.16614231E+04</pdfrwt>
<totfact> 0.64016142E+00</totfact>
</mgrwt>
</event>
<event>
 6    1  0.5026615E-004  0.5968469E+04  0.7818608E-02  0.7694324E-01
          2   -1    0    0  501    0  0.00000000000E+00  0.00000000000E+00  0.31532410154E+04  0.31532410154E+04  0.00000000000E+00 0.  1.
         -2   -1    0    0    0  501 -0.00000000000E+00 -0.00000000000E+00 -0.28242859336E+04  0.28242859336E+04  0.00000000000E+00 0. -1.
         23    2    1    2    0    0  0.10284545856E+04 -0.23532566348E+04 -0.13563768143E+04  0.29057393222E+04  0.89595325519E+02 0.  0.
         11    1    3    3    0    0  0.49113468252E+03 -0.10487578227E+04 -0.64874162644E+03  0.13273929128E+04  0.00000000000E+00 0.  1.
        -11    1    3    3    0    0  0.53731990308E+03 -0.13044988121E+04 -0.70763518790E+03  0.15783464094E+04  0.00000000000E+00 0. -1.
         22    1    1    2    0    0 -0.10284545856E+04  0.23532566348E+04  0.16853318961E+04  0.30717876268E+04  0.00000000000E+00 0.  1.
<mgrwt>
<rscale>  0 0.59684686E+04</rscale>
<asrwt>0</asrwt>
<pdfrwt beam="1">  1        2 0.48511400E+00 0.59684686E+04</pdfrwt>
<pdfrwt beam="2">  1       -2 0.43450553E+00 0.59684686E+04</pdfrwt>
<totfact> 0.41353996E-03</totfact>
</mgrwt>
</event>
<event>
 6    1  0.5026615E-004  0.6096304E+03  0.7818608E-02  0.9885625E-01
          1   -1    0    0  501    0  0.00000000000E+00  0.00000000000E+00  0.35234053699E+03  0.35234053699E+03  0.00000000000E+00 0.  1.
         -1   -1    0    0    0  501 -0.00000000000E+00 -0.00000000000E+00 -0.26370027324E+03  0.26370027324E+03  0.00000000000E+00 0. -1.
         23    2    1    2    0    0 -0.15744453366E+03 -0.40194453676E+02 -0.20778467161E+03  0.27799921872E+03  0.87776537667E+02 0.  0.
         13    1    3    3    0    0 -0.78720574773E+02 -0.56199217520E+02 -0.73347622669E+02  0.12138844547E+03  0.00000000000E+00 0.  1.
        -13    1    3    3    0    0 -0.78723958888E+02  0.16004763844E+02 -0.13443704894E+03  0.15661077325E+03  0.00000000000E+00 0. -1.
         22    1    1    2    0    0  0.15744453366E+03  0.40194453676E+02  0.29642493536E+03  0.33804159151E+03  0.00000000000E+00 0.  1.
<mgrwt>
<rscale>  0 0.60963037E+03</rscale>
<asrwt>0</asrwt>
<pdfrwt beam="1">  1        1 0.54206236E-01 0.60963037E+03</pdfrwt>
<pdfrwt beam="2">  1       -1 0.40569273E-01 0.60963037E+03</pdfrwt>
<totfact> 0.42648079E+02</totfact>
</mgrwt>
</event>
<event>
 6    1  0.5026615E-004  0.2499492E+04  0.7818608E-02  0.8403167E-01
          2   -1    0    0  501    0  0.00000000000E+00  0.00000000000E+00  0.96793036084E+03  0.96793036084E+03  0.00000000000E+00 0.  1.
         -2   -1    0    0    0  501 -0.00000000000E+00 -0.00000000000E+00 -0.16136125336E+04  0.16136125336E+04  0.00000000000E+00 0. -1.
         23    2    1    2    0    0  0.82007621698E+02  0.11007018816E+04  0.27826159858E+03  0.11421187128E+04  0.93465259379E+02 0.  0.
         11    1    3    3    0    0  0.19749617499E+02  0.42720681073E+03  0.62715211301E+02  0.43223709264E+03  0.00000000000E+00 0. -1.
        -11    1    3    3    0    0  0.62258004199E+02  0.67349507087E+03  0.21554638728E+03  0.70988162016E+03  0.00000000000E+00 0.  1.
         22    1    1    2    0    0 -0.82007621698E+02 -0.11007018816E+04 -0.92394377137E+03  0.14394241817E+04  0.00000000000E+00 0. -1.
<mgrwt>
<rscale>  0 0.24994916E+04</rscale>
<asrwt>0</asrwt>
<pdfrwt beam="1">  1        2 0.14891236E+00 0.24994916E+04</pdfrwt>
<pdfrwt beam="2">  1       -2 0.24824808E+00 0.24994916E+04</pdfrwt>
<totfact> 0.15524239E+00</totfact>
</mgrwt>
</event>
<event>
 6    1  0.5026615E-004  0.3202493E+04  0.7818608E-02  0.8188159E-01
         -2   -1    0    0    0  501 -0.00000000000E+00  0.00000000000E+00  0.97819588138E+03  0.97819588138E+03  0.00000000000E+00 0. -1.
          2   -1    0    0  501    0  0.00000000000E+00 -0.00000000000E+00 -0.26211422560E+04  0.26211422560E+04  0.00000000000E+00 0.  1.
         23    2    1    2    0    0  0.80551184182E+03 -0.71700099038E+03 -0.21504915429E+04  0.24074732770E+04  0.91509322895E+02 0.  0.
         13    1    3    3    0    0  0.34307216122E+03 -0.24632038316E+03 -0.85442548008E+03  0.95310814705E+03  0.00000000000E+00 0. -1.
        -13    1    3    3    0    0  0.46243968060E+03 -0.47068060722E+03 -0.12960660628E+04  0.14543651300E+04  0.00000000000E+00 0.  1.
         22    1    1    2    0    0 -0.80551184182E+03  0.71700099038E+03  0.50754516825E+03  0.11918648603E+04  0.00000000000E+00 0. -1.
<mgrwt>
<rscale>  0 0.32024931E+04</rscale>
<asrwt>0</asrwt>
<pdfrwt beam="1">  1        2 0.40325264E+00 0.32024931E+04</pdfrwt>
<pdfrwt beam="2">  1       -2 0.15049168E+00 0.32024931E+04</pdfrwt>
<totfact> 0.73928217E-01</totfact>
</mgrwt>
</event>
<event>
 6    1  0.5026615E-004  0.4520044E+04  0.7818608E-02  0.7907137E-01
          2   -1    0    0  501    0  0.00000000000E+00  0.00000000000E+00  0.44229338526E+04  0.44229338526E+04  0.00000000000E+00 0.  1.
         -2   -1    0    0    0  501 -0.00000000000E+00 -0.00000000000E+00 -0.11548216433E+04  0.11548216433E+04  0.00000000000E+00 0. -1.
         23    2    1    2    0    0 -0.13561174150E+04  0.11218862618E+04 -0.11304944665E+03  0.17659400004E+04  0.89892600952E+02 0.  0.
         11    1    3    3    0    0 -0.27832817252E+03  0.27430318830E+03 -0.40668040702E+02  0.39289018855E+03  0.00000000000E+00 0.  1.
        -11    1    3    3    0    0 -0.10777892425E+04  0.84758307351E+03 -0.72381405943E+02  0.13730498118E+04  0.00000000000E+00 0. -1.
         22    1    1    2    0    0  0.13561174150E+04 -0.11218862618E+04  0.33811616559E+04  0.38118154955E+04  0.00000000000E+00 0.  1.
<mgrwt>
<rscale>  0 0.45200441E+04</rscale>
<asrwt>0</asrwt>
<pdfrwt beam="1">  1        2 0.68045136E+00 0.45200441E+04</pdfrwt>
<pdfrwt beam="2">  1       -2 0.17766487E+00 0.45200441E+04</pdfrwt>
<totfact> 0.20628999E-02</totfact>
</mgrwt>
</event>
<event>
 6    1  0.5026615E-004  0.1588517E+04  0.7818608E-02  0.8827634E-01
         -1   -1    0    0    0  501 -0.00000000000E+00  0.00000000000E+00  0.65424587678E+03  0.65424587678E+03  0.00000000000E+00 0. -1.
          1   -1    0    0  501    0  0.00000000000E+00 -0.00000000000E+00 -0.96423478939E+03  0.96423478939E+03  0.00000000000E+00 0.  1.
         23    2    1    2    0    0  0.56676236276E+03  0.91586881428E+02  0.39981553369E+03  0.70555674563E+03  0.91379032804E+02 0.  0.
         11    1    3    3    0    0  0.32017366075E+03  0.10278836975E+02  0.24466989072E+03  0.40308830665E+03  0.00000000000E+00 0.  1.
        -11    1    3    3    0    0  0.24658870201E+03  0.81308044453E+02  0.15514564297E+03  0.30246843899E+03  0.00000000000E+00 0. -1.
         22    1    1    2    0    0 -0.56676236276E+03 -0.91586881428E+02 -0.70980444631E+03  0.91292392054E+03  0.00000000000E+00 0.  1.
<mgrwt>
<rscale>  0 0.15885171E+04</rscale>
<asrwt>0</asrwt>
<pdfrwt beam="1">  1        1 0.14834381E+00 0.15885171E+04</pdfrwt>
<pdfrwt beam="2">  1       -1 0.10065321E+00 0.15885171E+04</pdfrwt>
<totfact> 0.14565321E+01</totfact>
</mgrwt>
</event>
<event>
 6    1  0.5026615E-004  0.3355918E+04  0.7818608E-02  0.8148811E-01
          2   -1    0    0  501    0  0.00000000000E+00  0.00000000000E+00  0.14498341745E+04  0.14498341745E+04  0.00000000000E+00 0.  1.
         -2   -1    0    0    0  501 -0.00000000000E+00 -0.00000000000E+00 -0.19419780219E+04  0.19419780219E+04  0.00000000000E+00 0. -1.
         23    2    1    2    0    0 -0.20862538359E+02  0.11678328312E+04  0.96964829950E+03  0.15206881898E+04  0.89476135565E+02 0.  0.
         13    1    3    3    0    0 -0.37446138019E+02  0.27962154768E+03  0.26042082603E+03  0.38393935694E+03  0.00000000000E+00 0. -1.
        -13    1    3    3    0    0  0.16583599660E+02  0.88821128353E+03  0.70922747347E+03  0.11367488329E+04  0.00000000000E+00 0.  1.
         22    1    1    2    0    0  0.20862538359E+02 -0.11678328312E+04 -0.14617921469E+04  0.18711240066E+04  0.00000000000E+00 0. -1.
<mgrwt>
<rscale>  0 0.33559178E+04</rscale>
<asrwt>0</asrwt>
<pdfrwt beam="1">  1        2 0.22305141E+00 0.33559178E+04</pdfrwt>
<pdfrwt beam="2">  1       -2 0.29876585E+00 0.33559178E+04</pdfrwt>
<totfact> 0.36439137E-01</totfact>
</mgrwt>
</event>
<event>
 6    1  0.5026615E-004  0.2491028E+04  0.7818608E-02  0.8406189E-01
          2   -1    0    0  501    0  0.00000000000E+00  0.00000000000E+00  0.25506310837E+04  0.25506310837E+04  0.00000000000E+00 0.  1.
         -2   -1    0    0    0  501 -0.00000000000E+00 -0.00000000000E+00 -0.60820459162E+03  0.60820459162E+03  0.00000000000E+00 0. -1.
         23    2    1    2    0    0  0.13905684932E+03 -0.12325568806E+04  0.10900912460E+04  0.16538411095E+04  0.91423299311E+02 0.  0.
         11    1    3    3    0    0  0.69035333683E+02 -0.90284864007E+03  0.82614279925E+03  0.12257297699E+04  0.00000000000E+00 0. -1.
        -11    1    3    3    0    0  0.70021515639E+02 -0.32970824056E+03  0.26394844671E+03  0.42811133957E+03  0.00000000000E+00 0.  1.
         22    1    1    2    0    0 -0.13905684932E+03  0.12325568806E+04  0.85233524609E+03  0.15049945658E+04  0.00000000000E+00 0. -1.
<mgrwt>
<rscale>  0 0.24910283E+04</rscale>
<asrwt>0</asrwt>
<pdfrwt beam="1">  1        2 0.39240478E+00 0.24910283E+04</pdfrwt>
<pdfrwt beam="2">  1       -2 0.93569938E-01 0.24910283E+04</pdfrwt>
<totfact> 0.28029178E+00</totfact>
</mgrwt>
</event>
<event>
 6    1  0.5026615E-004  0.2927306E+04  0.7818608E-02  0.8264799E-01
          2   -1    0    0  501    0  0.00000000000E+00  0.00000000000E+00  0.16715399245E+04  0.16715399245E+04  0.00000000000E+00 0.  1.
         -2   -1    0    0    0  501 -0.00000000000E+00 -0.00000000000E+00 -0.12816206225E+04  0.12816206225E+04  0.00000000000E+00 0. -1.
         23    2    1    2    0    0  0.81850877601E+03  0.93855536447E+03  0.96830725390E+03  0.15800708153E+04  0.90344091106E+02 0.  0.
         13    1    3    3    0    0  0.29384823482E+03  0.39079217706E+03  0.34642852333E+03  0.59923120124E+03  0.00000000000E+00 0. -1.
        -13    1    3    3    0    0  0.52466054119E+03  0.54776318741E+03  0.62187873057E+03  0.98083961406E+03  0.00000000000E+00 0.  1.
         22    1    1    2    0    0 -0.81850877601E+03 -0.93855536447E+03 -0.57838795186E+03  0.13730897318E+04  0.00000000000E+00 0.  1.
<mgrwt>
<rscale>  0 0.29273060E+04</rscale>
<asrwt>0</asrwt>
<pdfrwt beam="1">  1        2 0.25715999E+00 0.29273060E+04</pdfrwt>
<pdfrwt beam="2">  1       -2 0.19717240E+00 0.29273060E+04</pdfrwt>
<totfact> 0.12162048E+00</totfact>
</mgrwt>
</event>
<event>
 6    1  0.5026615E-004  0.3728411E+04  0.7818608E-02  0.8061695E-01
          2   -1    0    0  501    0  0.00000000000E+00  0.00000000000E+00  0.34236225140E+04  0.34236225140E+04  0.00000000000E+00 0.  1.
         -2   -1    0    0    0  501 -0.00000000000E+00 -0.00000000000E+00 -0.10150834999E+04  0.10150834999E+04  0.00000000000E+00 0. -1.
         23    2    1    2    0    0 -0.12530149754E+04  0.38678513808E+03  0.27805591956E+04  0.30756035647E+04  0.90435476887E+02 0.  0.
         13    1    3    3    0    0 -0.95528627414E+03  0.26262934489E+03  0.20407211696E+04  0.22684992683E+04  0.00000000000E+00 0. -1.
        -13    1    3    3    0    0 -0.29772870123E+03  0.12415579319E+03  0.73983802605E+03  0.80710429643E+03  0.00000000000E+00 0.  1.
         22    1    1    2    0    0  0.12530149754E+04 -0.38678513808E+03 -0.37202018151E+03  0.13631024492E+04  0.00000000000E+00 0. -1.
<mgrwt>
<rscale>  0 0.37284113E+04</rscale>
<asrwt>0</asrwt>
<pdfrwt beam="1">  1        2 0.52671115E+00 0.37284113E+04</pdfrwt>
<pdfrwt beam="2">  1       -2 0.15616669E+00 0.37284113E+04</pdfrwt>
<totfact> 0.19898616E-01</totfact>
</mgrwt>
</event>
<event>
 6    1  0.5026615E-004  0.1744012E+04  0.7818608E-02  0.8736653E-01
          1   -1    0    0  501    0  0.00000000000E+00  0.00000000000E+00  0.58754347450E+03  0.58754347450E+03  0.00000000000E+00 0.  1.
         -1   -1    0    0    0  501 -0.00000000000E+00 -0.00000000000E+00 -0.12941924994E+04  0.12941924994E+04  0.00000000000E+00 0. -1.
         23    2    1    2    0    0 -0.81618368973E+03  0.27704969068E+03 -0.23254420021E+03  0.89802477071E+03  0.97259124297E+02 0.  0.
         13    1    3    3    0    0 -0.43023303815E+03  0.13039734871E+03 -0.16906851053E+03  0.48030000720E+03  0.00000000000E+00 0. -1.
        -13    1    3    3    0    0 -0.38595065159E+03  0.14665234198E+03 -0.63475689678E+02  0.41772476351E+03  0.00000000000E+00 0.  1.
         22    1    1    2    0    0  0.81618368973E+03 -0.27704969068E+03 -0.47410482469E+03  0.98371120319E+03  0.00000000000E+00 0. -1.
<mgrwt>
<rscale>  0 0.17440119E+04</rscale>
<asrwt>0</asrwt>
<pdfrwt beam="1">  1        1 0.90391304E-01 0.17440119E+04</pdfrwt>
<pdfrwt beam="2">  1       -1 0.19910654E+00 0.17440119E+04</pdfrwt>
<totfact> 0.51085315E+00</totfact>
</mgrwt>
</event>
<event>
 6    1  0.5026615E-004  0.3883112E+04  0.7818608E-02  0.8028551E-01
         -4   -1    0    0    0  501 -0.00000000000E+00  0.00000000000E+00  0.17834025241E+04  0.17834025241E+04  0.00000000000E+00 0.  1.
          4   -1    0    0  501    0  0.00000000000E+00 -0.00000000000E+00 -0.21137346622E+04  0.21137346622E+04  0.00000000000E+00 0. -1.
         23    2    1    2    0    0  0.13814338516E+04  0.12816383827E+04 -0.63029277564E+03  0.19890143353E+04  0.89177422691E+02 0.  0.
         13    1    3    3    0    0  0.56033372684E+03  0.51024422000E+03 -0.29911141539E+03  0.81473350754E+03  0.00000000000E+00 0. -1.
        -13    1    3    3    0    0  0.82110012472E+03  0.77139416269E+03 -0.33118136024E+03  0.11742808278E+04  0.00000000000E+00 0.  1.
         22    1    1    2    0    0 -0.13814338516E+04 -0.12816383827E+04  0.29996063751E+03  0.19081228509E+04  0.00000000000E+00 0.  1.
<mgrwt>
<rscale>  0 0.38831120E+04</rscale>
<asrwt>0</asrwt>
<pdfrwt beam="1">  1        4 0.32518995E+00 0.38831120E+04</pdfrwt>
<pdfrwt beam="2">  1       -4 0.27436962E+00 0.38831120E+04</pdfrwt>
<totfact> 0.14916084E-03</totfact>
</mgrwt>
</event>
<event>
 6    1  0.5026615E-004  0.2501634E+04  0.7818608E-02  0.8402404E-01
          2   -1    0    0  501    0  0.00000000000E+00  0.00000000000E+00  0.19950925153E+04  0.19950925153E+04  0.00000000000E+00 0.  1.
         -2   -1    0    0    0  501 -0.00000000000E+00 -0.00000000000E+00 -0.78419568411E+03  0.78419568411E+03  0.00000000000E+00 0. -1.
         23    2    1    2    0    0  0.55985037683E+02  0.56419381807E+03 -0.63196591195E+03  0.85118237274E+03  0.60675604762E+02 0.  0.
         11    1    3    3    0    0 -0.12068158937E+02  0.13018385102E+03 -0.13689857132E+03  0.18930053977E+03  0.00000000000E+00 0. -1.
        -11    1    3    3    0    0  0.68053196619E+02  0.43400996705E+03 -0.49506734063E+03  0.66188183297E+03  0.00000000000E+00 0.  1.
         22    1    1    2    0    0 -0.55985037683E+02 -0.56419381807E+03  0.18428627431E+04  0.19281058267E+04  0.00000000000E+00 0.  1.
<mgrwt>
<rscale>  0 0.25016338E+04</rscale>
<asrwt>0</asrwt>
<pdfrwt beam="1">  1        2 0.30693731E+00 0.25016338E+04</pdfrwt>
<pdfrwt beam="2">  1       -2 0.12064549E+00 0.25016338E+04</pdfrwt>
<totfact> 0.31414740E+00</totfact>
</mgrwt>
</event>
<event>
 6    1  0.5026615E-004  0.1191099E+04  0.7818608E-02  0.9120684E-01
          2   -1    0    0  501    0  0.00000000000E+00  0.00000000000E+00  0.16844306520E+04  0.16844306520E+04  0.00000000000E+00 0.  1.
         -2   -1    0    0    0  501 -0.00000000000E+00 -0.00000000000E+00 -0.21056319616E+03  0.21056319616E+03  0.00000000000E+00 0. -1.
         23    2    1    2    0    0  0.26555235919E+03 -0.36122694625E+03  0.13564258949E+04  0.14315335128E+04  0.91618926827E+02 0.  0.
         11    1    3    3    0    0  0.14376751367E+03 -0.18154666217E+03  0.84016496367E+03  0.87149610138E+03  0.00000000000E+00 0.  1.
        -11    1    3    3    0    0  0.12178484552E+03 -0.17968028408E+03  0.51626093124E+03  0.56003741144E+03  0.00000000000E+00 0. -1.
         22    1    1    2    0    0 -0.26555235919E+03  0.36122694625E+03  0.11744156088E+03  0.46346033529E+03  0.00000000000E+00 0. -1.
<mgrwt>
<rscale>  0 0.11910988E+04</rscale>
<asrwt>0</asrwt>
<pdfrwt beam="1">  1        2 0.25914317E+00 0.11910988E+04</pdfrwt>
<pdfrwt beam="2">  1       -2 0.32394339E-01 0.11910988E+04</pdfrwt>
<totfact> 0.87659455E+01</totfact>
</mgrwt>
</event>
<event>
 6    1  0.5026615E-004  0.3571331E+04  0.7818608E-02  0.8097090E-01
          2   -1    0    0  501    0  0.00000000000E+00  0.00000000000E+00  0.26575224547E+04  0.26575224547E+04  0.00000000000E+00 0.  1.
         -2   -1    0    0    0  501 -0.00000000000E+00 -0.00000000000E+00 -0.11998400006E+04  0.11998400006E+04  0.00000000000E+00 0. -1.
         23    2    1    2    0    0  0.26009237659E+03 -0.11282889994E+04  0.21958652725E+04  0.24841916779E+04  0.93273184662E+02 0.  0.
         13    1    3    3    0    0  0.21508320649E+03 -0.10329585876E+04  0.20257509724E+04  0.22840602513E+04  0.00000000000E+00 0.  1.
        -13    1    3    3    0    0  0.45009170102E+02 -0.95330411815E+02  0.17011430014E+03  0.20013142662E+03  0.00000000000E+00 0. -1.
         22    1    1    2    0    0 -0.26009237659E+03  0.11282889994E+04 -0.73818281845E+03  0.13731707774E+04  0.00000000000E+00 0. -1.
<mgrwt>
<rscale>  0 0.35713313E+04</rscale>
<asrwt>0</asrwt>
<pdfrwt beam="1">  1        2 0.40884961E+00 0.35713313E+04</pdfrwt>
<pdfrwt beam="2">  1       -2 0.18459077E+00 0.35713313E+04</pdfrwt>
<totfact> 0.38763291E-01</totfact>
</mgrwt>
</event>
<event>
 6    1  0.5026615E-004  0.2992666E+04  0.7818608E-02  0.8245828E-01
         -2   -1    0    0    0  501 -0.00000000000E+00  0.00000000000E+00  0.96029879267E+03  0.96029879267E+03  0.00000000000E+00 0. -1.
          2   -1    0    0  501    0  0.00000000000E+00 -0.00000000000E+00 -0.23315794300E+04  0.23315794300E+04  0.00000000000E+00 0.  1.
         23    2    1    2    0    0 -0.60372869324E+03  0.84150895151E+03 -0.18720936568E+04  0.21414698904E+04  0.92374137617E+02 0.  0.
         11    1    3    3    0    0 -0.24245169921E+03  0.41093861981E+03 -0.82347572988E+03  0.95171721294E+03  0.00000000000E+00 0. -1.
        -11    1    3    3    0    0 -0.36127699403E+03  0.43057033170E+03 -0.10486179269E+04  0.11897526775E+04  0.00000000000E+00 0.  1.
         22    1    1    2    0    0  0.60372869324E+03 -0.84150895151E+03  0.50081301943E+03  0.11504083323E+04  0.00000000000E+00 0. -1.
<mgrwt>
<rscale>  0 0.29926663E+04</rscale>
<asrwt>0</asrwt>
<pdfrwt beam="1">  1        2 0.35870452E+00 0.29926663E+04</pdfrwt>
<pdfrwt beam="2">  1       -2 0.14773828E+00 0.29926663E+04</pdfrwt>
<totfact> 0.11620558E+00</totfact>
</mgrwt>
</event>
<event>
 6    1  0.5026615E-004  0.2294274E+04  0.7818608E-02  0.8480182E-01
          2   -1    0    0  501    0  0.00000000000E+00  0.00000000000E+00  0.27173278438E+04  0.27173278438E+04  0.00000000000E+00 0.  1.
         -2   -1    0    0    0  501 -0.00000000000E+00 -0.00000000000E+00 -0.48427089757E+03  0.48427089757E+03  0.00000000000E+00 0. -1.
         23    2    1    2    0    0 -0.10765208461E+04 -0.76349973029E+02  0.58321944341E+03  0.12301296860E+04  0.91365610399E+02 0.  0.
         13    1    3    3    0    0 -0.41991838024E+03 -0.72827396347E+02  0.21576068472E+03  0.47769022263E+03  0.00000000000E+00 0.  1.
        -13    1    3    3    0    0 -0.65660246587E+03 -0.35225766825E+01  0.36745875869E+03  0.75243946339E+03  0.00000000000E+00 0. -1.
         22    1    1    2    0    0  0.10765208461E+04  0.76349973029E+02  0.16498375028E+04  0.19714690553E+04  0.00000000000E+00 0.  1.
<mgrwt>
<rscale>  0 0.22942736E+04</rscale>
<asrwt>0</asrwt>
<pdfrwt beam="1">  1        2 0.41805043E+00 0.22942736E+04</pdfrwt>
<pdfrwt beam="2">  1       -2 0.74503217E-01 0.22942736E+04</pdfrwt>
<totfact> 0.38122919E+00</totfact>
</mgrwt>
</event>
<event>
 6    1  0.5026615E-004  0.1441416E+04  0.7818608E-02  0.8924373E-01
         -2   -1    0    0    0  501 -0.00000000000E+00  0.00000000000E+00  0.26496220659E+03  0.26496220659E+03  0.00000000000E+00 0. -1.
          2   -1    0    0  501    0  0.00000000000E+00 -0.00000000000E+00 -0.19603554618E+04  0.19603554618E+04  0.00000000000E+00 0.  1.
         23    2    1    2    0    0  0.17201487136E+03  0.64590134054E+03 -0.12547663583E+04  0.14247368043E+04  0.93052081804E+02 0.  0.
         13    1    3    3    0    0  0.98170208190E+02  0.40896520512E+03 -0.69381463416E+03  0.81133758408E+03  0.00000000000E+00 0. -1.
        -13    1    3    3    0    0  0.73844663167E+02  0.23693613542E+03 -0.56095172413E+03  0.61339922021E+03  0.00000000000E+00 0.  1.
         22    1    1    2    0    0 -0.17201487136E+03 -0.64590134054E+03 -0.44062689692E+03  0.80058086410E+03  0.00000000000E+00 0. -1.
<mgrwt>
<rscale>  0 0.14414161E+04</rscale>
<asrwt>0</asrwt>
<pdfrwt beam="1">  1        2 0.30159316E+00 0.14414161E+04</pdfrwt>
<pdfrwt beam="2">  1       -2 0.40763415E-01 0.14414161E+04</pdfrwt>
<totfact> 0.38886289E+01</totfact>
</mgrwt>
</event>
<event>
 6    1  0.5026615E-004  0.9394167E+03  0.7818608E-02  0.9377607E-01
         -2   -1    0    0    0  501 -0.00000000000E+00  0.00000000000E+00  0.17237873796E+03  0.17237873796E+03  0.00000000000E+00 0. -1.
          2   -1    0    0  501    0  0.00000000000E+00 -0.00000000000E+00 -0.12798906537E+04  0.12798906537E+04  0.00000000000E+00 0.  1.
         23    2    1    2    0    0 -0.30503851433E+03  0.11083039867E+03 -0.43977383631E+02  0.34031724633E+03  0.92465914746E+02 0.  0.
         13    1    3    3    0    0 -0.14429244805E+03  0.10137931925E+03 -0.18982086839E+02  0.17736515035E+03  0.00000000000E+00 0. -1.
        -13    1    3    3    0    0 -0.16074606628E+03  0.94510794164E+01 -0.24995296792E+02  0.16295209599E+03  0.00000000000E+00 0.  1.
         22    1    1    2    0    0  0.30503851433E+03 -0.11083039867E+03 -0.10635345321E+04  0.11119521453E+04  0.00000000000E+00 0.  1.
<mgrwt>
<rscale>  0 0.93941670E+03</rscale>
<asrwt>0</asrwt>
<pdfrwt beam="1">  1        2 0.19690625E+00 0.93941670E+03</pdfrwt>
<pdfrwt beam="2">  1       -2 0.26519806E-01 0.93941670E+03</pdfrwt>
<totfact> 0.21873898E+02</totfact>
</mgrwt>
</event>
<event>
 6    1  0.5026615E-004  0.3712416E+04  0.7818608E-02  0.8065216E-01
         -2   -1    0    0    0  501 -0.00000000000E+00  0.00000000000E+00  0.15167913487E+04  0.15167913487E+04  0.00000000000E+00 0. -1.
          2   -1    0    0  501    0  0.00000000000E+00 -0.00000000000E+00 -0.22715764526E+04  0.22715764526E+04  0.00000000000E+00 0.  1.
         23    2    1    2    0    0  0.48940495507E+03  0.17892577592E+04 -0.36139785826E+03  0.18921309849E+04  0.92686099454E+02 0.  0.
         13    1    3    3    0    0  0.25941772186E+03  0.78222022340E+03 -0.14606285453E+03  0.83695901321E+03  0.00000000000E+00 0. -1.
        -13    1    3    3    0    0  0.22998723321E+03  0.10070375358E+04 -0.21533500373E+03  0.10551719717E+04  0.00000000000E+00 0.  1.
         22    1    1    2    0    0 -0.48940495507E+03 -0.17892577592E+04 -0.39338724568E+03  0.18962368164E+04  0.00000000000E+00 0. -1.
<mgrwt>
<rscale>  0 0.37124157E+04</rscale>
<asrwt>0</asrwt>
<pdfrwt beam="1">  1        2 0.34947330E+00 0.37124157E+04</pdfrwt>
<pdfrwt beam="2">  1       -2 0.23335252E+00 0.37124157E+04</pdfrwt>
<totfact> 0.30957557E-01</totfact>
</mgrwt>
</event>
<event>
 6    1  0.5026615E-004  0.1643502E+04  0.7818608E-02  0.8794260E-01
         -2   -1    0    0    0  501 -0.00000000000E+00  0.00000000000E+00  0.34926679092E+03  0.34926679092E+03  0.00000000000E+00 0. -1.
          2   -1    0    0  501    0  0.00000000000E+00 -0.00000000000E+00 -0.19334064006E+04  0.19334064006E+04  0.00000000000E+00 0.  1.
         23    2    1    2    0    0  0.55223628424E+03  0.14240534724E+03  0.22334518626E+02  0.57797283033E+03  0.91156817170E+02 0.  0.
         11    1    3    3    0    0  0.42783784583E+03  0.11262473351E+03 -0.21018486335E+02  0.44291232732E+03  0.00000000000E+00 0. -1.
        -11    1    3    3    0    0  0.12439843841E+03  0.29780613734E+02  0.43353004961E+02  0.13506050301E+03  0.00000000000E+00 0.  1.
         22    1    1    2    0    0 -0.55223628424E+03 -0.14240534724E+03 -0.16064741283E+04  0.17047003612E+04  0.00000000000E+00 0.  1.
<mgrwt>
<rscale>  0 0.16435019E+04</rscale>
<asrwt>0</asrwt>
<pdfrwt beam="1">  1        2 0.29744714E+00 0.16435019E+04</pdfrwt>
<pdfrwt beam="2">  1       -2 0.53733353E-01 0.16435019E+04</pdfrwt>
<totfact> 0.22692578E+01</totfact>
</mgrwt>
</event>
<event>
 6    1  0.5026615E-004  0.6685834E+04  0.7818608E-02  0.7610733E-01
         -2   -1    0    0    0  501 -0.00000000000E+00  0.00000000000E+00  0.35312699109E+04  0.35312699109E+04  0.00000000000E+00 0. -1.
          2   -1    0    0  501    0  0.00000000000E+00 -0.00000000000E+00 -0.31646105089E+04  0.31646105089E+04  0.00000000000E+00 0.  1.
         23    2    1    2    0    0 -0.23799525745E+04  0.11581625349E+04 -0.18606718735E+04  0.32366146994E+04  0.89778489876E+02 0.  0.
         13    1    3    3    0    0 -0.10101697008E+04  0.47357059329E+03 -0.73395255039E+03  0.13354393575E+04  0.00000000000E+00 0. -1.
        -13    1    3    3    0    0 -0.13697828737E+04  0.68459194157E+03 -0.11267193231E+04  0.19011753419E+04  0.00000000000E+00 0.  1.
         22    1    1    2    0    0  0.23799525745E+04 -0.11581625349E+04  0.22273312755E+04  0.34592657205E+04  0.00000000000E+00 0. -1.
<mgrwt>
<rscale>  0 0.66858339E+04</rscale>
<asrwt>0</asrwt>
<pdfrwt beam="1">  1        2 0.48686316E+00 0.66858339E+04</pdfrwt>
<pdfrwt beam="2">  1       -2 0.54327229E+00 0.66858339E+04</pdfrwt>
<totfact> 0.82538079E-04</totfact>
</mgrwt>
</event>
<event>
 6    1  0.5026615E-004  0.3256480E+04  0.7818608E-02  0.8174058E-01
          2   -1    0    0  501    0  0.00000000000E+00  0.00000000000E+00  0.13200431126E+04  0.13200431126E+04  0.00000000000E+00 0.  1.
         -2   -1    0    0    0  501 -0.00000000000E+00 -0.00000000000E+00 -0.20083929686E+04  0.20083929686E+04  0.00000000000E+00 0. -1.
         23    2    1    2    0    0 -0.93614236392E+03 -0.12529211324E+04  0.11388918616E+03  0.15706643752E+04  0.88554748108E+02 0.  0.
         13    1    3    3    0    0 -0.45677554634E+03 -0.64246008805E+03  0.97658189385E+02  0.79431479051E+03  0.00000000000E+00 0. -1.
        -13    1    3    3    0    0 -0.47936681757E+03 -0.61046104432E+03  0.16230996774E+02  0.77634958471E+03  0.00000000000E+00 0.  1.
         22    1    1    2    0    0  0.93614236392E+03  0.12529211324E+04 -0.80223904224E+03  0.17577717060E+04  0.00000000000E+00 0. -1.
<mgrwt>
<rscale>  0 0.32564799E+04</rscale>
<asrwt>0</asrwt>
<pdfrwt beam="1">  1        2 0.20308356E+00 0.32564799E+04</pdfrwt>
<pdfrwt beam="2">  1       -2 0.30898353E+00 0.32564799E+04</pdfrwt>
<totfact> 0.37755392E-01</totfact>
</mgrwt>
</event>
<event>
 6    1  0.5026615E-004  0.2863445E+04  0.7818608E-02  0.8283837E-01
          2   -1    0    0  501    0  0.00000000000E+00  0.00000000000E+00  0.18313097045E+04  0.18313097045E+04  0.00000000000E+00 0.  1.
         -2   -1    0    0    0  501 -0.00000000000E+00 -0.00000000000E+00 -0.11193245009E+04  0.11193245009E+04  0.00000000000E+00 0. -1.
         23    2    1    2    0    0 -0.11616535609E+04  0.83421899331E+03  0.37640044544E+03  0.14816286049E+04  0.90474876063E+02 0.  0.
         11    1    3    3    0    0 -0.47870732442E+03  0.29439763481E+03  0.12855264109E+03  0.57650364385E+03  0.00000000000E+00 0.  1.
        -11    1    3    3    0    0 -0.68294623647E+03  0.53982135850E+03  0.24784780435E+03  0.90512496105E+03  0.00000000000E+00 0. -1.
         22    1    1    2    0    0  0.11616535609E+04 -0.83421899331E+03  0.33558475819E+03  0.14690056005E+04  0.00000000000E+00 0.  1.
<mgrwt>
<rscale>  0 0.28634454E+04</rscale>
<asrwt>0</asrwt>
<pdfrwt beam="1">  1        2 0.28173995E+00 0.28634454E+04</pdfrwt>
<pdfrwt beam="2">  1       -2 0.17220377E+00 0.28634454E+04</pdfrwt>
<totfact> 0.14756710E+00</totfact>
</mgrwt>
</event>
<event>
 6    1  0.5026615E-004  0.9048808E+03  0.7818608E-02  0.9419501E-01
          2   -1    0    0  501    0  0.00000000000E+00  0.00000000000E+00  0.35932157631E+03  0.35932157631E+03  0.00000000000E+00 0.  1.
         -2   -1    0    0    0  501 -0.00000000000E+00 -0.00000000000E+00 -0.56969114479E+03  0.56969114479E+03  0.00000000000E+00 0. -1.
         23    2    1    2    0    0 -0.98395612538E+02 -0.36461472442E+03  0.14063847848E+03  0.41342350200E+03  0.92272512444E+02 0.  0.
         11    1    3    3    0    0  0.86947249489E+01 -0.74202287306E+02  0.53413743767E+02  0.91840109465E+02  0.00000000000E+00 0.  1.
        -11    1    3    3    0    0 -0.10709033749E+03 -0.29041243711E+03  0.87224734711E+02  0.32158339254E+03  0.00000000000E+00 0. -1.
         22    1    1    2    0    0  0.98395612538E+02  0.36461472442E+03 -0.35100804695E+03  0.51558921910E+03  0.00000000000E+00 0. -1.
<mgrwt>
<rscale>  0 0.90488081E+03</rscale>
<asrwt>0</asrwt>
<pdfrwt beam="1">  1        2 0.55280242E-01 0.90488081E+03</pdfrwt>
<pdfrwt beam="2">  1       -2 0.87644792E-01 0.90488081E+03</pdfrwt>
<totfact> 0.10114938E+02</totfact>
</mgrwt>
</event>
<event>
 6    1  0.5026615E-004  0.1420971E+04  0.7818608E-02  0.8938777E-01
          2   -1    0    0  501    0  0.00000000000E+00  0.00000000000E+00  0.10190542476E+04  0.10190542476E+04  0.00000000000E+00 0.  1.
         -2   -1    0    0    0  501 -0.00000000000E+00 -0.00000000000E+00 -0.49535108959E+03  0.49535108959E+03  0.00000000000E+00 0. -1.
         23    2    1    2    0    0  0.20647774460E+03 -0.63732780146E+03  0.50569493593E+03  0.84422321149E+03  0.90364135961E+02 0.  0.
         13    1    3    3    0    0  0.12813832178E+03 -0.47331238313E+03  0.32736066906E+03  0.58958379318E+03  0.00000000000E+00 0.  1.
        -13    1    3    3    0    0  0.78339422823E+02 -0.16401541832E+03  0.17833426687E+03  0.25463941831E+03  0.00000000000E+00 0. -1.
         22    1    1    2    0    0 -0.20647774460E+03  0.63732780146E+03  0.18008222071E+02  0.67018212568E+03  0.00000000000E+00 0. -1.
<mgrwt>
<rscale>  0 0.14209710E+04</rscale>
<asrwt>0</asrwt>
<pdfrwt beam="1">  1        2 0.15677758E+00 0.14209710E+04</pdfrwt>
<pdfrwt beam="2">  1       -2 0.76207860E-01 0.14209710E+04</pdfrwt>
<totfact> 0.36687053E+01</totfact>
</mgrwt>
</event>
<event>
 6    1  0.5026615E-004  0.1071793E+04  0.7818608E-02  0.9233129E-01
          2   -1    0    0  501    0  0.00000000000E+00  0.00000000000E+00  0.15224551477E+03  0.15224551477E+03  0.00000000000E+00 0.  1.
         -2   -1    0    0    0  501 -0.00000000000E+00 -0.00000000000E+00 -0.18863298274E+04  0.18863298274E+04  0.00000000000E+00 0. -1.
         23    2    1    2    0    0  0.35923169262E+03  0.36368178491E+03 -0.59247649879E+03  0.78774351884E+03  0.90551643862E+02 0.  0.
         11    1    3    3    0    0  0.31022015953E+03  0.26120045502E+03 -0.46109990376E+03  0.61406461088E+03  0.00000000000E+00 0.  1.
        -11    1    3    3    0    0  0.49011533085E+02  0.10248132989E+03 -0.13137659503E+03  0.17367890796E+03  0.00000000000E+00 0. -1.
         22    1    1    2    0    0 -0.35923169262E+03 -0.36368178491E+03 -0.11416078139E+04  0.12508318234E+04  0.00000000000E+00 0. -1.
<mgrwt>
<rscale>  0 0.10717934E+04</rscale>
<asrwt>0</asrwt>
<pdfrwt beam="1">  1        2 0.23422389E-01 0.10717934E+04</pdfrwt>
<pdfrwt beam="2">  1       -2 0.29020456E+00 0.10717934E+04</pdfrwt>
<totfact> 0.86753752E+00</totfact>
</mgrwt>
</event>
<event>
 6    1  0.5026615E-004  0.1331754E+04  0.7818608E-02  0.9004756E-01
          2   -1    0    0  501    0  0.00000000000E+00  0.00000000000E+00  0.16572678355E+04  0.16572678355E+04  0.00000000000E+00 0.  1.
         -2   -1    0    0    0  501 -0.00000000000E+00 -0.00000000000E+00 -0.26754404262E+03  0.26754404262E+03  0.00000000000E+00 0. -1.
         23    2    1    2    0    0  0.25731616824E+03 -0.17393055133E+03  0.15443562123E+04  0.15778614029E+04  0.90261005720E+02 0.  0.
         11    1    3    3    0    0  0.21405724199E+03 -0.16647641424E+03  0.11739095488E+04  0.12048230277E+04  0.00000000000E+00 0. -1.
        -11    1    3    3    0    0  0.43258926250E+02 -0.74541370981E+01  0.37044666350E+03  0.37303837518E+03  0.00000000000E+00 0.  1.
         22    1    1    2    0    0 -0.25731616824E+03  0.17393055133E+03 -0.15463241941E+03  0.34695047522E+03  0.00000000000E+00 0. -1.
<mgrwt>
<rscale>  0 0.13317539E+04</rscale>
<asrwt>0</asrwt>
<pdfrwt beam="1">  1        2 0.25496428E+00 0.13317539E+04</pdfrwt>
<pdfrwt beam="2">  1       -2 0.41160623E-01 0.13317539E+04</pdfrwt>
<totfact> 0.56635408E+01</totfact>
</mgrwt>
</event>
<event>
 6    1  0.5026615E-004  0.4805285E+04  0.7818608E-02  0.7859266E-01
          2   -1    0    0  501    0  0.00000000000E+00  0.00000000000E+00  0.27937350791E+04  0.27937350791E+04  0.00000000000E+00 0.  1.
         -2   -1    0    0    0  501 -0.00000000000E+00 -0.00000000000E+00 -0.20662986130E+04  0.20662986130E+04  0.00000000000E+00 0. -1.
         23    2    1    2    0    0 -0.14674543673E+04  0.17830177063E+04  0.10316662680E+04  0.25308427953E+04  0.90859807492E+02 0.  0.
         13    1    3    3    0    0 -0.96295376694E+03  0.12334562638E+04  0.71326817110E+03  0.17197225927E+04  0.00000000000E+00 0.  1.
        -13    1    3    3    0    0 -0.50450060040E+03  0.54956144249E+03  0.31839809695E+03  0.81112020257E+03  0.00000000000E+00 0. -1.
         22    1    1    2    0    0  0.14674543673E+04 -0.17830177063E+04 -0.30422980198E+03  0.23291908968E+04  0.00000000000E+00 0. -1.
<mgrwt>
<rscale>  0 0.48052850E+04</rscale>
<asrwt>0</asrwt>
<pdfrwt beam="1">  1        2 0.42980539E+00 0.48052850E+04</pdfrwt>
<pdfrwt beam="2">  1       -2 0.31789210E+00 0.48052850E+04</pdfrwt>
<totfact> 0.42544779E-02</totfact>
</mgrwt>
</event>
<event>
 6    1  0.5026615E-004  0.2797164E+04  0.7818608E-02  0.8304149E-01
         -2   -1    0    0    0  501 -0.00000000000E+00  0.00000000000E+00  0.66201055922E+03  0.66201055922E+03  0.00000000000E+00 0. -1.
          2   -1    0    0  501    0  0.00000000000E+00 -0.00000000000E+00 -0.29546837237E+04  0.29546837237E+04  0.00000000000E+00 0.  1.
         23    2    1    2    0    0  0.31237381291E+03  0.13494454715E+04 -0.91205601583E+03  0.16610143012E+04  0.92422147566E+02 0.  0.
         11    1    3    3    0    0  0.71252955436E+02  0.19645539279E+03 -0.16373417755E+03  0.26548179958E+03  0.00000000000E+00 0.  1.
        -11    1    3    3    0    0  0.24112085748E+03  0.11529900787E+04 -0.74832183829E+03  0.13955325017E+04  0.00000000000E+00 0. -1.
         22    1    1    2    0    0 -0.31237381291E+03 -0.13494454715E+04 -0.13806171487E+04  0.19556799817E+04  0.00000000000E+00 0.  1.
<mgrwt>
<rscale>  0 0.27971642E+04</rscale>
<asrwt>0</asrwt>
<pdfrwt beam="1">  1        2 0.45456673E+00 0.27971642E+04</pdfrwt>
<pdfrwt beam="2">  1       -2 0.10184778E+00 0.27971642E+04</pdfrwt>
<totfact> 0.12785278E+00</totfact>
</mgrwt>
</event>
<event>
 6    1  0.5026615E-004  0.1470389E+04  0.7818608E-02  0.8904386E-01
         -1   -1    0    0    0  501 -0.00000000000E+00  0.00000000000E+00  0.54704083046E+03  0.54704083046E+03  0.00000000000E+00 0. -1.
          1   -1    0    0  501    0  0.00000000000E+00 -0.00000000000E+00 -0.98806390079E+03  0.98806390079E+03  0.00000000000E+00 0.  1.
         23    2    1    2    0    0 -0.25668682283E+03  0.43324275691E+03 -0.77665551644E+03  0.92992992154E+03  0.89378164690E+02 0.  0.
         11    1    3    3    0    0 -0.25262015227E+03  0.38431202436E+03 -0.67172991558E+03  0.81408461040E+03  0.00000000000E+00 0.  1.
        -11    1    3    3    0    0 -0.40666705605E+01  0.48930732552E+02 -0.10492560086E+03  0.11584531114E+03  0.00000000000E+00 0. -1.
         22    1    1    2    0    0  0.25668682283E+03 -0.43324275691E+03  0.33563244611E+03  0.60517480971E+03  0.00000000000E+00 0. -1.
<mgrwt>
<rscale>  0 0.14703895E+04</rscale>
<asrwt>0</asrwt>
<pdfrwt beam="1">  1        1 0.15200983E+00 0.14703895E+04</pdfrwt>
<pdfrwt beam="2">  1       -1 0.84160128E-01 0.14703895E+04</pdfrwt>
<totfact> 0.20977205E+01</totfact>
</mgrwt>
</event>
<event>
 6    1  0.5026615E-004  0.7723310E+03  0.7818608E-02  0.9600954E-01
          2   -1    0    0  501    0  0.00000000000E+00  0.00000000000E+00  0.10903729187E+03  0.10903729187E+03  0.00000000000E+00 0.  1.
         -2   -1    0    0    0  501 -0.00000000000E+00 -0.00000000000E+00 -0.13676401206E+04  0.13676401206E+04  0.00000000000E+00 0. -1.
         23    2    1    2    0    0  0.12472673716E+03 -0.21331048575E+03 -0.11935144851E+04  0.12211493029E+04  0.75303861888E+02 0.  0.
         13    1    3    3    0    0  0.65867894501E+02 -0.11505767581E+03 -0.45916934937E+03  0.47792608183E+03  0.00000000000E+00 0.  1.
        -13    1    3    3    0    0  0.58858842660E+02 -0.98252809934E+02 -0.73434513575E+03  0.74322322112E+03  0.00000000000E+00 0. -1.
         22    1    1    2    0    0 -0.12472673716E+03  0.21331048575E+03 -0.65088343655E+02  0.25552810955E+03  0.00000000000E+00 0.  1.
<mgrwt>
<rscale>  0 0.77233095E+03</rscale>
<asrwt>0</asrwt>
<pdfrwt beam="1">  1        2 0.16774968E-01 0.77233095E+03</pdfrwt>
<pdfrwt beam="2">  1       -2 0.21040617E+00 0.77233095E+03</pdfrwt>
<totfact> 0.40567120E+01</totfact>
</mgrwt>
</event>
<event>
 6    1  0.5026615E-004  0.2908711E+04  0.7818608E-02  0.8270290E-01
          1   -1    0    0  501    0  0.00000000000E+00  0.00000000000E+00  0.46081079950E+03  0.46081079950E+03  0.00000000000E+00 0. -1.
         -1   -1    0    0    0  501 -0.00000000000E+00 -0.00000000000E+00 -0.45900622881E+04  0.45900622881E+04  0.00000000000E+00 0.  1.
         23    2    1    2    0    0 -0.13500602249E+04  0.34307913694E+02 -0.11359367663E+04  0.17670075802E+04  0.90132167433E+02 0.  0.
         11    1    3    3    0    0 -0.59061337945E+03  0.47722318208E+02 -0.45812868902E+03  0.74898830388E+03  0.00000000000E+00 0. -1.
        -11    1    3    3    0    0 -0.75944684549E+03 -0.13414404514E+02 -0.67780807733E+03  0.10180192764E+04  0.00000000000E+00 0.  1.
         22    1    1    2    0    0  0.13500602249E+04 -0.34307913694E+02 -0.29933147223E+04  0.32838655074E+04  0.00000000000E+00 0.  1.
<mgrwt>
<rscale>  0 0.29087112E+04</rscale>
<asrwt>0</asrwt>
<pdfrwt beam="1">  1        1 0.70893970E-01 0.29087112E+04</pdfrwt>
<pdfrwt beam="2">  1       -1 0.70616342E+00 0.29087112E+04</pdfrwt>
<totfact> 0.80384004E-03</totfact>
</mgrwt>
</event>
<event>
 6    1  0.5026615E-004  0.4998297E+04  0.7818608E-02  0.7828770E-01
          2   -1    0    0  501    0  0.00000000000E+00  0.00000000000E+00  0.15322385279E+04  0.15322385279E+04  0.00000000000E+00 0.  1.
         -2   -1    0    0    0  501 -0.00000000000E+00 -0.00000000000E+00 -0.40762219994E+04  0.40762219994E+04  0.00000000000E+00 0. -1.
         23    2    1    2    0    0 -0.18413994768E+02  0.16512538253E+04  0.83111764600E+03  0.18510297795E+04  0.92609029197E+02 0.  0.
         11    1    3    3    0    0 -0.36982848399E+02  0.32635081472E+03  0.18300091191E+03  0.37598127494E+03  0.00000000000E+00 0. -1.
        -11    1    3    3    0    0  0.18568853631E+02  0.13249030106E+04  0.64811673409E+03  0.14750485045E+04  0.00000000000E+00 0.  1.
         22    1    1    2    0    0  0.18413994768E+02 -0.16512538253E+04 -0.33751011176E+04  0.37574307478E+04  0.00000000000E+00 0. -1.
<mgrwt>
<rscale>  0 0.49982975E+04</rscale>
<asrwt>0</asrwt>
<pdfrwt beam="1">  1        2 0.23572900E+00 0.49982975E+04</pdfrwt>
<pdfrwt beam="2">  1       -2 0.62711109E+00 0.49982975E+04</pdfrwt>
<totfact> 0.36048009E-03</totfact>
</mgrwt>
</event>
<event>
 6    1  0.5026615E-004  0.3159207E+04  0.7818608E-02  0.8199674E-01
          2   -1    0    0  501    0  0.00000000000E+00  0.00000000000E+00  0.20909290000E+04  0.20909290000E+04  0.00000000000E+00 0.  1.
         -2   -1    0    0    0  501 -0.00000000000E+00 -0.00000000000E+00 -0.11933202672E+04  0.11933202672E+04  0.00000000000E+00 0. -1.
         23    2    1    2    0    0 -0.59777009888E+03  0.48821306903E+03  0.18803823505E+04  0.20346392977E+04  0.90764507873E+02 0.  0.
         11    1    3    3    0    0 -0.48917416448E+03  0.41662455471E+03  0.14743783367E+04  0.16083093180E+04  0.00000000000E+00 0. -1.
        -11    1    3    3    0    0 -0.10859593440E+03  0.71588514322E+02  0.40600401385E+03  0.42632997973E+03  0.00000000000E+00 0.  1.
         22    1    1    2    0    0  0.59777009888E+03 -0.48821306903E+03 -0.98277361780E+03  0.12496099694E+04  0.00000000000E+00 0. -1.
<mgrwt>
<rscale>  0 0.31592075E+04</rscale>
<asrwt>0</asrwt>
<pdfrwt beam="1">  1        2 0.32168138E+00 0.31592075E+04</pdfrwt>
<pdfrwt beam="2">  1       -2 0.18358773E+00 0.31592075E+04</pdfrwt>
<totfact> 0.86051017E-01</totfact>
</mgrwt>
</event>
<event>
 6    1  0.5026615E-004  0.1251553E+04  0.7818608E-02  0.9068891E-01
          2   -1    0    0  501    0  0.00000000000E+00  0.00000000000E+00  0.11653601794E+04  0.11653601794E+04  0.00000000000E+00 0.  1.
         -2   -1    0    0    0  501 -0.00000000000E+00 -0.00000000000E+00 -0.33603042169E+03  0.33603042169E+03  0.00000000000E+00 0. -1.
         23    2    1    2    0    0 -0.33459565320E+03  0.42311547679E+03  0.79032663467E+03  0.96055587455E+03  0.84085913323E+02 0.  0.
         11    1    3    3    0    0 -0.31971431265E+03  0.39186967521E+03  0.69806954474E+03  0.86202098197E+03  0.00000000000E+00 0. -1.
        -11    1    3    3    0    0 -0.14881340550E+02  0.31245801582E+02  0.92257089933E+02  0.98534892581E+02  0.00000000000E+00 0.  1.
         22    1    1    2    0    0  0.33459565320E+03 -0.42311547679E+03  0.39003123059E+02  0.54083472656E+03  0.00000000000E+00 0. -1.
<mgrwt>
<rscale>  0 0.12515534E+04</rscale>
<asrwt>0</asrwt>
<pdfrwt beam="1">  1        2 0.17928618E+00 0.12515534E+04</pdfrwt>
<pdfrwt beam="2">  1       -2 0.51696988E-01 0.12515534E+04</pdfrwt>
<totfact> 0.69047703E+01</totfact>
</mgrwt>
</event>
<event>
 6    1  0.5026615E-004  0.2444105E+04  0.7818608E-02  0.8423174E-01
          2   -1    0    0  501    0  0.00000000000E+00  0.00000000000E+00  0.16779369490E+04  0.16779369490E+04  0.00000000000E+00 0.  1.
         -2   -1    0    0    0  501 -0.00000000000E+00 -0.00000000000E+00 -0.89002860536E+03  0.89002860536E+03  0.00000000000E+00 0. -1.
         23    2    1    2    0    0 -0.68409630713E+03  0.29291296933E+03 -0.62168576387E+03  0.97399525572E+03  0.91584955826E+02 0.  0.
         11    1    3    3    0    0 -0.18325725222E+03  0.12015560684E+03 -0.16110499140E+03  0.27198420653E+03  0.00000000000E+00 0.  1.
        -11    1    3    3    0    0 -0.50083905491E+03  0.17275736248E+03 -0.46058077246E+03  0.70201104919E+03  0.00000000000E+00 0. -1.
         22    1    1    2    0    0  0.68409630713E+03 -0.29291296933E+03  0.14095941075E+04  0.15939702986E+04  0.00000000000E+00 0. -1.
<mgrwt>
<rscale>  0 0.24441046E+04</rscale>
<asrwt>0</asrwt>
<pdfrwt beam="1">  1        2 0.25814415E+00 0.24441046E+04</pdfrwt>
<pdfrwt beam="2">  1       -2 0.13692748E+00 0.24441046E+04</pdfrwt>
<totfact> 0.34392443E+00</totfact>
</mgrwt>
</event>
<event>
 6    1  0.5026615E-004  0.1631363E+04  0.7818608E-02  0.8801509E-01
         -1   -1    0    0    0  501 -0.00000000000E+00  0.00000000000E+00  0.12546948287E+04  0.12546948287E+04  0.00000000000E+00 0.  1.
          1   -1    0    0  501    0  0.00000000000E+00 -0.00000000000E+00 -0.53027733854E+03  0.53027733854E+03  0.00000000000E+00 0. -1.
         23    2    1    2    0    0 -0.48526710334E+02  0.73014992348E+03 -0.24389640002E+02  0.73798321289E+03  0.92469538775E+02 0.  0.
         11    1    3    3    0    0 -0.71667153369E+02  0.63666042705E+03 -0.31126617962E+02  0.64143709480E+03  0.00000000000E+00 0. -1.
        -11    1    3    3    0    0  0.23140443034E+02  0.93489496429E+02  0.67369779592E+01  0.96546118090E+02  0.00000000000E+00 0.  1.
         22    1    1    2    0    0  0.48526710334E+02 -0.73014992348E+03  0.74880713020E+03  0.10469889544E+04  0.00000000000E+00 0.  1.
<mgrwt>
<rscale>  0 0.16313629E+04</rscale>
<asrwt>0</asrwt>
<pdfrwt beam="1">  1        1 0.81581129E-01 0.16313629E+04</pdfrwt>
<pdfrwt beam="2">  1       -1 0.19302997E+00 0.16313629E+04</pdfrwt>
<totfact> 0.65753806E+00</totfact>
</mgrwt>
</event>
<event>
 6    1  0.5026615E-004  0.2045224E+04  0.7818608E-02  0.8585764E-01
          4   -1    0    0  501    0  0.00000000000E+00  0.00000000000E+00  0.13014623820E+04  0.13014623820E+04  0.00000000000E+00 0.  1.
         -4   -1    0    0    0  501 -0.00000000000E+00 -0.00000000000E+00 -0.80350828003E+03  0.80350828003E+03  0.00000000000E+00 0. -1.
         23    2    1    2    0    0 -0.89426611611E+03 -0.40158781185E+03  0.54187790692E+03  0.11236888688E+04  0.89779456396E+02 0.  0.
         13    1    3    3    0    0 -0.17701611747E+03 -0.79016419893E+02  0.67603345511E+02  0.20530102967E+03  0.00000000000E+00 0.  1.
        -13    1    3    3    0    0 -0.71724999863E+03 -0.32257139196E+03  0.47427456141E+03  0.91838783912E+03  0.00000000000E+00 0. -1.
         22    1    1    2    0    0  0.89426611611E+03  0.40158781185E+03 -0.43923804987E+02  0.98128179321E+03  0.00000000000E+00 0. -1.
<mgrwt>
<rscale>  0 0.20452245E+04</rscale>
<asrwt>0</asrwt>
<pdfrwt beam="1">  1        4 0.20022498E+00 0.20452245E+04</pdfrwt>
<pdfrwt beam="2">  1       -4 0.12361666E+00 0.20452245E+04</pdfrwt>
<totfact> 0.11928236E-01</totfact>
</mgrwt>
</event>
<event>
 6    1  0.5026615E-004  0.1218594E+04  0.7818608E-02  0.9096735E-01
         -2   -1    0    0    0  501 -0.00000000000E+00  0.00000000000E+00  0.86422682524E+03  0.86422682524E+03  0.00000000000E+00 0. -1.
          2   -1    0    0  501    0  0.00000000000E+00 -0.00000000000E+00 -0.42956656738E+03  0.42956656738E+03  0.00000000000E+00 0.  1.
         23    2    1    2    0    0  0.41208540348E+02  0.49110258965E+03 -0.15532684888E+03  0.52505111886E+03  0.93125453457E+02 0.  0.
         11    1    3    3    0    0 -0.14595990412E+02  0.27838159417E+03 -0.58887619645E+02  0.28491596420E+03  0.00000000000E+00 0. -1.
        -11    1    3    3    0    0  0.55804530761E+02  0.21272099548E+03 -0.96439229232E+02  0.24013515467E+03  0.00000000000E+00 0.  1.
         22    1    1    2    0    0 -0.41208540348E+02 -0.49110258965E+03  0.58998710674E+03  0.76874227376E+03  0.00000000000E+00 0. -1.
<mgrwt>
<rscale>  0 0.12185942E+04</rscale>
<asrwt>0</asrwt>
<pdfrwt beam="1">  1        2 0.66087165E-01 0.12185942E+04</pdfrwt>
<pdfrwt beam="2">  1       -2 0.13295797E+00 0.12185942E+04</pdfrwt>
<totfact> 0.29626294E+01</totfact>
</mgrwt>
</event>
<event>
 6    1  0.5026615E-004  0.3057236E+04  0.7818608E-02  0.8227573E-01
         -2   -1    0    0    0  501 -0.00000000000E+00  0.00000000000E+00  0.84190369631E+03  0.84190369631E+03  0.00000000000E+00 0. -1.
          2   -1    0    0  501    0  0.00000000000E+00 -0.00000000000E+00 -0.27754632578E+04  0.27754632578E+04  0.00000000000E+00 0.  1.
         23    2    1    2    0    0 -0.62269352174E+03 -0.44685342420E+03  0.59547013009E+03  0.97475150997E+03  0.90169981757E+02 0.  0.
         13    1    3    3    0    0 -0.23706967746E+03 -0.15600470756E+03  0.16829467805E+03  0.32994332758E+03  0.00000000000E+00 0. -1.
        -13    1    3    3    0    0 -0.38562384428E+03 -0.29084871664E+03  0.42717545204E+03  0.64480818239E+03  0.00000000000E+00 0.  1.
         22    1    1    2    0    0  0.62269352174E+03  0.44685342420E+03 -0.25290296916E+04  0.26426154442E+04  0.00000000000E+00 0.  1.
<mgrwt>
<rscale>  0 0.30572359E+04</rscale>
<asrwt>0</asrwt>
<pdfrwt beam="1">  1        2 0.42699434E+00 0.30572359E+04</pdfrwt>
<pdfrwt beam="2">  1       -2 0.12952365E+00 0.30572359E+04</pdfrwt>
<totfact> 0.89325588E-01</totfact>
</mgrwt>
</event>
<event>
 6    1  0.5026615E-004  0.1347726E+04  0.7818608E-02  0.8992551E-01
          2   -1    0    0  501    0  0.00000000000E+00  0.00000000000E+00  0.90290166262E+03  0.90290166262E+03  0.00000000000E+00 0.  1.
         -2   -1    0    0    0  501 -0.00000000000E+00 -0.00000000000E+00 -0.50292484245E+03  0.50292484245E+03  0.00000000000E+00 0. -1.
         23    2    1    2    0    0  0.29439512184E+03 -0.18592066326E+03  0.79884014968E+03  0.87636740710E+03  0.92947655693E+02 0.  0.
         13    1    3    3    0    0  0.12996334992E+03 -0.83481871558E+02  0.24506902244E+03  0.28968693613E+03  0.00000000000E+00 0. -1.
        -13    1    3    3    0    0  0.16443177192E+03 -0.10243879170E+03  0.55377112724E+03  0.58668047098E+03  0.00000000000E+00 0.  1.
         22    1    1    2    0    0 -0.29439512184E+03  0.18592066326E+03 -0.39886332951E+03  0.52945909796E+03  0.00000000000E+00 0. -1.
<mgrwt>
<rscale>  0 0.13477265E+04</rscale>
<asrwt>0</asrwt>
<pdfrwt beam="1">  1        2 0.13890795E+00 0.13477265E+04</pdfrwt>
<pdfrwt beam="2">  1       -2 0.77373053E-01 0.13477265E+04</pdfrwt>
<totfact> 0.42496898E+01</totfact>
</mgrwt>
</event>
<event>
 6    1  0.5026615E-004  0.2204197E+04  0.7818608E-02  0.8516683E-01
         -2   -1    0    0    0  501 -0.00000000000E+00  0.00000000000E+00  0.55261358483E+03  0.55261358483E+03  0.00000000000E+00 0. -1.
          2   -1    0    0  501    0  0.00000000000E+00 -0.00000000000E+00 -0.21979569924E+04  0.21979569924E+04  0.00000000000E+00 0.  1.
         23    2    1    2    0    0  0.10707577955E+04  0.43519948967E+01 -0.11394491345E+04  0.15663112256E+04  0.91898469373E+02 0.  0.
         13    1    3    3    0    0  0.92421875195E+03 -0.25703836603E+02 -0.96320234473E+03  0.13351403468E+04  0.00000000000E+00 0.  1.
        -13    1    3    3    0    0  0.14653904357E+03  0.30055831499E+02 -0.17624678976E+03  0.23117087878E+03  0.00000000000E+00 0. -1.
         22    1    1    2    0    0 -0.10707577955E+04 -0.43519948967E+01 -0.50589427311E+03  0.11842593517E+04  0.00000000000E+00 0. -1.
<mgrwt>
<rscale>  0 0.22041968E+04</rscale>
<asrwt>0</asrwt>
<pdfrwt beam="1">  1        2 0.33814723E+00 0.22041968E+04</pdfrwt>
<pdfrwt beam="2">  1       -2 0.85017475E-01 0.22041968E+04</pdfrwt>
<totfact> 0.56968692E+00</totfact>
</mgrwt>
</event>
<event>
 6    1  0.5026615E-004  0.3270754E+04  0.7818608E-02  0.8170377E-01
         -2   -1    0    0    0  501 -0.00000000000E+00  0.00000000000E+00  0.12115972153E+04  0.12115972153E+04  0.00000000000E+00 0. -1.
          2   -1    0    0  501    0  0.00000000000E+00 -0.00000000000E+00 -0.22073825623E+04  0.22073825623E+04  0.00000000000E+00 0.  1.
         23    2    1    2    0    0  0.10393980498E+04  0.88202981910E+03  0.44360569297E+03  0.14365137694E+04  0.91983102004E+02 0.  0.
         13    1    3    3    0    0  0.96113587499E+03  0.84357383416E+03  0.42227976633E+03  0.13467439196E+04  0.00000000000E+00 0. -1.
        -13    1    3    3    0    0  0.78262174854E+02  0.38455984937E+02  0.21325926641E+02  0.89769849824E+02  0.00000000000E+00 0.  1.
         22    1    1    2    0    0 -0.10393980498E+04 -0.88202981910E+03 -0.14393910400E+04  0.19824660082E+04  0.00000000000E+00 0.  1.
<mgrwt>
<rscale>  0 0.32707544E+04</rscale>
<asrwt>0</asrwt>
<pdfrwt beam="1">  1        2 0.33959732E+00 0.32707544E+04</pdfrwt>
<pdfrwt beam="2">  1       -2 0.18639957E+00 0.32707544E+04</pdfrwt>
<totfact> 0.70190679E-01</totfact>
</mgrwt>
</event>
<event>
 6    1  0.5026615E-004  0.1371328E+04  0.7818608E-02  0.8974838E-01
          2   -1    0    0  501    0  0.00000000000E+00  0.00000000000E+00  0.10363433796E+04  0.10363433796E+04  0.00000000000E+00 0.  1.
         -2   -1    0    0    0  501 -0.00000000000E+00 -0.00000000000E+00 -0.45364814443E+03  0.45364814443E+03  0.00000000000E+00 0. -1.
         23    2    1    2    0    0 -0.48439289675E+03 -0.42070530583E+03  0.54338570055E+03  0.84720487798E+03  0.10420486044E+03 0.  0.
         11    1    3    3    0    0 -0.18744751805E+03 -0.21634524514E+03  0.28295173907E+03  0.40249661335E+03  0.00000000000E+00 0. -1.
        -11    1    3    3    0    0 -0.29694537871E+03 -0.20436006069E+03  0.26043396148E+03  0.44470826463E+03  0.00000000000E+00 0.  1.
         22    1    1    2    0    0  0.48439289675E+03  0.42070530583E+03  0.39309534581E+02  0.64278664601E+03  0.00000000000E+00 0.  1.
<mgrwt>
<rscale>  0 0.13713282E+04</rscale>
<asrwt>0</asrwt>
<pdfrwt beam="1">  1        2 0.15943744E+00 0.13713282E+04</pdfrwt>
<pdfrwt beam="2">  1       -2 0.69792022E-01 0.13713282E+04</pdfrwt>
<totfact> 0.43582559E+01</totfact>
</mgrwt>
</event>
<event>
 6    1  0.5026615E-004  0.1529354E+04  0.7818608E-02  0.8865164E-01
         -4   -1    0    0    0  501 -0.00000000000E+00  0.00000000000E+00  0.26163704722E+03  0.26163704722E+03  0.00000000000E+00 0. -1.
          4   -1    0    0  501    0  0.00000000000E+00 -0.00000000000E+00 -0.22348943444E+04  0.22348943444E+04  0.00000000000E+00 0.  1.
         23    2    1    2    0    0 -0.11957059169E+03 -0.65290871257E+03 -0.37960961014E+03  0.77017689043E+03  0.92098170984E+02 0.  0.
         11    1    3    3    0    0 -0.88092165631E+02 -0.36036956372E+03 -0.25764578222E+03  0.45167222761E+03  0.00000000000E+00 0. -1.
        -11    1    3    3    0    0 -0.31478426056E+02 -0.29253914885E+03 -0.12196382792E+03  0.31850466282E+03  0.00000000000E+00 0.  1.
         22    1    1    2    0    0  0.11957059169E+03  0.65290871257E+03 -0.15936476870E+04  0.17263545012E+04  0.00000000000E+00 0.  1.
<mgrwt>
<rscale>  0 0.15293543E+04</rscale>
<asrwt>0</asrwt>
<pdfrwt beam="1">  1        4 0.34382991E+00 0.15293543E+04</pdfrwt>
<pdfrwt beam="2">  1       -4 0.40251852E-01 0.15293543E+04</pdfrwt>
<totfact> 0.19077513E-01</totfact>
</mgrwt>
</event>
<event>
 6    1  0.5026615E-004  0.7447766E+03  0.7818608E-02  0.9643581E-01
          1   -1    0    0  501    0  0.00000000000E+00  0.00000000000E+00  0.86663320461E+03  0.86663320461E+03  0.00000000000E+00 0.  1.
         -1   -1    0    0    0  501 -0.00000000000E+00 -0.00000000000E+00 -0.16001353244E+03  0.16001353244E+03  0.00000000000E+00 0. -1.
         23    2    1    2    0    0 -0.60529034399E+02  0.27707520307E+03  0.67928743048E+03  0.74172309185E+03  0.91034606655E+02 0.  0.
         11    1    3    3    0    0  0.42821972881E+01  0.15065160414E+03  0.28115239391E+03  0.31899986151E+03  0.00000000000E+00 0.  1.
        -11    1    3    3    0    0 -0.64811231687E+02  0.12642359892E+03  0.39813503657E+03  0.42272323034E+03  0.00000000000E+00 0. -1.
         22    1    1    2    0    0  0.60529034399E+02 -0.27707520307E+03  0.27332241686E+02  0.28492364520E+03  0.00000000000E+00 0. -1.
<mgrwt>
<rscale>  0 0.74477659E+03</rscale>
<asrwt>0</asrwt>
<pdfrwt beam="1">  1        1 0.13332818E+00 0.74477659E+03</pdfrwt>
<pdfrwt beam="2">  1       -1 0.24617467E-01 0.74477659E+03</pdfrwt>
<totfact> 0.28192414E+02</totfact>
</mgrwt>
</event>
<event>
 6    1  0.5026615E-004  0.1190523E+04  0.7818608E-02  0.9121192E-01
          2   -1    0    0  501    0  0.00000000000E+00  0.00000000000E+00  0.32407603712E+03  0.32407603712E+03  0.00000000000E+00 0.  1.
         -2   -1    0    0    0  501 -0.00000000000E+00 -0.00000000000E+00 -0.10933741130E+04  0.10933741130E+04  0.00000000000E+00 0. -1.
         23    2    1    2    0    0  0.14062829002E+03 -0.42630191619E+03  0.72282027542E+02  0.46363323364E+03  0.90672179462E+02 0.  0.
         11    1    3    3    0    0  0.92643143034E+02 -0.34140188173E+03  0.88795641597E+02  0.36472272039E+03  0.00000000000E+00 0.  1.
        -11    1    3    3    0    0  0.47985146989E+02 -0.84900034458E+02 -0.16513614055E+02  0.98910513252E+02  0.00000000000E+00 0. -1.
         22    1    1    2    0    0 -0.14062829002E+03  0.42630191619E+03 -0.84158010345E+03  0.95381691652E+03  0.00000000000E+00 0. -1.
<mgrwt>
<rscale>  0 0.11905232E+04</rscale>
<asrwt>0</asrwt>
<pdfrwt beam="1">  1        2 0.49857851E-01 0.11905232E+04</pdfrwt>
<pdfrwt beam="2">  1       -2 0.16821141E+00 0.11905232E+04</pdfrwt>
<totfact> 0.21802437E+01</totfact>
</mgrwt>
</event>
<event>
 6    1  0.5026615E-004  0.2116045E+04  0.7818608E-02  0.8554208E-01
          2   -1    0    0  501    0  0.00000000000E+00  0.00000000000E+00  0.18615220739E+04  0.18615220739E+04  0.00000000000E+00 0.  1.
         -2   -1    0    0    0  501 -0.00000000000E+00 -0.00000000000E+00 -0.60134199921E+03  0.60134199921E+03  0.00000000000E+00 0. -1.
         23    2    1    2    0    0 -0.93644450657E+03  0.47391985564E+03  0.76742740876E+03  0.13034100925E+04  0.91677140180E+02 0.  0.
         13    1    3    3    0    0 -0.15504976495E+03  0.11356752089E+03  0.16083415315E+03  0.25061052698E+03  0.00000000000E+00 0.  1.
        -13    1    3    3    0    0 -0.78139474161E+03  0.36035233475E+03  0.60659325561E+03  0.10527995655E+04  0.00000000000E+00 0. -1.
         22    1    1    2    0    0  0.93644450657E+03 -0.47391985564E+03  0.49275266599E+03  0.11594539807E+04  0.00000000000E+00 0. -1.
<mgrwt>
<rscale>  0 0.21160448E+04</rscale>
<asrwt>0</asrwt>
<pdfrwt beam="1">  1        2 0.28638801E+00 0.21160448E+04</pdfrwt>
<pdfrwt beam="2">  1       -2 0.92514154E-01 0.21160448E+04</pdfrwt>
<totfact> 0.72778400E+00</totfact>
</mgrwt>
</event>
<event>
 6    1  0.5026615E-004  0.7608192E+03  0.7818608E-02  0.9618528E-01
          1   -1    0    0  501    0  0.00000000000E+00  0.00000000000E+00  0.26098386447E+03  0.26098386447E+03  0.00000000000E+00 0.  1.
         -1   -1    0    0    0  501 -0.00000000000E+00 -0.00000000000E+00 -0.55448433344E+03  0.55448433344E+03  0.00000000000E+00 0. -1.
         23    2    1    2    0    0 -0.21455513705E+03  0.14505396451E+03  0.14196748121E+03  0.30880569180E+03  0.90175551607E+02 0.  0.
         13    1    3    3    0    0 -0.64321993721E+02  0.96067477939E+02  0.70174828855E+02  0.13524343163E+03  0.00000000000E+00 0.  1.
        -13    1    3    3    0    0 -0.15023314333E+03  0.48986486574E+02  0.71792652357E+02  0.17356226017E+03  0.00000000000E+00 0. -1.
         22    1    1    2    0    0  0.21455513705E+03 -0.14505396451E+03 -0.43546795018E+03  0.50666250611E+03  0.00000000000E+00 0. -1.
<mgrwt>
<rscale>  0 0.76081920E+03</rscale>
<asrwt>0</asrwt>
<pdfrwt beam="1">  1        1 0.40151364E-01 0.76081920E+03</pdfrwt>
<pdfrwt beam="2">  1       -1 0.85305282E-01 0.76081920E+03</pdfrwt>
<totfact> 0.14480789E+02</totfact>
</mgrwt>
</event>
<event>
 6    1  0.5026615E-004  0.6104670E+03  0.7818608E-02  0.9883925E-01
         -2   -1    0    0    0  501 -0.00000000000E+00  0.00000000000E+00  0.24847385289E+03  0.24847385289E+03  0.00000000000E+00 0. -1.
          2   -1    0    0  501    0  0.00000000000E+00 -0.00000000000E+00 -0.37495894497E+03  0.37495894497E+03  0.00000000000E+00 0.  1.
         23    2    1    2    0    0  0.23955276464E+03  0.45833807536E+02  0.11119472843E+03  0.28287742491E+03  0.90383100944E+02 0.  0.
         11    1    3    3    0    0  0.42797296397E+02 -0.22373672400E+02  0.34591207028E+01  0.48416477687E+02  0.00000000000E+00 0.  1.
        -11    1    3    3    0    0  0.19675546824E+03  0.68207479937E+02  0.10773560773E+03  0.23446094723E+03  0.00000000000E+00 0. -1.
         22    1    1    2    0    0 -0.23955276464E+03 -0.45833807536E+02 -0.23767982052E+03  0.34055537294E+03  0.00000000000E+00 0.  1.
<mgrwt>
<rscale>  0 0.61046701E+03</rscale>
<asrwt>0</asrwt>
<pdfrwt beam="1">  1        2 0.57685992E-01 0.61046701E+03</pdfrwt>
<pdfrwt beam="2">  1       -2 0.38226746E-01 0.61046701E+03</pdfrwt>
<totfact> 0.55677001E+02</totfact>
</mgrwt>
</event>
<event>
 6    1  0.5026615E-004  0.1191248E+04  0.7818608E-02  0.9120552E-01
          2   -1    0    0  501    0  0.00000000000E+00  0.00000000000E+00  0.59268110898E+03  0.59268110898E+03  0.00000000000E+00 0.  1.
         -2   -1    0    0    0  501 -0.00000000000E+00 -0.00000000000E+00 -0.59858153143E+03  0.59858153143E+03  0.00000000000E+00 0. -1.
         23    2    1    2    0    0 -0.17815045825E+03  0.18372004280E+03 -0.53634253253E+03  0.60231487359E+03  0.98128766662E+02 0.  0.
         11    1    3    3    0    0 -0.47571151383E+02  0.10869671364E+03 -0.29338356855E+03  0.31646786298E+03  0.00000000000E+00 0.  1.
        -11    1    3    3    0    0 -0.13057930687E+03  0.75023329163E+02 -0.24295896397E+03  0.28584701061E+03  0.00000000000E+00 0. -1.
         22    1    1    2    0    0  0.17815045825E+03 -0.18372004280E+03  0.53044211007E+03  0.58894776682E+03  0.00000000000E+00 0.  1.
<mgrwt>
<rscale>  0 0.11912480E+04</rscale>
<asrwt>0</asrwt>
<pdfrwt beam="1">  1        2 0.91181709E-01 0.11912480E+04</pdfrwt>
<pdfrwt beam="2">  1       -2 0.92089466E-01 0.11912480E+04</pdfrwt>
<totfact> 0.49823994E+01</totfact>
</mgrwt>
</event>
<event>
 6    1  0.5026615E-004  0.2067777E+04  0.7818608E-02  0.8575572E-01
          2   -1    0    0  501    0  0.00000000000E+00  0.00000000000E+00  0.21861237777E+04  0.21861237777E+04  0.00000000000E+00 0.  1.
         -2   -1    0    0    0  501 -0.00000000000E+00 -0.00000000000E+00 -0.48895915701E+03  0.48895915701E+03  0.00000000000E+00 0. -1.
         23    2    1    2    0    0 -0.84988091911E+03  0.32142095577E+03  0.14820545806E+04  0.17413370716E+04  0.10079687309E+03 0.  0.
         11    1    3    3    0    0 -0.97320522221E+02  0.54716108306E+02  0.13227414784E+03  0.17309415571E+03  0.00000000000E+00 0.  1.
        -11    1    3    3    0    0 -0.75256039689E+03  0.26670484747E+03  0.13497804328E+04  0.15682429159E+04  0.00000000000E+00 0. -1.
         22    1    1    2    0    0  0.84988091911E+03 -0.32142095577E+03  0.21511004008E+03  0.93374586308E+03  0.00000000000E+00 0. -1.
<mgrwt>
<rscale>  0 0.20677768E+04</rscale>
<asrwt>0</asrwt>
<pdfrwt beam="1">  1        2 0.33632673E+00 0.20677768E+04</pdfrwt>
<pdfrwt beam="2">  1       -2 0.75224487E-01 0.20677768E+04</pdfrwt>
<totfact> 0.77052976E+00</totfact>
</mgrwt>
</event>
<event>
 6    1  0.5026615E-004  0.1922399E+04  0.7818608E-02  0.8643787E-01
          2   -1    0    0  501    0  0.00000000000E+00  0.00000000000E+00  0.13762760243E+04  0.13762760243E+04  0.00000000000E+00 0.  1.
         -2   -1    0    0    0  501 -0.00000000000E+00 -0.00000000000E+00 -0.67130766584E+03  0.67130766584E+03  0.00000000000E+00 0. -1.
         23    2    1    2    0    0  0.18747644951E+03  0.26611289224E+03  0.13142189625E+04  0.13568233923E+04  0.88514100724E+02 0.  0.
         11    1    3    3    0    0  0.13632620711E+03  0.21960175044E+03  0.88141903010E+03  0.91853648276E+03  0.00000000000E+00 0. -1.
        -11    1    3    3    0    0  0.51150242400E+02  0.46511141803E+02  0.43279993241E+03  0.43828690957E+03  0.00000000000E+00 0.  1.
         22    1    1    2    0    0 -0.18747644951E+03 -0.26611289224E+03 -0.60925060403E+03  0.69076029783E+03  0.00000000000E+00 0. -1.
<mgrwt>
<rscale>  0 0.19223992E+04</rscale>
<asrwt>0</asrwt>
<pdfrwt beam="1">  1        2 0.21173477E+00 0.19223992E+04</pdfrwt>
<pdfrwt beam="2">  1       -2 0.10327810E+00 0.19223992E+04</pdfrwt>
<totfact> 0.10678137E+01</totfact>
</mgrwt>
</event>
<event>
 6    1  0.5026615E-004  0.3080498E+04  0.7818608E-02  0.8221111E-01
         -2   -1    0    0    0  501 -0.00000000000E+00  0.00000000000E+00  0.82038338478E+03  0.82038338478E+03  0.00000000000E+00 0. -1.
          2   -1    0    0  501    0  0.00000000000E+00 -0.00000000000E+00 -0.28917782748E+04  0.28917782748E+04  0.00000000000E+00 0.  1.
         23    2    1    2    0    0  0.14715792020E+04  0.93995856597E+02 -0.50592032892E+03  0.15615591463E+04  0.90172164988E+02 0.  0.
         11    1    3    3    0    0  0.97211894822E+03  0.46003476938E+02 -0.29170257216E+03  0.10159832479E+04  0.00000000000E+00 0. -1.
        -11    1    3    3    0    0  0.49946025377E+03  0.47992379659E+02 -0.21421775676E+03  0.54557589840E+03  0.00000000000E+00 0.  1.
         22    1    1    2    0    0 -0.14715792020E+04 -0.93995856597E+02 -0.15654745611E+04  0.21506025133E+04  0.00000000000E+00 0.  1.
<mgrwt>
<rscale>  0 0.30804979E+04</rscale>
<asrwt>0</asrwt>
<pdfrwt beam="1">  1        2 0.44488897E+00 0.30804979E+04</pdfrwt>
<pdfrwt beam="2">  1       -2 0.12621283E+00 0.30804979E+04</pdfrwt>
<totfact> 0.80844707E-01</totfact>
</mgrwt>
</event>
<event>
 6    1  0.5026615E-004  0.2757657E+04  0.7818608E-02  0.8316536E-01
          1   -1    0    0  501    0  0.00000000000E+00  0.00000000000E+00  0.21925881330E+04  0.21925881330E+04  0.00000000000E+00 0.  1.
         -1   -1    0    0    0  501 -0.00000000000E+00 -0.00000000000E+00 -0.86708827431E+03  0.86708827431E+03  0.00000000000E+00 0. -1.
         23    2    1    2    0    0 -0.82554320268E+03 -0.88198295114E+03  0.13974345091E+04  0.18494739038E+04  0.91186665036E+02 0.  0.
         11    1    3    3    0    0 -0.59130754045E+03 -0.57147389200E+03  0.96503354997E+03  0.12678788464E+04  0.00000000000E+00 0. -1.
        -11    1    3    3    0    0 -0.23423566222E+03 -0.31050905914E+03  0.43240095915E+03  0.58159505735E+03  0.00000000000E+00 0.  1.
         22    1    1    2    0    0  0.82554320268E+03  0.88198295114E+03 -0.71934650441E+02  0.12102025035E+04  0.00000000000E+00 0. -1.
<mgrwt>
<rscale>  0 0.27576566E+04</rscale>
<asrwt>0</asrwt>
<pdfrwt beam="1">  1        1 0.33732125E+00 0.27576566E+04</pdfrwt>
<pdfrwt beam="2">  1       -1 0.13339820E+00 0.27576566E+04</pdfrwt>
<totfact> 0.90930575E-01</totfact>
</mgrwt>
</event>
<event>
 6    1  0.5026615E-004  0.2458680E+04  0.7818608E-02  0.8417856E-01
         -1   -1    0    0    0  501 -0.00000000000E+00  0.00000000000E+00  0.57803847003E+03  0.57803847003E+03  0.00000000000E+00 0. -1.
          1   -1    0    0  501    0  0.00000000000E+00 -0.00000000000E+00 -0.26144918969E+04  0.26144918969E+04  0.00000000000E+00 0.  1.
         23    2    1    2    0    0 -0.96380878973E+02  0.68033453597E+03 -0.23406355831E+04  0.24410843351E+04  0.90407097966E+02 0.  0.
         11    1    3    3    0    0 -0.11082841740E+03  0.64854956973E+03 -0.22344549002E+04  0.23293106670E+04  0.00000000000E+00 0. -1.
        -11    1    3    3    0    0  0.14447538427E+02  0.31784966249E+02 -0.10618068288E+03  0.11177366802E+03  0.00000000000E+00 0.  1.
         22    1    1    2    0    0  0.96380878973E+02 -0.68033453597E+03  0.30418215622E+03  0.75144603188E+03  0.00000000000E+00 0. -1.
<mgrwt>
<rscale>  0 0.24586800E+04</rscale>
<asrwt>0</asrwt>
<pdfrwt beam="1">  1        1 0.40222952E+00 0.24586800E+04</pdfrwt>
<pdfrwt beam="2">  1       -1 0.88928995E-01 0.24586800E+04</pdfrwt>
<totfact> 0.12461516E+00</totfact>
</mgrwt>
</event>
<event>
 6    1  0.5026615E-004  0.2490674E+04  0.7818608E-02  0.8406315E-01
          2   -1    0    0  501    0  0.00000000000E+00  0.00000000000E+00  0.24312485192E+04  0.24312485192E+04  0.00000000000E+00 0.  1.
         -2   -1    0    0    0  501 -0.00000000000E+00 -0.00000000000E+00 -0.63788812467E+03  0.63788812467E+03  0.00000000000E+00 0. -1.
         23    2    1    2    0    0  0.42877353530E+03 -0.89699216306E+03 -0.22630638493E+02  0.99880693169E+03  0.93066942697E+02 0.  0.
         11    1    3    3    0    0  0.10197514335E+03 -0.22248655689E+03 -0.45585741561E+02  0.24895232011E+03  0.00000000000E+00 0.  1.
        -11    1    3    3    0    0  0.32679839195E+03 -0.67450560617E+03  0.22955103068E+02  0.74985461157E+03  0.00000000000E+00 0. -1.
         22    1    1    2    0    0 -0.42877353530E+03  0.89699216306E+03  0.18159910330E+04  0.20703297122E+04  0.00000000000E+00 0.  1.
<mgrwt>
<rscale>  0 0.24906743E+04</rscale>
<asrwt>0</asrwt>
<pdfrwt beam="1">  1        2 0.37403823E+00 0.24906743E+04</pdfrwt>
<pdfrwt beam="2">  1       -2 0.98136636E-01 0.24906743E+04</pdfrwt>
<totfact> 0.29396537E+00</totfact>
</mgrwt>
</event>
<event>
 6    1  0.5026615E-004  0.1462766E+04  0.7818608E-02  0.8909598E-01
          2   -1    0    0  501    0  0.00000000000E+00  0.00000000000E+00  0.10712418407E+04  0.10712418407E+04  0.00000000000E+00 0.  1.
         -2   -1    0    0    0  501 -0.00000000000E+00 -0.00000000000E+00 -0.49934690452E+03  0.49934690452E+03  0.00000000000E+00 0. -1.
         23    2    1    2    0    0 -0.65771618135E+03  0.93174321995E+02 -0.34223226458E+02  0.67133835929E+03  0.90840155922E+02 0.  0.
         11    1    3    3    0    0 -0.10835941635E+03  0.16642732734E+02 -0.39849348879E+02  0.11664782154E+03  0.00000000000E+00 0.  1.
        -11    1    3    3    0    0 -0.54935676500E+03  0.76531589261E+02  0.56261224214E+01  0.55469053774E+03  0.00000000000E+00 0. -1.
         22    1    1    2    0    0  0.65771618135E+03 -0.93174321995E+02  0.60611816261E+03  0.89925038590E+03  0.00000000000E+00 0.  1.
<mgrwt>
<rscale>  0 0.14627663E+04</rscale>
<asrwt>0</asrwt>
<pdfrwt beam="1">  1        2 0.16480644E+00 0.14627663E+04</pdfrwt>
<pdfrwt beam="2">  1       -2 0.76822601E-01 0.14627663E+04</pdfrwt>
<totfact> 0.33300289E+01</totfact>
</mgrwt>
</event>
<event>
 6    1  0.5026615E-004  0.4499477E+04  0.7818608E-02  0.7910728E-01
         -2   -1    0    0    0  501 -0.00000000000E+00  0.00000000000E+00  0.16822183398E+04  0.16822183398E+04  0.00000000000E+00 0. -1.
          2   -1    0    0  501    0  0.00000000000E+00 -0.00000000000E+00 -0.30087190678E+04  0.30087190678E+04  0.00000000000E+00 0.  1.
         23    2    1    2    0    0  0.12044172658E+04 -0.71977026847E+03 -0.24958144115E+04  0.28644695924E+04  0.86059743062E+02 0.  0.
         13    1    3    3    0    0  0.96996549381E+03 -0.61460942420E+03 -0.20097312848E+04  0.23146484918E+04  0.00000000000E+00 0.  1.
        -13    1    3    3    0    0  0.23445177202E+03 -0.10516084428E+03 -0.48608312673E+03  0.54982110060E+03  0.00000000000E+00 0. -1.
         22    1    1    2    0    0 -0.12044172658E+04  0.71977026847E+03  0.11693136836E+04  0.18264678153E+04  0.00000000000E+00 0. -1.
<mgrwt>
<rscale>  0 0.44994766E+04</rscale>
<asrwt>0</asrwt>
<pdfrwt beam="1">  1        2 0.46287986E+00 0.44994766E+04</pdfrwt>
<pdfrwt beam="2">  1       -2 0.25880282E+00 0.44994766E+04</pdfrwt>
<totfact> 0.73884188E-02</totfact>
</mgrwt>
</event>
<event>
 6    1  0.5026615E-004  0.1457906E+04  0.7818608E-02  0.8912938E-01
          2   -1    0    0  501    0  0.00000000000E+00  0.00000000000E+00  0.12006188621E+04  0.12006188621E+04  0.00000000000E+00 0.  1.
         -2   -1    0    0    0  501 -0.00000000000E+00 -0.00000000000E+00 -0.44258195246E+03  0.44258195246E+03  0.00000000000E+00 0. -1.
         23    2    1    2    0    0 -0.59660862997E+03 -0.34432038631E+03  0.63934614039E+03  0.94421162689E+03  0.90960009554E+02 0.  0.
         13    1    3    3    0    0 -0.12911734943E+03 -0.57119536835E+02  0.87901884781E+02  0.16631498056E+03  0.00000000000E+00 0. -1.
        -13    1    3    3    0    0 -0.46749128054E+03 -0.28720084947E+03  0.55144425561E+03  0.77789664633E+03  0.00000000000E+00 0.  1.
         22    1    1    2    0    0  0.59660862997E+03  0.34432038631E+03  0.11869076925E+03  0.69898918767E+03  0.00000000000E+00 0. -1.
<mgrwt>
<rscale>  0 0.14579057E+04</rscale>
<asrwt>0</asrwt>
<pdfrwt beam="1">  1        2 0.18471059E+00 0.14579057E+04</pdfrwt>
<pdfrwt beam="2">  1       -2 0.68089532E-01 0.14579057E+04</pdfrwt>
<totfact> 0.36219418E+01</totfact>
</mgrwt>
</event>
<event>
 6    1  0.5026615E-004  0.1080352E+04  0.7818608E-02  0.9224556E-01
          2   -1    0    0  501    0  0.00000000000E+00  0.00000000000E+00  0.79772742862E+03  0.79772742862E+03  0.00000000000E+00 0.  1.
         -2   -1    0    0    0  501 -0.00000000000E+00 -0.00000000000E+00 -0.36577681043E+03  0.36577681043E+03  0.00000000000E+00 0. -1.
         23    2    1    2    0    0 -0.33001690548E+03  0.61491185149E+02 -0.23279446572E+03  0.41880406427E+03  0.92256475271E+02 0.  0.
         13    1    3    3    0    0 -0.75249903105E+02 -0.11467291239E+02 -0.89654489568E+02  0.11760941368E+03  0.00000000000E+00 0. -1.
        -13    1    3    3    0    0 -0.25476700237E+03  0.72958476388E+02 -0.14313997615E+03  0.30119465059E+03  0.00000000000E+00 0.  1.
         22    1    1    2    0    0  0.33001690548E+03 -0.61491185149E+02  0.66474508390E+03  0.74470017478E+03  0.00000000000E+00 0.  1.
<mgrwt>
<rscale>  0 0.10803522E+04</rscale>
<asrwt>0</asrwt>
<pdfrwt beam="1">  1        2 0.12272730E+00 0.10803522E+04</pdfrwt>
<pdfrwt beam="2">  1       -2 0.56273355E-01 0.10803522E+04</pdfrwt>
<totfact> 0.10189702E+02</totfact>
</mgrwt>
</event>
<event>
 6    1  0.5026615E-004  0.2008354E+04  0.7818608E-02  0.8602725E-01
          2   -1    0    0  501    0  0.00000000000E+00  0.00000000000E+00  0.21105195768E+04  0.21105195768E+04  0.00000000000E+00 0.  1.
         -2   -1    0    0    0  501 -0.00000000000E+00 -0.00000000000E+00 -0.47778333404E+03  0.47778333404E+03  0.00000000000E+00 0. -1.
         23    2    1    2    0    0  0.64641923549E+03  0.21948147030E+03 -0.12739949409E+03  0.70041844510E+03  0.91243757722E+02 0.  0.
         11    1    3    3    0    0  0.31078969477E+03  0.12858676443E+03 -0.10338207816E+03  0.35187020966E+03  0.00000000000E+00 0. -1.
        -11    1    3    3    0    0  0.33562954072E+03  0.90894705871E+02 -0.24017415929E+02  0.34854823544E+03  0.00000000000E+00 0.  1.
         22    1    1    2    0    0 -0.64641923549E+03 -0.21948147030E+03  0.17601357369E+04  0.18878844658E+04  0.00000000000E+00 0.  1.
<mgrwt>
<rscale>  0 0.20083536E+04</rscale>
<asrwt>0</asrwt>
<pdfrwt beam="1">  1        2 0.32469531E+00 0.20083536E+04</pdfrwt>
<pdfrwt beam="2">  1       -2 0.73505129E-01 0.20083536E+04</pdfrwt>
<totfact> 0.89853321E+00</totfact>
</mgrwt>
</event>
<event>
 6    1  0.5026615E-004  0.1524707E+04  0.7818608E-02  0.8868187E-01
         -1   -1    0    0    0  501 -0.00000000000E+00  0.00000000000E+00  0.54726023776E+03  0.54726023776E+03  0.00000000000E+00 0. -1.
          1   -1    0    0  501    0  0.00000000000E+00 -0.00000000000E+00 -0.10619869332E+04  0.10619869332E+04  0.00000000000E+00 0.  1.
         23    2    1    2    0    0 -0.62021475433E+03  0.16330680804E+03 -0.68805157401E+03  0.94488509451E+03  0.89763123204E+02 0.  0.
         13    1    3    3    0    0 -0.26079980890E+03  0.10908089213E+03 -0.27006666534E+03  0.39096187165E+03  0.00000000000E+00 0. -1.
        -13    1    3    3    0    0 -0.35941494543E+03  0.54225915908E+02 -0.41798490867E+03  0.55392322286E+03  0.00000000000E+00 0.  1.
         22    1    1    2    0    0  0.62021475433E+03 -0.16330680804E+03  0.17332487859E+03  0.66436207642E+03  0.00000000000E+00 0. -1.
<mgrwt>
<rscale>  0 0.15247075E+04</rscale>
<asrwt>0</asrwt>
<pdfrwt beam="1">  1        1 0.16338260E+00 0.15247075E+04</pdfrwt>
<pdfrwt beam="2">  1       -1 0.84193883E-01 0.15247075E+04</pdfrwt>
<totfact> 0.18286750E+01</totfact>
</mgrwt>
</event>
<event>
 6    1  0.5026615E-004  0.4865113E+04  0.7818608E-02  0.7849658E-01
          2   -1    0    0  501    0  0.00000000000E+00  0.00000000000E+00  0.25301326915E+04  0.25301326915E+04  0.00000000000E+00 0.  1.
         -2   -1    0    0    0  501 -0.00000000000E+00 -0.00000000000E+00 -0.23387431389E+04  0.23387431389E+04  0.00000000000E+00 0. -1.
         23    2    1    2    0    0  0.14783732367E+04 -0.17728777489E+04 -0.66951097626E+03  0.24051727923E+04  0.89040853768E+02 0.  0.
         11    1    3    3    0    0  0.11461389143E+04 -0.13574364549E+04 -0.55235430741E+03  0.18604739775E+04  0.00000000000E+00 0. -1.
        -11    1    3    3    0    0  0.33223432243E+03 -0.41544129401E+03 -0.11715666886E+03  0.54469881478E+03  0.00000000000E+00 0.  1.
         22    1    1    2    0    0 -0.14783732367E+04  0.17728777489E+04  0.86090052885E+03  0.24637030382E+04  0.00000000000E+00 0.  1.
<mgrwt>
<rscale>  0 0.48651127E+04</rscale>
<asrwt>0</asrwt>
<pdfrwt beam="1">  1        2 0.38925118E+00 0.48651127E+04</pdfrwt>
<pdfrwt beam="2">  1       -2 0.35980664E+00 0.48651127E+04</pdfrwt>
<totfact> 0.33183027E-02</totfact>
</mgrwt>
</event>
<event>
 6    1  0.5026615E-004  0.4471269E+04  0.7818608E-02  0.7915686E-01
          2   -1    0    0  501    0  0.00000000000E+00  0.00000000000E+00  0.37011626937E+04  0.37011626937E+04  0.00000000000E+00 0.  1.
         -2   -1    0    0    0  501 -0.00000000000E+00 -0.00000000000E+00 -0.13504034072E+04  0.13504034072E+04  0.00000000000E+00 0. -1.
         23    2    1    2    0    0 -0.10255103246E+04  0.13698482733E+04  0.27997082088E+04  0.32824672194E+04  0.89829137999E+02 0.  0.
         13    1    3    3    0    0 -0.50850135789E+03  0.73511162398E+03  0.14040241764E+04  0.16644057855E+04  0.00000000000E+00 0. -1.
        -13    1    3    3    0    0 -0.51700896674E+03  0.63473664929E+03  0.13956840324E+04  0.16180614339E+04  0.00000000000E+00 0.  1.
         22    1    1    2    0    0  0.10255103246E+04 -0.13698482733E+04 -0.44894892230E+03  0.17690988815E+04  0.00000000000E+00 0. -1.
<mgrwt>
<rscale>  0 0.44712695E+04</rscale>
<asrwt>0</asrwt>
<pdfrwt beam="1">  1        2 0.56940964E+00 0.44712695E+04</pdfrwt>
<pdfrwt beam="2">  1       -2 0.20775437E+00 0.44712695E+04</pdfrwt>
<totfact> 0.52238650E-02</totfact>
</mgrwt>
</event>
<event>
 6    1  0.5026615E-004  0.3587840E+04  0.7818608E-02  0.8093283E-01
          2   -1    0    0  501    0  0.00000000000E+00  0.00000000000E+00  0.40447175837E+04  0.40447175837E+04  0.00000000000E+00 0.  1.
         -2   -1    0    0    0  501 -0.00000000000E+00 -0.00000000000E+00 -0.79564256598E+03  0.79564256598E+03  0.00000000000E+00 0. -1.
         23    2    1    2    0    0  0.70301882074E+03 -0.10819932318E+04 -0.53761073307E+02  0.12944228885E+04  0.87724256775E+02 0.  0.
         11    1    3    3    0    0  0.27243131662E+03 -0.36271947868E+03  0.94728194504E+01  0.45373337633E+03  0.00000000000E+00 0.  1.
        -11    1    3    3    0    0  0.43058750412E+03 -0.71927375315E+03 -0.63233892757E+02  0.84068951216E+03  0.00000000000E+00 0. -1.
         22    1    1    2    0    0 -0.70301882074E+03  0.10819932318E+04  0.33028360910E+04  0.35459372612E+04  0.00000000000E+00 0.  1.
<mgrwt>
<rscale>  0 0.35878403E+04</rscale>
<asrwt>0</asrwt>
<pdfrwt beam="1">  1        2 0.62226423E+00 0.35878403E+04</pdfrwt>
<pdfrwt beam="2">  1       -2 0.12240655E+00 0.35878403E+04</pdfrwt>
<totfact> 0.12928464E-01</totfact>
</mgrwt>
</event>
<event>
 6    1  0.5026615E-004  0.2758493E+04  0.7818608E-02  0.8316272E-01
          2   -1    0    0  501    0  0.00000000000E+00  0.00000000000E+00  0.14569064518E+04  0.14569064518E+04  0.00000000000E+00 0.  1.
         -2   -1    0    0    0  501 -0.00000000000E+00 -0.00000000000E+00 -0.13057262971E+04  0.13057262971E+04  0.00000000000E+00 0. -1.
         23    2    1    2    0    0 -0.56906416403E+02 -0.11848019621E+04 -0.62625613200E+03  0.13443939786E+04  0.90578128664E+02 0.  0.
         13    1    3    3    0    0 -0.72776566940E+02 -0.81426851511E+03 -0.40220343525E+03  0.91109672742E+03  0.00000000000E+00 0.  1.
        -13    1    3    3    0    0  0.15870150537E+02 -0.37053344696E+03 -0.22405269674E+03  0.43329725122E+03  0.00000000000E+00 0. -1.
         22    1    1    2    0    0  0.56906416403E+02  0.11848019621E+04  0.77743628664E+03  0.14182387702E+04  0.00000000000E+00 0.  1.
<mgrwt>
<rscale>  0 0.27584931E+04</rscale>
<asrwt>0</asrwt>
<pdfrwt beam="1">  1        2 0.22413945E+00 0.27584931E+04</pdfrwt>
<pdfrwt beam="2">  1       -2 0.20088097E+00 0.27584931E+04</pdfrwt>
<totfact> 0.15388497E+00</totfact>
</mgrwt>
</event>
<event>
 6    1  0.5026615E-004  0.3085005E+04  0.7818608E-02  0.8219865E-01
         -2   -1    0    0    0  501 -0.00000000000E+00  0.00000000000E+00  0.63699223554E+03  0.63699223554E+03  0.00000000000E+00 0. -1.
          2   -1    0    0  501    0  0.00000000000E+00 -0.00000000000E+00 -0.37352332972E+04  0.37352332972E+04  0.00000000000E+00 0.  1.
         23    2    1    2    0    0 -0.10422873320E+04  0.92728167931E+03 -0.24788528264E+04  0.28458389562E+04  0.88734627911E+02 0.  0.
         13    1    3    3    0    0 -0.30683216553E+03  0.25114258577E+03 -0.63168071148E+03  0.74581438538E+03  0.00000000000E+00 0.  1.
        -13    1    3    3    0    0 -0.73545516646E+03  0.67613909354E+03 -0.18471721150E+04  0.21000245708E+04  0.00000000000E+00 0. -1.
         22    1    1    2    0    0  0.10422873320E+04 -0.92728167931E+03 -0.61938823524E+03  0.15263865766E+04  0.00000000000E+00 0. -1.
<mgrwt>
<rscale>  0 0.30850054E+04</rscale>
<asrwt>0</asrwt>
<pdfrwt beam="1">  1        2 0.57465127E+00 0.30850054E+04</pdfrwt>
<pdfrwt beam="2">  1       -2 0.97998807E-01 0.30850054E+04</pdfrwt>
<totfact> 0.40431959E-01</totfact>
</mgrwt>
</event>
<event>
 6    1  0.5026615E-004  0.9715678E+03  0.7818608E-02  0.9340290E-01
         -2   -1    0    0    0  501 -0.00000000000E+00  0.00000000000E+00  0.14087527439E+04  0.14087527439E+04  0.00000000000E+00 0. -1.
          2   -1    0    0  501    0  0.00000000000E+00 -0.00000000000E+00 -0.16751413838E+03  0.16751413838E+03  0.00000000000E+00 0.  1.
         23    2    1    2    0    0 -0.23787705852E+03 -0.11397754839E+03 -0.27859575911E+02  0.28004677341E+03  0.89853563198E+02 0.  0.
         11    1    3    3    0    0 -0.23296177205E+03 -0.12656112204E+03 -0.27352133823E+02  0.26652775479E+03  0.00000000000E+00 0. -1.
        -11    1    3    3    0    0 -0.49152864728E+01  0.12583573652E+02 -0.50744208717E+00  0.13519018620E+02  0.00000000000E+00 0.  1.
         22    1    1    2    0    0  0.23787705852E+03  0.11397754839E+03  0.12690981814E+04  0.12962201088E+04  0.00000000000E+00 0. -1.
<mgrwt>
<rscale>  0 0.97156781E+03</rscale>
<asrwt>0</asrwt>
<pdfrwt beam="1">  1        2 0.25771407E-01 0.97156781E+03</pdfrwt>
<pdfrwt beam="2">  1       -2 0.21673118E+00 0.97156781E+03</pdfrwt>
<totfact> 0.22027113E+01</totfact>
</mgrwt>
</event>
<event>
 6    1  0.5026615E-004  0.4834264E+04  0.7818608E-02  0.7854595E-01
         -2   -1    0    0    0  501 -0.00000000000E+00  0.00000000000E+00  0.22191698122E+04  0.22191698122E+04  0.00000000000E+00 0. -1.
          2   -1    0    0  501    0  0.00000000000E+00 -0.00000000000E+00 -0.26327530888E+04  0.26327530888E+04  0.00000000000E+00 0.  1.
         23    2    1    2    0    0 -0.22856760131E+04 -0.64167588574E+03  0.24426924608E+03  0.23884228055E+04  0.93985392938E+02 0.  0.
         11    1    3    3    0    0 -0.84210588211E+03 -0.20857835295E+03  0.52609777599E+02  0.86914615267E+03  0.00000000000E+00 0. -1.
        -11    1    3    3    0    0 -0.14435701310E+04 -0.43309753278E+03  0.19165946848E+03  0.15192766528E+04  0.00000000000E+00 0.  1.
         22    1    1    2    0    0  0.22856760131E+04  0.64167588574E+03 -0.65785252262E+03  0.24635000955E+04  0.00000000000E+00 0.  1.
<mgrwt>
<rscale>  0 0.48342636E+04</rscale>
<asrwt>0</asrwt>
<pdfrwt beam="1">  1        2 0.40503894E+00 0.48342636E+04</pdfrwt>
<pdfrwt beam="2">  1       -2 0.34141074E+00 0.48342636E+04</pdfrwt>
<totfact> 0.37832260E-02</totfact>
</mgrwt>
</event>
<event>
 6    1  0.5026615E-004  0.1956931E+04  0.7818608E-02  0.8627026E-01
          2   -1    0    0  501    0  0.00000000000E+00  0.00000000000E+00  0.24175361173E+04  0.24175361173E+04  0.00000000000E+00 0.  1.
         -2   -1    0    0    0  501 -0.00000000000E+00 -0.00000000000E+00 -0.39602094024E+03  0.39602094024E+03  0.00000000000E+00 0. -1.
         23    2    1    2    0    0 -0.77915319729E+03 -0.58719883441E+03  0.10587917435E+04  0.14428935009E+04  0.94971168469E+02 0.  0.
         11    1    3    3    0    0 -0.49783016197E+03 -0.43056367757E+03  0.70273960488E+03  0.96284105795E+03  0.00000000000E+00 0. -1.
        -11    1    3    3    0    0 -0.28132303532E+03 -0.15663515684E+03  0.35605213866E+03  0.48005244297E+03  0.00000000000E+00 0.  1.
         22    1    1    2    0    0  0.77915319729E+03  0.58719883441E+03  0.96272343349E+03  0.13706635566E+04  0.00000000000E+00 0. -1.
<mgrwt>
<rscale>  0 0.19569312E+04</rscale>
<asrwt>0</asrwt>
<pdfrwt beam="1">  1        2 0.37192862E+00 0.19569312E+04</pdfrwt>
<pdfrwt beam="2">  1       -2 0.60926300E-01 0.19569312E+04</pdfrwt>
<totfact> 0.90836090E+00</totfact>
</mgrwt>
</event>
<event>
 6    1  0.5026615E-004  0.1987851E+04  0.7818608E-02  0.8612322E-01
          2   -1    0    0  501    0  0.00000000000E+00  0.00000000000E+00  0.13914439417E+04  0.13914439417E+04  0.00000000000E+00 0.  1.
         -2   -1    0    0    0  501 -0.00000000000E+00 -0.00000000000E+00 -0.70997319520E+03  0.70997319520E+03  0.00000000000E+00 0. -1.
         23    2    1    2    0    0 -0.23132371828E+03 -0.46416335510E+03  0.12351475720E+04  0.13427892243E+04  0.92385569061E+02 0.  0.
         11    1    3    3    0    0 -0.17388292635E+03 -0.33539633241E+03  0.78692708592E+03  0.87291477844E+03  0.00000000000E+00 0. -1.
        -11    1    3    3    0    0 -0.57440791930E+02 -0.12876702269E+03  0.44822048606E+03  0.46987444582E+03  0.00000000000E+00 0.  1.
         22    1    1    2    0    0  0.23132371828E+03  0.46416335510E+03 -0.55367682544E+03  0.75862791267E+03  0.00000000000E+00 0. -1.
<mgrwt>
<rscale>  0 0.19878510E+04</rscale>
<asrwt>0</asrwt>
<pdfrwt beam="1">  1        2 0.21406830E+00 0.19878510E+04</pdfrwt>
<pdfrwt beam="2">  1       -2 0.10922665E+00 0.19878510E+04</pdfrwt>
<totfact> 0.90977886E+00</totfact>
</mgrwt>
</event>
<event>
 6    1  0.5026615E-004  0.2908862E+04  0.7818608E-02  0.8270246E-01
          2   -1    0    0  501    0  0.00000000000E+00  0.00000000000E+00  0.39742695041E+04  0.39742695041E+04  0.00000000000E+00 0. -1.
         -2   -1    0    0    0  501 -0.00000000000E+00 -0.00000000000E+00 -0.53226632787E+03  0.53226632787E+03  0.00000000000E+00 0.  1.
         23    2    1    2    0    0 -0.21593955807E+03 -0.14344656971E+04  0.18391480069E+04  0.23447156677E+04  0.10442433697E+03 0.  0.
         11    1    3    3    0    0 -0.39578156135E+02 -0.23945091492E+03  0.37353465015E+03  0.44545628962E+03  0.00000000000E+00 0.  1.
        -11    1    3    3    0    0 -0.17636140193E+03 -0.11950147822E+04  0.14656133568E+04  0.18992593781E+04  0.00000000000E+00 0. -1.
         22    1    1    2    0    0  0.21593955807E+03  0.14344656971E+04  0.16028551694E+04  0.21618201643E+04  0.00000000000E+00 0. -1.
<mgrwt>
<rscale>  0 0.29088622E+04</rscale>
<asrwt>0</asrwt>
<pdfrwt beam="1">  1        2 0.61142606E+00 0.29088622E+04</pdfrwt>
<pdfrwt beam="2">  1       -2 0.81887130E-01 0.29088622E+04</pdfrwt>
<totfact> 0.40587602E-01</totfact>
</mgrwt>
</event>
<event>
 6    1  0.5026615E-004  0.1862995E+04  0.7818608E-02  0.8673499E-01
          2   -1    0    0  501    0  0.00000000000E+00  0.00000000000E+00  0.22222920125E+04  0.22222920125E+04  0.00000000000E+00 0. -1.
         -2   -1    0    0    0  501 -0.00000000000E+00 -0.00000000000E+00 -0.39044716957E+03  0.39044716957E+03  0.00000000000E+00 0.  1.
         23    2    1    2    0    0 -0.84414519615E+03 -0.26312790687E+03  0.13187739432E+04  0.15904578334E+04  0.92595891642E+02 0.  0.
         13    1    3    3    0    0 -0.17148014634E+03 -0.44769489142E+02  0.20351736826E+03  0.26986861050E+03  0.00000000000E+00 0.  1.
        -13    1    3    3    0    0 -0.67266504981E+03 -0.21835841773E+03  0.11152565749E+04  0.13205892229E+04  0.00000000000E+00 0. -1.
         22    1    1    2    0    0  0.84414519615E+03  0.26312790687E+03  0.51307089971E+03  0.10222813486E+04  0.00000000000E+00 0. -1.
<mgrwt>
<rscale>  0 0.18629950E+04</rscale>
<asrwt>0</asrwt>
<pdfrwt beam="1">  1        2 0.34189107E+00 0.18629950E+04</pdfrwt>
<pdfrwt beam="2">  1       -2 0.60068797E-01 0.18629950E+04</pdfrwt>
<totfact> 0.12177637E+01</totfact>
</mgrwt>
</event>
<event>
 6    1  0.5026615E-004  0.4054679E+04  0.7818608E-02  0.7993606E-01
          2   -1    0    0  501    0  0.00000000000E+00  0.00000000000E+00  0.18408075671E+04  0.18408075671E+04  0.00000000000E+00 0.  1.
         -2   -1    0    0    0  501 -0.00000000000E+00 -0.00000000000E+00 -0.22327727300E+04  0.22327727300E+04  0.00000000000E+00 0. -1.
         23    2    1    2    0    0 -0.11644112318E+04  0.14539114361E+04  0.60530705485E+03  0.19606998326E+04  0.90748125135E+02 0.  0.
         13    1    3    3    0    0 -0.67480329181E+03  0.90983595585E+03  0.38240157414E+03  0.11955717934E+04  0.00000000000E+00 0.  1.
        -13    1    3    3    0    0 -0.48960794003E+03  0.54407548021E+03  0.22290548070E+03  0.76512803924E+03  0.00000000000E+00 0. -1.
         22    1    1    2    0    0  0.11644112318E+04 -0.14539114361E+04 -0.99727221780E+03  0.21128804645E+04  0.00000000000E+00 0. -1.
<mgrwt>
<rscale>  0 0.40546787E+04</rscale>
<asrwt>0</asrwt>
<pdfrwt beam="1">  1        2 0.28320117E+00 0.40546787E+04</pdfrwt>
<pdfrwt beam="2">  1       -2 0.34350349E+00 0.40546787E+04</pdfrwt>
<totfact> 0.10993987E-01</totfact>
</mgrwt>
</event>
<event>
 6    1  0.5792390E-004  0.3997935E+04  0.7818608E-02  0.8004963E-01
          2   -1    0    0  501    0  0.00000000000E+00  0.00000000000E+00  0.22792183192E+04  0.22792183192E+04  0.00000000000E+00 0.  1.
         -2   -1    0    0    0  501 -0.00000000000E+00 -0.00000000000E+00 -0.17531763401E+04  0.17531763401E+04  0.00000000000E+00 0. -1.
         23    2    1    2    0    0 -0.10053369003E+04  0.17196701028E+04  0.10680455851E+03  0.19967798724E+04  0.88063042127E+02 0.  0.
         11    1    3    3    0    0 -0.69811668129E+03  0.11695129418E+04  0.33908219126E+02  0.13624526374E+04  0.00000000000E+00 0.  1.
        -11    1    3    3    0    0 -0.30722021902E+03  0.55015716103E+03  0.72896339379E+02  0.63432723503E+03  0.00000000000E+00 0. -1.
         22    1    1    2    0    0  0.10053369003E+04 -0.17196701028E+04  0.41923742057E+03  0.20356147869E+04  0.00000000000E+00 0.  1.
<mgrwt>
<rscale>  0 0.39979353E+04</rscale>
<asrwt>0</asrwt>
<pdfrwt beam="1">  1        2 0.35064897E+00 0.39979353E+04</pdfrwt>
<pdfrwt beam="2">  1       -2 0.26971944E+00 0.39979353E+04</pdfrwt>
<totfact> 0.17885632E-01</totfact>
</mgrwt>
</event>
<event>
 6    1  0.5026615E-004  0.2197420E+04  0.7818608E-02  0.8519503E-01
         -2   -1    0    0    0  501 -0.00000000000E+00  0.00000000000E+00  0.44029970756E+03  0.44029970756E+03  0.00000000000E+00 0. -1.
          2   -1    0    0  501    0  0.00000000000E+00 -0.00000000000E+00 -0.27416850944E+04  0.27416850944E+04  0.00000000000E+00 0.  1.
         23    2    1    2    0    0  0.13123423246E+03 -0.56745633898E+03  0.19310128809E+03  0.62040464669E+03  0.91567995249E+02 0.  0.
         11    1    3    3    0    0  0.40203086001E+02 -0.24023661576E+03  0.12583690817E+03  0.27416208186E+03  0.00000000000E+00 0.  1.
        -11    1    3    3    0    0  0.91031146462E+02 -0.32721972322E+03  0.67264379929E+02  0.34624256483E+03  0.00000000000E+00 0. -1.
         22    1    1    2    0    0 -0.13123423246E+03  0.56745633898E+03 -0.24944866749E+04  0.25615801552E+04  0.00000000000E+00 0.  1.
<mgrwt>
<rscale>  0 0.21974195E+04</rscale>
<asrwt>0</asrwt>
<pdfrwt beam="1">  1        2 0.42179770E+00 0.21974195E+04</pdfrwt>
<pdfrwt beam="2">  1       -2 0.67738417E-01 0.21974195E+04</pdfrwt>
<totfact> 0.45797579E+00</totfact>
</mgrwt>
</event>
<event>
 6    1  0.5026615E-004  0.1165611E+04  0.7818608E-02  0.9143502E-01
          2   -1    0    0  501    0  0.00000000000E+00  0.00000000000E+00  0.15704737533E+04  0.15704737533E+04  0.00000000000E+00 0.  1.
         -2   -1    0    0    0  501 -0.00000000000E+00 -0.00000000000E+00 -0.21627997523E+03  0.21627997523E+03  0.00000000000E+00 0. -1.
         23    2    1    2    0    0 -0.28439482912E+03  0.20553235984E+03 -0.25182501406E+02  0.36344670256E+03  0.91298288344E+02 0.  0.
         11    1    3    3    0    0 -0.16315736287E+03  0.16078978454E+03 -0.42755434398E+02  0.23302726674E+03  0.00000000000E+00 0. -1.
        -11    1    3    3    0    0 -0.12123746625E+03  0.44742575295E+02  0.17572932992E+02  0.13041943583E+03  0.00000000000E+00 0.  1.
         22    1    1    2    0    0  0.28439482912E+03 -0.20553235984E+03  0.13793762795E+04  0.14233070260E+04  0.00000000000E+00 0.  1.
<mgrwt>
<rscale>  0 0.11656106E+04</rscale>
<asrwt>0</asrwt>
<pdfrwt beam="1">  1        2 0.24161134E+00 0.11656106E+04</pdfrwt>
<pdfrwt beam="2">  1       -2 0.33273843E-01 0.11656106E+04</pdfrwt>
<totfact> 0.96607612E+01</totfact>
</mgrwt>
</event>
<event>
 6    1  0.5026615E-004  0.2074091E+04  0.7818608E-02  0.8572743E-01
          2   -1    0    0  501    0  0.00000000000E+00  0.00000000000E+00  0.26170649531E+04  0.26170649531E+04  0.00000000000E+00 0.  1.
         -2   -1    0    0    0  501 -0.00000000000E+00 -0.00000000000E+00 -0.41094247401E+03  0.41094247401E+03  0.00000000000E+00 0. -1.
         23    2    1    2    0    0  0.75328115769E+03 -0.62042614764E+03  0.60180282776E+03  0.11501888387E+04  0.91687589302E+02 0.  0.
         11    1    3    3    0    0  0.49188246455E+03 -0.37497293561E+03  0.33635589982E+03  0.70405138500E+03  0.00000000000E+00 0. -1.
        -11    1    3    3    0    0  0.26139869314E+03 -0.24545321204E+03  0.26544692794E+03  0.44613745374E+03  0.00000000000E+00 0.  1.
         22    1    1    2    0    0 -0.75328115769E+03  0.62042614764E+03  0.16043196513E+04  0.18778185884E+04  0.00000000000E+00 0.  1.
<mgrwt>
<rscale>  0 0.20740908E+04</rscale>
<asrwt>0</asrwt>
<pdfrwt beam="1">  1        2 0.40262537E+00 0.20740908E+04</pdfrwt>
<pdfrwt beam="2">  1       -2 0.63221921E-01 0.20740908E+04</pdfrwt>
<totfact> 0.63670692E+00</totfact>
</mgrwt>
</event>
<event>
 6    1  0.5026615E-004  0.3685128E+04  0.7818608E-02  0.8071266E-01
         -2   -1    0    0    0  501 -0.00000000000E+00  0.00000000000E+00  0.80381064583E+03  0.80381064583E+03  0.00000000000E+00 0. -1.
          2   -1    0    0  501    0  0.00000000000E+00 -0.00000000000E+00 -0.42236841951E+04  0.42236841951E+04  0.00000000000E+00 0.  1.
         23    2    1    2    0    0  0.58905300913E+03  0.16070565915E+03 -0.40810729788E+04  0.41274979287E+04  0.90954589348E+02 0.  0.
         11    1    3    3    0    0  0.35607008469E+03  0.11360733521E+03 -0.22090985575E+04  0.22404930191E+04  0.00000000000E+00 0. -1.
        -11    1    3    3    0    0  0.23298292445E+03  0.47098323938E+02 -0.18719744213E+04  0.18870049097E+04  0.00000000000E+00 0.  1.
         22    1    1    2    0    0 -0.58905300913E+03 -0.16070565915E+03  0.66119942947E+03  0.89999691221E+03  0.00000000000E+00 0. -1.
<mgrwt>
<rscale>  0 0.36851281E+04</rscale>
<asrwt>0</asrwt>
<pdfrwt beam="1">  1        2 0.64979757E+00 0.36851281E+04</pdfrwt>
<pdfrwt beam="2">  1       -2 0.12366318E+00 0.36851281E+04</pdfrwt>
<totfact> 0.88039092E-02</totfact>
</mgrwt>
</event>
<event>
 6    1  0.5026615E-004  0.3672771E+04  0.7818608E-02  0.8074023E-01
          2   -1    0    0  501    0  0.00000000000E+00  0.00000000000E+00  0.44713630583E+04  0.44713630583E+04  0.00000000000E+00 0.  1.
         -2   -1    0    0    0  501 -0.00000000000E+00 -0.00000000000E+00 -0.75420209756E+03  0.75420209756E+03  0.00000000000E+00 0. -1.
         23    2    1    2    0    0 -0.73339842775E+02  0.17300322586E+04  0.99440967497E+03  0.19988384999E+04  0.90079956041E+02 0.  0.
         13    1    3    3    0    0 -0.84560135209E+01  0.92098242868E+03  0.56654605672E+03  0.10813207537E+04  0.00000000000E+00 0. -1.
        -13    1    3    3    0    0 -0.64883829254E+02  0.80904982993E+03  0.42786361825E+03  0.91751774612E+03  0.00000000000E+00 0.  1.
         22    1    1    2    0    0  0.73339842775E+02 -0.17300322586E+04  0.27227512858E+04  0.32267266560E+04  0.00000000000E+00 0.  1.
<mgrwt>
<rscale>  0 0.36727708E+04</rscale>
<asrwt>0</asrwt>
<pdfrwt beam="1">  1        2 0.68790199E+00 0.36727708E+04</pdfrwt>
<pdfrwt beam="2">  1       -2 0.11603109E+00 0.36727708E+04</pdfrwt>
<totfact> 0.61001663E-02</totfact>
</mgrwt>
</event>
<event>
 6    1  0.5026615E-004  0.5104120E+04  0.7818608E-02  0.7812643E-01
          2   -1    0    0  501    0  0.00000000000E+00  0.00000000000E+00  0.23033288701E+04  0.23033288701E+04  0.00000000000E+00 0.  1.
         -2   -1    0    0    0  501 -0.00000000000E+00 -0.00000000000E+00 -0.28276505763E+04  0.28276505763E+04  0.00000000000E+00 0. -1.
         23    2    1    2    0    0 -0.19221317524E+04 -0.14060668763E+04 -0.11822448596E+04  0.26602553806E+04  0.87414232725E+02 0.  0.
         13    1    3    3    0    0 -0.12242965584E+04 -0.91660174482E+03 -0.80173746828E+03  0.17268016069E+04  0.00000000000E+00 0.  1.
        -13    1    3    3    0    0 -0.69783519393E+03 -0.48946513144E+03 -0.38050739127E+03  0.93345377368E+03  0.00000000000E+00 0. -1.
         22    1    1    2    0    0  0.19221317524E+04  0.14060668763E+04  0.65792315338E+03  0.24707240659E+04  0.00000000000E+00 0.  1.
<mgrwt>
<rscale>  0 0.51041196E+04</rscale>
<asrwt>0</asrwt>
<pdfrwt beam="1">  1        2 0.35435829E+00 0.51041196E+04</pdfrwt>
<pdfrwt beam="2">  1       -2 0.43502317E+00 0.51041196E+04</pdfrwt>
<totfact> 0.14244626E-02</totfact>
</mgrwt>
</event>
<event>
 6    1  0.5026615E-004  0.1269944E+04  0.7818608E-02  0.9053746E-01
          2   -1    0    0  501    0  0.00000000000E+00  0.00000000000E+00  0.30166601433E+04  0.30166601433E+04  0.00000000000E+00 0.  1.
         -2   -1    0    0    0  501 -0.00000000000E+00 -0.00000000000E+00 -0.13365416168E+03  0.13365416168E+03  0.00000000000E+00 0. -1.
         23    2    1    2    0    0 -0.30944252498E+03 -0.55023415568E+03  0.14901198674E+04  0.16210517280E+04  0.94016929656E+02 0.  0.
         11    1    3    3    0    0 -0.90869650540E+02 -0.23523104008E+03  0.66486088934E+03  0.71107730788E+03  0.00000000000E+00 0. -1.
        -11    1    3    3    0    0 -0.21857287444E+03 -0.31500311561E+03  0.82525897808E+03  0.90997442008E+03  0.00000000000E+00 0.  1.
         22    1    1    2    0    0  0.30944252498E+03  0.55023415568E+03  0.13928861142E+04  0.15292625770E+04  0.00000000000E+00 0.  1.
<mgrwt>
<rscale>  0 0.12699436E+04</rscale>
<asrwt>0</asrwt>
<pdfrwt beam="1">  1        2 0.46410151E+00 0.12699436E+04</pdfrwt>
<pdfrwt beam="2">  1       -2 0.20562181E-01 0.12699436E+04</pdfrwt>
<totfact> 0.34409671E+01</totfact>
</mgrwt>
</event>
<event>
 6    1  0.9842103E-004  0.3181001E+04  0.7818608E-02  0.8193853E-01
         -2   -1    0    0    0  501 -0.00000000000E+00  0.00000000000E+00  0.16317717846E+04  0.16317717846E+04  0.00000000000E+00 0. -1.
          2   -1    0    0  501    0  0.00000000000E+00 -0.00000000000E+00 -0.15502732099E+04  0.15502732099E+04  0.00000000000E+00 0.  1.
         23    2    1    2    0    0  0.24396359575E+03 -0.77309311445E+03 -0.13265386923E+04  0.15573111256E+04  0.91224119867E+02 0.  0.
         11    1    3    3    0    0  0.12244217855E+03 -0.30352343654E+03 -0.60585144352E+03  0.68860332212E+03  0.00000000000E+00 0. -1.
        -11    1    3    3    0    0  0.12152141720E+03 -0.46956967791E+03 -0.72068724873E+03  0.86870780343E+03  0.00000000000E+00 0.  1.
         22    1    1    2    0    0 -0.24396359575E+03  0.77309311445E+03  0.14080372670E+04  0.16247338689E+04  0.00000000000E+00 0. -1.
<mgrwt>
<rscale>  0 0.31810012E+04</rscale>
<asrwt>0</asrwt>
<pdfrwt beam="1">  1        2 0.23850357E+00 0.31810012E+04</pdfrwt>
<pdfrwt beam="2">  1       -2 0.25104181E+00 0.31810012E+04</pdfrwt>
<totfact> 0.63507879E-01</totfact>
</mgrwt>
</event>
<event>
 6    1  0.6407511E-004  0.3915148E+04  0.7818608E-02  0.8021886E-01
          2   -1    0    0  501    0  0.00000000000E+00  0.00000000000E+00  0.25658270365E+04  0.25658270365E+04  0.00000000000E+00 0.  1.
         -2   -1    0    0    0  501 -0.00000000000E+00 -0.00000000000E+00 -0.14935127762E+04  0.14935127762E+04  0.00000000000E+00 0. -1.
         23    2    1    2    0    0  0.10206091439E+03 -0.15300778130E+04 -0.72342236143E+03  0.16979367216E+04  0.89970291262E+02 0.  0.
         11    1    3    3    0    0  0.82419063562E+02 -0.84829247207E+03 -0.44212268882E+03  0.96013826722E+03  0.00000000000E+00 0.  1.
        -11    1    3    3    0    0  0.19641850829E+02 -0.68178534095E+03 -0.28129967262E+03  0.73779845436E+03  0.00000000000E+00 0. -1.
         22    1    1    2    0    0 -0.10206091439E+03  0.15300778130E+04  0.17957366217E+04  0.23614030911E+04  0.00000000000E+00 0.  1.
<mgrwt>
<rscale>  0 0.39151477E+04</rscale>
<asrwt>0</asrwt>
<pdfrwt beam="1">  1        2 0.39474262E+00 0.39151477E+04</pdfrwt>
<pdfrwt beam="2">  1       -2 0.22977120E+00 0.39151477E+04</pdfrwt>
<totfact> 0.21713271E-01</totfact>
</mgrwt>
</event>
<event>
 6    1  0.5026615E-004  0.3915418E+04  0.7818608E-02  0.8021830E-01
          2   -1    0    0  501    0  0.00000000000E+00  0.00000000000E+00  0.17157404628E+04  0.17157404628E+04  0.00000000000E+00 0.  1.
         -2   -1    0    0    0  501 -0.00000000000E+00 -0.00000000000E+00 -0.22338019547E+04  0.22338019547E+04  0.00000000000E+00 0. -1.
         23    2    1    2    0    0 -0.38252069295E+03  0.51664523345E+02  0.16753088739E+04  0.17224670113E+04  0.10602583843E+03 0.  0.
         11    1    3    3    0    0 -0.18710920937E+03  0.78742765377E+02  0.85541965349E+03  0.87917749227E+03  0.00000000000E+00 0.  1.
        -11    1    3    3    0    0 -0.19541148358E+03 -0.27078242032E+02  0.81988922046E+03  0.84328951904E+03  0.00000000000E+00 0. -1.
         22    1    1    2    0    0  0.38252069295E+03 -0.51664523345E+02 -0.21933703658E+04  0.22270754062E+04  0.00000000000E+00 0. -1.
<mgrwt>
<rscale>  0 0.39154179E+04</rscale>
<asrwt>0</asrwt>
<pdfrwt beam="1">  1        2 0.26396007E+00 0.39154179E+04</pdfrwt>
<pdfrwt beam="2">  1       -2 0.34366184E+00 0.39154179E+04</pdfrwt>
<totfact> 0.13016188E-01</totfact>
</mgrwt>
</event>
<event>
 6    1  0.5026615E-004  0.5488301E+04  0.7818608E-02  0.7757301E-01
         -2   -1    0    0    0  501 -0.00000000000E+00  0.00000000000E+00  0.22248949286E+04  0.22248949286E+04  0.00000000000E+00 0. -1.
          2   -1    0    0  501    0  0.00000000000E+00 -0.00000000000E+00 -0.33845918821E+04  0.33845918821E+04  0.00000000000E+00 0.  1.
         23    2    1    2    0    0 -0.23096001686E+04  0.14707811537E+04 -0.40667692258E+03  0.27696823619E+04  0.91126975997E+02 0.  0.
         13    1    3    3    0    0 -0.22406839343E+04  0.14400327983E+04 -0.40545946735E+03  0.26942079232E+04  0.00000000000E+00 0. -1.
        -13    1    3    3    0    0 -0.68916234219E+02  0.30748355395E+02 -0.12174552334E+01  0.75474438691E+02  0.00000000000E+00 0.  1.
         22    1    1    2    0    0  0.23096001686E+04 -0.14707811537E+04 -0.75302003085E+03  0.28398044488E+04  0.00000000000E+00 0. -1.
<mgrwt>
<rscale>  0 0.54883008E+04</rscale>
<asrwt>0</asrwt>
<pdfrwt beam="1">  1        2 0.52070644E+00 0.54883008E+04</pdfrwt>
<pdfrwt beam="2">  1       -2 0.34229153E+00 0.54883008E+04</pdfrwt>
<totfact> 0.11883938E-02</totfact>
</mgrwt>
</event>
<event>
 6    1  0.5026615E-004  0.1376410E+04  0.7818608E-02  0.8971073E-01
         -2   -1    0    0    0  501 -0.00000000000E+00  0.00000000000E+00  0.21463910358E+03  0.21463910358E+03  0.00000000000E+00 0. -1.
          2   -1    0    0  501    0  0.00000000000E+00 -0.00000000000E+00 -0.22066172335E+04  0.22066172335E+04  0.00000000000E+00 0.  1.
         23    2    1    2    0    0  0.58033672928E+03 -0.12498215984E+03 -0.16023010974E+04  0.17111440577E+04  0.90740949642E+02 0.  0.
         13    1    3    3    0    0  0.55731388462E+02 -0.39128164934E+02 -0.21278124468E+03  0.22341185966E+03  0.00000000000E+00 0. -1.
        -13    1    3    3    0    0  0.52460534081E+03 -0.85853994908E+02 -0.13895198527E+04  0.14877321981E+04  0.00000000000E+00 0.  1.
         22    1    1    2    0    0 -0.58033672928E+03  0.12498215984E+03 -0.38967703252E+03  0.71011227936E+03  0.00000000000E+00 0. -1.
<mgrwt>
<rscale>  0 0.13764103E+04</rscale>
<asrwt>0</asrwt>
<pdfrwt beam="1">  1        2 0.33947957E+00 0.13764103E+04</pdfrwt>
<pdfrwt beam="2">  1       -2 0.33021401E-01 0.13764103E+04</pdfrwt>
<totfact> 0.42798024E+01</totfact>
</mgrwt>
</event>
<event>
 6    1  0.5026615E-004  0.3655491E+04  0.7818608E-02  0.8077898E-01
         -2   -1    0    0    0  501 -0.00000000000E+00  0.00000000000E+00  0.15187433302E+04  0.15187433302E+04  0.00000000000E+00 0. -1.
          2   -1    0    0  501    0  0.00000000000E+00 -0.00000000000E+00 -0.21996175187E+04  0.21996175187E+04  0.00000000000E+00 0.  1.
         23    2    1    2    0    0 -0.14391240037E+04  0.91744096562E+03  0.32141489246E+03  0.17391288702E+04  0.92118785037E+02 0.  0.
         11    1    3    3    0    0 -0.38805026064E+03  0.27066077580E+03  0.12613498685E+03  0.48964302839E+03  0.00000000000E+00 0. -1.
        -11    1    3    3    0    0 -0.10510737431E+04  0.64678018982E+03  0.19527990561E+03  0.12494858418E+04  0.00000000000E+00 0.  1.
         22    1    1    2    0    0  0.14391240037E+04 -0.91744096562E+03 -0.10022890810E+04  0.19792319786E+04  0.00000000000E+00 0.  1.
<mgrwt>
<rscale>  0 0.36554915E+04</rscale>
<asrwt>0</asrwt>
<pdfrwt beam="1">  1        2 0.33840269E+00 0.36554915E+04</pdfrwt>
<pdfrwt beam="2">  1       -2 0.23365282E+00 0.36554915E+04</pdfrwt>
<totfact> 0.34005041E-01</totfact>
</mgrwt>
</event>
<event>
 6    1  0.5026615E-004  0.2452076E+04  0.7818608E-02  0.8420260E-01
         -1   -1    0    0    0  501 -0.00000000000E+00  0.00000000000E+00  0.64190892986E+03  0.64190892986E+03  0.00000000000E+00 0. -1.
          1   -1    0    0  501    0  0.00000000000E+00 -0.00000000000E+00 -0.23417180034E+04  0.23417180034E+04  0.00000000000E+00 0.  1.
         23    2    1    2    0    0  0.11246945828E+04 -0.30354715427E+03 -0.13088938940E+04  0.17548497130E+04  0.95997447463E+02 0.  0.
         13    1    3    3    0    0  0.56663797706E+03 -0.12675666842E+03 -0.59053120172E+03  0.82817446848E+03  0.00000000000E+00 0.  1.
        -13    1    3    3    0    0  0.55805660577E+03 -0.17679048585E+03 -0.71836269229E+03  0.92667524452E+03  0.00000000000E+00 0. -1.
         22    1    1    2    0    0 -0.11246945828E+04  0.30354715427E+03 -0.39091517956E+03  0.12287772203E+04  0.00000000000E+00 0.  1.
<mgrwt>
<rscale>  0 0.24520764E+04</rscale>
<asrwt>0</asrwt>
<pdfrwt beam="1">  1        1 0.36026431E+00 0.24520764E+04</pdfrwt>
<pdfrwt beam="2">  1       -1 0.98755219E-01 0.24520764E+04</pdfrwt>
<totfact> 0.15241152E+00</totfact>
</mgrwt>
</event>
<event>
 6    1  0.5304360E-004  0.3563922E+04  0.7818608E-02  0.8098806E-01
          2   -1    0    0  501    0  0.00000000000E+00  0.00000000000E+00  0.22291598161E+04  0.22291598161E+04  0.00000000000E+00 0.  1.
         -2   -1    0    0    0  501 -0.00000000000E+00 -0.00000000000E+00 -0.14244759522E+04  0.14244759522E+04  0.00000000000E+00 0. -1.
         23    2    1    2    0    0  0.52440228523E+03 -0.14951385597E+04 -0.43084098707E+03  0.16444173314E+04  0.89706935503E+02 0.  0.
         13    1    3    3    0    0  0.36745065190E+03 -0.10213905375E+04 -0.25266142544E+03  0.11144937898E+04  0.00000000000E+00 0.  1.
        -13    1    3    3    0    0  0.15695163334E+03 -0.47374802223E+03 -0.17817956163E+03  0.52992354161E+03  0.00000000000E+00 0. -1.
         22    1    1    2    0    0 -0.52440228523E+03  0.14951385597E+04  0.12355248510E+04  0.20092184368E+04  0.00000000000E+00 0. -1.
<mgrwt>
<rscale>  0 0.35639217E+04</rscale>
<asrwt>0</asrwt>
<pdfrwt beam="1">  1        2 0.34294766E+00 0.35639217E+04</pdfrwt>
<pdfrwt beam="2">  1       -2 0.21915015E+00 0.35639217E+04</pdfrwt>
<totfact> 0.40673147E-01</totfact>
</mgrwt>
</event>
<event>
 6    1  0.5026615E-004  0.2896639E+04  0.7818608E-02  0.8273878E-01
         -2   -1    0    0    0  501 -0.00000000000E+00  0.00000000000E+00  0.47115550331E+03  0.47115550331E+03  0.00000000000E+00 0. -1.
          2   -1    0    0  501    0  0.00000000000E+00 -0.00000000000E+00 -0.44520954642E+04  0.44520954642E+04  0.00000000000E+00 0.  1.
         23    2    1    2    0    0 -0.34739766150E+03  0.22267507824E+02 -0.43794230854E+04  0.43941292636E+04  0.88568881718E+02 0.  0.
         11    1    3    3    0    0 -0.18243019412E+03  0.52791659760E+02 -0.21227391041E+04  0.21312177362E+04  0.00000000000E+00 0. -1.
        -11    1    3    3    0    0 -0.16496746738E+03 -0.30524151936E+02 -0.22566839813E+04  0.22629115274E+04  0.00000000000E+00 0.  1.
         22    1    1    2    0    0  0.34739766150E+03 -0.22267507824E+02  0.39848312448E+03  0.52912170397E+03  0.00000000000E+00 0. -1.
<mgrwt>
<rscale>  0 0.28966389E+04</rscale>
<asrwt>0</asrwt>
<pdfrwt beam="1">  1        2 0.68493780E+00 0.28966389E+04</pdfrwt>
<pdfrwt beam="2">  1       -2 0.72485458E-01 0.28966389E+04</pdfrwt>
<totfact> 0.20366431E-01</totfact>
</mgrwt>
</event>
<event>
 6    1  0.5026615E-004  0.2741685E+04  0.7818608E-02  0.8321605E-01
          2   -1    0    0  501    0  0.00000000000E+00  0.00000000000E+00  0.12681538002E+04  0.12681538002E+04  0.00000000000E+00 0.  1.
         -2   -1    0    0    0  501 -0.00000000000E+00 -0.00000000000E+00 -0.14818465875E+04  0.14818465875E+04  0.00000000000E+00 0. -1.
         23    2    1    2    0    0  0.42024204632E+03 -0.12192979565E+04 -0.56775634993E+03  0.14125954786E+04  0.98933457233E+02 0.  0.
         11    1    3    3    0    0  0.26400366297E+03 -0.89009339763E+03 -0.38734568516E+03  0.10059825398E+04  0.00000000000E+00 0. -1.
        -11    1    3    3    0    0  0.15623838335E+03 -0.32920455891E+03 -0.18041066478E+03  0.40661293880E+03  0.00000000000E+00 0.  1.
         22    1    1    2    0    0 -0.42024204632E+03  0.12192979565E+04  0.35406356266E+03  0.13374049090E+04  0.00000000000E+00 0.  1.
<mgrwt>
<rscale>  0 0.27416852E+04</rscale>
<asrwt>0</asrwt>
<pdfrwt beam="1">  1        2 0.19510059E+00 0.27416852E+04</pdfrwt>
<pdfrwt beam="2">  1       -2 0.22797640E+00 0.27416852E+04</pdfrwt>
<totfact> 0.13282669E+00</totfact>
</mgrwt>
</event>
<event>
 6    1  0.5026615E-004  0.2803026E+04  0.7818608E-02  0.8302330E-01
         -2   -1    0    0    0  501 -0.00000000000E+00  0.00000000000E+00  0.12221830780E+04  0.12221830780E+04  0.00000000000E+00 0. -1.
          2   -1    0    0  501    0  0.00000000000E+00 -0.00000000000E+00 -0.16071555530E+04  0.16071555530E+04  0.00000000000E+00 0.  1.
         23    2    1    2    0    0  0.70811444625E+03  0.94438912430E+03  0.56722527393E+03  0.13127709800E+04  0.91248273594E+02 0.  0.
         11    1    3    3    0    0  0.13231409370E+03  0.15687549846E+03  0.63428983216E+02  0.21480264738E+03  0.00000000000E+00 0. -1.
        -11    1    3    3    0    0  0.57580035254E+03  0.78751362583E+03  0.50379629071E+03  0.10979683326E+04  0.00000000000E+00 0.  1.
         22    1    1    2    0    0 -0.70811444625E+03 -0.94438912430E+03 -0.95219774894E+03  0.15165676510E+04  0.00000000000E+00 0.  1.
<mgrwt>
<rscale>  0 0.28030257E+04</rscale>
<asrwt>0</asrwt>
<pdfrwt beam="1">  1        2 0.24725470E+00 0.28030257E+04</pdfrwt>
<pdfrwt beam="2">  1       -2 0.18802817E+00 0.28030257E+04</pdfrwt>
<totfact> 0.15364058E+00</totfact>
</mgrwt>
</event>
<event>
 6    1  0.5026615E-004  0.3572796E+04  0.7818608E-02  0.8096752E-01
          2   -1    0    0  501    0  0.00000000000E+00  0.00000000000E+00  0.44609754076E+04  0.44609754076E+04  0.00000000000E+00 0.  1.
         -2   -1    0    0    0  501 -0.00000000000E+00 -0.00000000000E+00 -0.71536321443E+03  0.71536321443E+03  0.00000000000E+00 0. -1.
         23    2    1    2    0    0  0.62106849477E+03  0.16735978134E+04  0.19054647983E+04  0.26125917252E+04  0.90463854976E+02 0.  0.
         13    1    3    3    0    0  0.34327281074E+03  0.79641389522E+03  0.91506147504E+03  0.12607334445E+04  0.00000000000E+00 0.  1.
        -13    1    3    3    0    0  0.27779568403E+03  0.87718391814E+03  0.99040332321E+03  0.13518582806E+04  0.00000000000E+00 0. -1.
         22    1    1    2    0    0 -0.62106849477E+03 -0.16735978134E+04  0.18401473950E+04  0.25637468969E+04  0.00000000000E+00 0.  1.
<mgrwt>
<rscale>  0 0.35727959E+04</rscale>
<asrwt>0</asrwt>
<pdfrwt beam="1">  1        2 0.68630389E+00 0.35727959E+04</pdfrwt>
<pdfrwt beam="2">  1       -2 0.11005588E+00 0.35727959E+04</pdfrwt>
<totfact> 0.71628601E-02</totfact>
</mgrwt>
</event>
<event>
 6    1  0.5026615E-004  0.6868687E+03  0.7818608E-02  0.9739956E-01
          2   -1    0    0  501    0  0.00000000000E+00  0.00000000000E+00  0.18404825844E+04  0.18404825844E+04  0.00000000000E+00 0. -1.
         -2   -1    0    0    0  501 -0.00000000000E+00 -0.00000000000E+00 -0.64084904778E+02  0.64084904778E+02  0.00000000000E+00 0.  1.
         23    2    1    2    0    0  0.31034459833E+03  0.10630986725E+03  0.68654137252E+03  0.76641006258E+03  0.91813780320E+02 0.  0.
         11    1    3    3    0    0  0.57129009290E+02 -0.56257647468E+01  0.18281744768E+03  0.19161835013E+03  0.00000000000E+00 0.  1.
        -11    1    3    3    0    0  0.25321558904E+03  0.11193563199E+03  0.50372392485E+03  0.57479171245E+03  0.00000000000E+00 0. -1.
         22    1    1    2    0    0 -0.31034459833E+03 -0.10630986725E+03  0.10898563071E+04  0.11381574266E+04  0.00000000000E+00 0. -1.
<mgrwt>
<rscale>  0 0.68686870E+03</rscale>
<asrwt>0</asrwt>
<pdfrwt beam="1">  1        2 0.28315113E+00 0.68686870E+03</pdfrwt>
<pdfrwt beam="2">  1       -2 0.98592175E-02 0.68686870E+03</pdfrwt>
<totfact> 0.58918721E+02</totfact>
</mgrwt>
</event>
<event>
 6    1  0.5026615E-004  0.3592026E+04  0.7818608E-02  0.8092321E-01
         -2   -1    0    0    0  501 -0.00000000000E+00  0.00000000000E+00  0.12476837842E+04  0.12476837842E+04  0.00000000000E+00 0. -1.
          2   -1    0    0  501    0  0.00000000000E+00 -0.00000000000E+00 -0.25853206392E+04  0.25853206392E+04  0.00000000000E+00 0.  1.
         23    2    1    2    0    0  0.29368623491E+02  0.15365914080E+04 -0.16585212479E+04  0.22629908996E+04  0.91975054676E+02 0.  0.
         11    1    3    3    0    0 -0.15957297184E+02  0.48401736669E+03 -0.47229454031E+03  0.67645367867E+03  0.00000000000E+00 0. -1.
        -11    1    3    3    0    0  0.45325920675E+02  0.10525740414E+04 -0.11862267076E+04  0.15865372209E+04  0.00000000000E+00 0.  1.
         22    1    1    2    0    0 -0.29368623491E+02 -0.15365914080E+04  0.32088439294E+03  0.15700135238E+04  0.00000000000E+00 0. -1.
<mgrwt>
<rscale>  0 0.35920260E+04</rscale>
<asrwt>0</asrwt>
<pdfrwt beam="1">  1        2 0.39774163E+00 0.35920260E+04</pdfrwt>
<pdfrwt beam="2">  1       -2 0.19195135E+00 0.35920260E+04</pdfrwt>
<totfact> 0.38071638E-01</totfact>
</mgrwt>
</event>
<event>
 6    1  0.5026615E-004  0.3756374E+04  0.7818608E-02  0.8055582E-01
         -2   -1    0    0    0  501 -0.00000000000E+00  0.00000000000E+00  0.14940425526E+04  0.14940425526E+04  0.00000000000E+00 0. -1.
          2   -1    0    0  501    0  0.00000000000E+00 -0.00000000000E+00 -0.23611017224E+04  0.23611017224E+04  0.00000000000E+00 0.  1.
         23    2    1    2    0    0 -0.11329246144E+04  0.51509999948E+03  0.10084078749E+04  0.16043171322E+04  0.90004595508E+02 0.  0.
         13    1    3    3    0    0 -0.31327177014E+03  0.18321361218E+03  0.27164995215E+03  0.45332121741E+03  0.00000000000E+00 0.  1.
        -13    1    3    3    0    0 -0.81965284425E+03  0.33188638731E+03  0.73675792272E+03  0.11509959148E+04  0.00000000000E+00 0. -1.
         22    1    1    2    0    0  0.11329246144E+04 -0.51509999948E+03 -0.18754670447E+04  0.22508271429E+04  0.00000000000E+00 0.  1.
<mgrwt>
<rscale>  0 0.37563740E+04</rscale>
<asrwt>0</asrwt>
<pdfrwt beam="1">  1        2 0.36324642E+00 0.37563740E+04</pdfrwt>
<pdfrwt beam="2">  1       -2 0.22985270E+00 0.37563740E+04</pdfrwt>
<totfact> 0.28851569E-01</totfact>
</mgrwt>
</event>
<event>
 6    1  0.5026615E-004  0.2293586E+04  0.7818608E-02  0.8480454E-01
         -2   -1    0    0    0  501 -0.00000000000E+00  0.00000000000E+00  0.79373719937E+03  0.79373719937E+03  0.00000000000E+00 0. -1.
          2   -1    0    0  501    0  0.00000000000E+00 -0.00000000000E+00 -0.16568887340E+04  0.16568887340E+04  0.00000000000E+00 0.  1.
         23    2    1    2    0    0  0.72252027126E+03 -0.83684456298E+03 -0.75040321458E+03  0.13392949527E+04  0.90893458735E+02 0.  0.
         11    1    3    3    0    0  0.21478615490E+03 -0.26670314423E+03 -0.18449726052E+03  0.38897673275E+03  0.00000000000E+00 0.  1.
        -11    1    3    3    0    0  0.50773411636E+03 -0.57014141875E+03 -0.56590595406E+03  0.95031821993E+03  0.00000000000E+00 0. -1.
         22    1    1    2    0    0 -0.72252027126E+03  0.83684456298E+03 -0.11274832004E+03  0.11113309807E+04  0.00000000000E+00 0.  1.
<mgrwt>
<rscale>  0 0.22935860E+04</rscale>
<asrwt>0</asrwt>
<pdfrwt beam="1">  1        2 0.25490595E+00 0.22935860E+04</pdfrwt>
<pdfrwt beam="2">  1       -2 0.12211342E+00 0.22935860E+04</pdfrwt>
<totfact> 0.47803050E+00</totfact>
</mgrwt>
</event>
<event>
 6    1  0.5344721E-004  0.4772277E+04  0.7818608E-02  0.7864629E-01
          2   -1    0    0  501    0  0.00000000000E+00  0.00000000000E+00  0.22302831751E+04  0.22302831751E+04  0.00000000000E+00 0.  1.
         -2   -1    0    0    0  501 -0.00000000000E+00 -0.00000000000E+00 -0.25528850152E+04  0.25528850152E+04  0.00000000000E+00 0. -1.
         23    2    1    2    0    0  0.17512948412E+04 -0.15992027405E+04 -0.41786858795E+03  0.24096562819E+04  0.85710058707E+02 0.  0.
         13    1    3    3    0    0  0.92674777168E+03 -0.90337986380E+03 -0.23450954877E+03  0.13152761456E+04  0.00000000000E+00 0.  1.
        -13    1    3    3    0    0  0.82454706954E+03 -0.69582287670E+03 -0.18335903918E+03  0.10943801364E+04  0.00000000000E+00 0. -1.
         22    1    1    2    0    0 -0.17512948412E+04  0.15992027405E+04  0.95266747859E+02  0.23735119084E+04  0.00000000000E+00 0.  1.
<mgrwt>
<rscale>  0 0.47722768E+04</rscale>
<asrwt>0</asrwt>
<pdfrwt beam="1">  1        2 0.34312049E+00 0.47722768E+04</pdfrwt>
<pdfrwt beam="2">  1       -2 0.39275154E+00 0.47722768E+04</pdfrwt>
<totfact> 0.30472586E-02</totfact>
</mgrwt>
</event>
<event>
 6    1  0.5026615E-004  0.1588816E+04  0.7818608E-02  0.8827448E-01
          2   -1    0    0  501    0  0.00000000000E+00  0.00000000000E+00  0.36233874828E+03  0.36233874828E+03  0.00000000000E+00 0.  1.
         -2   -1    0    0    0  501 -0.00000000000E+00 -0.00000000000E+00 -0.17416971477E+04  0.17416971477E+04  0.00000000000E+00 0. -1.
         23    2    1    2    0    0 -0.50167154632E+03 -0.25965852142E+03 -0.14266972742E+04  0.15371691945E+04  0.91253122096E+02 0.  0.
         11    1    3    3    0    0 -0.33880800170E+03 -0.16855269470E+03 -0.83513768902E+03  0.91687285516E+03  0.00000000000E+00 0. -1.
        -11    1    3    3    0    0 -0.16286354462E+03 -0.91105826722E+02 -0.59155958516E+03  0.62029633936E+03  0.00000000000E+00 0.  1.
         22    1    1    2    0    0  0.50167154632E+03  0.25965852142E+03  0.47338874786E+02  0.56686670144E+03  0.00000000000E+00 0.  1.
<mgrwt>
<rscale>  0 0.15888164E+04</rscale>
<asrwt>0</asrwt>
<pdfrwt beam="1">  1        2 0.55744422E-01 0.15888164E+04</pdfrwt>
<pdfrwt beam="2">  1       -2 0.26795341E+00 0.15888164E+04</pdfrwt>
<totfact> 0.42603615E+00</totfact>
</mgrwt>
</event>
<event>
 6    1  0.5026615E-004  0.3269123E+04  0.7818608E-02  0.8170797E-01
         -2   -1    0    0    0  501 -0.00000000000E+00  0.00000000000E+00  0.84479937022E+03  0.84479937022E+03  0.00000000000E+00 0. -1.
          2   -1    0    0  501    0  0.00000000000E+00 -0.00000000000E+00 -0.31626347102E+04  0.31626347102E+04  0.00000000000E+00 0.  1.
         23    2    1    2    0    0 -0.91816317661E+03 -0.86955741584E+03 -0.24268457610E+04  0.27381677608E+04  0.93960737066E+02 0.  0.
         11    1    3    3    0    0 -0.56299897028E+03 -0.52491106642E+03 -0.13775336263E+04  0.15780045500E+04  0.00000000000E+00 0. -1.
        -11    1    3    3    0    0 -0.35516420633E+03 -0.34464634942E+03 -0.10493121348E+04  0.11601632108E+04  0.00000000000E+00 0.  1.
         22    1    1    2    0    0  0.91816317661E+03  0.86955741584E+03  0.10901042102E+03  0.12692663197E+04  0.00000000000E+00 0. -1.
<mgrwt>
<rscale>  0 0.32691233E+04</rscale>
<asrwt>0</asrwt>
<pdfrwt beam="1">  1        2 0.48655918E+00 0.32691233E+04</pdfrwt>
<pdfrwt beam="2">  1       -2 0.12996914E+00 0.32691233E+04</pdfrwt>
<totfact> 0.49853689E-01</totfact>
</mgrwt>
</event>
<event>
 6    1  0.5026615E-004  0.3330239E+04  0.7818608E-02  0.8155243E-01
         -2   -1    0    0    0  501 -0.00000000000E+00  0.00000000000E+00  0.13044116134E+04  0.13044116134E+04  0.00000000000E+00 0. -1.
          2   -1    0    0  501    0  0.00000000000E+00 -0.00000000000E+00 -0.21255737436E+04  0.21255737436E+04  0.00000000000E+00 0.  1.
         23    2    1    2    0    0 -0.47090981472E+03 -0.78983562444E+03  0.10173590948E+04  0.13743208265E+04  0.90232139863E+02 0.  0.
         11    1    3    3    0    0 -0.23961652791E+03 -0.34794421857E+03  0.51956087071E+03  0.66964524792E+03  0.00000000000E+00 0. -1.
        -11    1    3    3    0    0 -0.23129328681E+03 -0.44189140587E+03  0.49779822412E+03  0.70467557858E+03  0.00000000000E+00 0.  1.
         22    1    1    2    0    0  0.47090981472E+03  0.78983562444E+03 -0.18385212251E+04  0.20556645306E+04  0.00000000000E+00 0.  1.
<mgrwt>
<rscale>  0 0.33302391E+04</rscale>
<asrwt>0</asrwt>
<pdfrwt beam="1">  1        2 0.32701134E+00 0.33302391E+04</pdfrwt>
<pdfrwt beam="2">  1       -2 0.20067871E+00 0.33302391E+04</pdfrwt>
<totfact> 0.62358873E-01</totfact>
</mgrwt>
</event>
<event>
 6    1  0.5026615E-004  0.3125396E+04  0.7818608E-02  0.8208803E-01
          2   -1    0    0  501    0  0.00000000000E+00  0.00000000000E+00  0.19312895482E+04  0.19312895482E+04  0.00000000000E+00 0.  1.
         -2   -1    0    0    0  501 -0.00000000000E+00 -0.00000000000E+00 -0.12644528840E+04  0.12644528840E+04  0.00000000000E+00 0. -1.
         23    2    1    2    0    0  0.59081037390E+03  0.39844763558E+03 -0.10868146919E+04  0.13028318439E+04  0.91581781628E+02 0.  0.
         11    1    3    3    0    0  0.48345581517E+03  0.31955489859E+03 -0.94259386326E+03  0.11064935831E+04  0.00000000000E+00 0. -1.
        -11    1    3    3    0    0  0.10735455872E+03  0.78892736988E+02 -0.14422082865E+03  0.19633826078E+03  0.00000000000E+00 0.  1.
         22    1    1    2    0    0 -0.59081037390E+03 -0.39844763558E+03  0.17536513562E+04  0.18929105883E+04  0.00000000000E+00 0.  1.
<mgrwt>
<rscale>  0 0.31253957E+04</rscale>
<asrwt>0</asrwt>
<pdfrwt beam="1">  1        2 0.29712147E+00 0.31253957E+04</pdfrwt>
<pdfrwt beam="2">  1       -2 0.19453121E+00 0.31253957E+04</pdfrwt>
<totfact> 0.89359042E-01</totfact>
</mgrwt>
</event>
<event>
 6    1  0.5026615E-004  0.3434565E+04  0.7818608E-02  0.8129475E-01
         -2   -1    0    0    0  501 -0.00000000000E+00  0.00000000000E+00  0.84037017350E+03  0.84037017350E+03  0.00000000000E+00 0. -1.
          2   -1    0    0  501    0  0.00000000000E+00 -0.00000000000E+00 -0.35092373677E+04  0.35092373677E+04  0.00000000000E+00 0.  1.
         23    2    1    2    0    0  0.72922135834E+03  0.20049713317E+03 -0.32862352031E+04  0.33733359866E+04  0.89949868327E+02 0.  0.
         13    1    3    3    0    0  0.56166833593E+03  0.11732522350E+03 -0.25415620680E+04  0.26055276382E+04  0.00000000000E+00 0. -1.
        -13    1    3    3    0    0  0.16755302241E+03  0.83171909677E+02 -0.74467313506E+03  0.76780834845E+03  0.00000000000E+00 0.  1.
         22    1    1    2    0    0 -0.72922135834E+03 -0.20049713317E+03  0.61736800888E+03  0.97627155457E+03  0.00000000000E+00 0. -1.
<mgrwt>
<rscale>  0 0.34345646E+04</rscale>
<asrwt>0</asrwt>
<pdfrwt beam="1">  1        2 0.53988267E+00 0.34345646E+04</pdfrwt>
<pdfrwt beam="2">  1       -2 0.12928772E+00 0.34345646E+04</pdfrwt>
<totfact> 0.29092858E-01</totfact>
</mgrwt>
</event>
<event>
 6    1  0.5026615E-004  0.8706165E+03  0.7818608E-02  0.9463076E-01
         -2   -1    0    0    0  501 -0.00000000000E+00  0.00000000000E+00  0.12467969063E+03  0.12467969063E+03  0.00000000000E+00 0. -1.
          2   -1    0    0  501    0  0.00000000000E+00 -0.00000000000E+00 -0.15198408158E+04  0.15198408158E+04  0.00000000000E+00 0.  1.
         23    2    1    2    0    0  0.16116323595E+03 -0.21159646553E+03 -0.65406298237E+02  0.28842517329E+03  0.90357312309E+02 0.  0.
         11    1    3    3    0    0  0.13094509214E+02  0.83428686155E+01 -0.64472053509E+01  0.16811784115E+02  0.00000000000E+00 0. -1.
        -11    1    3    3    0    0  0.14806872674E+03 -0.21993933414E+03 -0.58959092886E+02  0.27161338917E+03  0.00000000000E+00 0.  1.
         22    1    1    2    0    0 -0.16116323595E+03  0.21159646553E+03 -0.13297548269E+04  0.13560953331E+04  0.00000000000E+00 0.  1.
<mgrwt>
<rscale>  0 0.87061652E+03</rscale>
<asrwt>0</asrwt>
<pdfrwt beam="1">  1        2 0.23382167E+00 0.87061652E+03</pdfrwt>
<pdfrwt beam="2">  1       -2 0.19181490E-01 0.87061652E+03</pdfrwt>
<totfact> 0.28574484E+02</totfact>
</mgrwt>
</event>
<event>
 6    1  0.6904149E-004  0.3510971E+04  0.7818608E-02  0.8111195E-01
         -2   -1    0    0    0  501 -0.00000000000E+00  0.00000000000E+00  0.95433426353E+03  0.95433426353E+03  0.00000000000E+00 0. -1.
          2   -1    0    0  501    0  0.00000000000E+00 -0.00000000000E+00 -0.32291935969E+04  0.32291935969E+04  0.00000000000E+00 0.  1.
         23    2    1    2    0    0  0.81613329160E+03  0.31640609857E+03 -0.29497868109E+04  0.30782163800E+04  0.89372723272E+02 0.  0.
         13    1    3    3    0    0  0.40193393050E+03  0.11190076179E+03 -0.14620332121E+04  0.15203992167E+04  0.00000000000E+00 0. -1.
        -13    1    3    3    0    0  0.41419936110E+03  0.20450533678E+03 -0.14877535988E+04  0.15578171633E+04  0.00000000000E+00 0.  1.
         22    1    1    2    0    0 -0.81613329160E+03 -0.31640609857E+03  0.67492747750E+03  0.11053114804E+04  0.00000000000E+00 0. -1.
<mgrwt>
<rscale>  0 0.35109714E+04</rscale>
<asrwt>0</asrwt>
<pdfrwt beam="1">  1        2 0.49679901E+00 0.35109714E+04</pdfrwt>
<pdfrwt beam="2">  1       -2 0.14682066E+00 0.35109714E+04</pdfrwt>
<totfact> 0.32267760E-01</totfact>
</mgrwt>
</event>
<event>
 6    1  0.5026615E-004  0.1557162E+04  0.7818608E-02  0.8847306E-01
          2   -1    0    0  501    0  0.00000000000E+00  0.00000000000E+00  0.11707865351E+04  0.11707865351E+04  0.00000000000E+00 0.  1.
         -2   -1    0    0    0  501 -0.00000000000E+00 -0.00000000000E+00 -0.51776197718E+03  0.51776197718E+03  0.00000000000E+00 0. -1.
         23    2    1    2    0    0 -0.64575520739E+03  0.39276840857E+03  0.51634451892E+03  0.92046762873E+03  0.96861667709E+02 0.  0.
         13    1    3    3    0    0 -0.19814925173E+03  0.85237887781E+02  0.18593744679E+03  0.28478300088E+03  0.00000000000E+00 0. -1.
        -13    1    3    3    0    0 -0.44760595566E+03  0.30753052079E+03  0.33040707214E+03  0.63568462785E+03  0.00000000000E+00 0.  1.
         22    1    1    2    0    0  0.64575520739E+03 -0.39276840857E+03  0.13668003902E+03  0.76808088357E+03  0.00000000000E+00 0.  1.
<mgrwt>
<rscale>  0 0.15571625E+04</rscale>
<asrwt>0</asrwt>
<pdfrwt beam="1">  1        2 0.18012101E+00 0.15571625E+04</pdfrwt>
<pdfrwt beam="2">  1       -2 0.79655689E-01 0.15571625E+04</pdfrwt>
<totfact> 0.26487400E+01</totfact>
</mgrwt>
</event>
<event>
 6    1  0.5026615E-004  0.3940491E+04  0.7818608E-02  0.8016660E-01
         -2   -1    0    0    0  501 -0.00000000000E+00  0.00000000000E+00  0.14691989843E+04  0.14691989843E+04  0.00000000000E+00 0. -1.
          2   -1    0    0  501    0  0.00000000000E+00 -0.00000000000E+00 -0.26421659010E+04  0.26421659010E+04  0.00000000000E+00 0.  1.
         23    2    1    2    0    0 -0.13883041816E+04 -0.13572500927E+04 -0.24717016704E+03  0.19604079038E+04  0.11220402324E+03 0.  0.
         13    1    3    3    0    0 -0.94194355884E+03 -0.95020770175E+03 -0.21806781436E+03  0.13556201224E+04  0.00000000000E+00 0.  1.
        -13    1    3    3    0    0 -0.44636062277E+03 -0.40704239096E+03 -0.29102352687E+02  0.60478778140E+03  0.00000000000E+00 0. -1.
         22    1    1    2    0    0  0.13883041816E+04  0.13572500927E+04 -0.92579674967E+03  0.21509569816E+04  0.00000000000E+00 0. -1.
<mgrwt>
<rscale>  0 0.39404911E+04</rscale>
<asrwt>0</asrwt>
<pdfrwt beam="1">  1        2 0.40648706E+00 0.39404911E+04</pdfrwt>
<pdfrwt beam="2">  1       -2 0.22603061E+00 0.39404911E+04</pdfrwt>
<totfact> 0.20624400E-01</totfact>
</mgrwt>
</event>
<event>
 6    1  0.5026615E-004  0.1643098E+04  0.7818608E-02  0.8794500E-01
         -2   -1    0    0    0  501 -0.00000000000E+00  0.00000000000E+00  0.64147735662E+03  0.64147735662E+03  0.00000000000E+00 0. -1.
          2   -1    0    0  501    0  0.00000000000E+00 -0.00000000000E+00 -0.10521695655E+04  0.10521695655E+04  0.00000000000E+00 0.  1.
         23    2    1    2    0    0 -0.14642461626E+03 -0.18338306197E+03 -0.10147819053E+04  0.10455775763E+04  0.91545819361E+02 0.  0.
         13    1    3    3    0    0 -0.12966539853E+03 -0.94941268387E+02 -0.60082325061E+03  0.62194496419E+03  0.00000000000E+00 0.  1.
        -13    1    3    3    0    0 -0.16759217734E+02 -0.88441793579E+02 -0.41395865468E+03  0.42363261208E+03  0.00000000000E+00 0. -1.
         22    1    1    2    0    0  0.14642461626E+03  0.18338306197E+03  0.60408969643E+03  0.64806934582E+03  0.00000000000E+00 0. -1.
<mgrwt>
<rscale>  0 0.16430982E+04</rscale>
<asrwt>0</asrwt>
<pdfrwt beam="1">  1        2 0.16187224E+00 0.16430982E+04</pdfrwt>
<pdfrwt beam="2">  1       -2 0.98688825E-01 0.16430982E+04</pdfrwt>
<totfact> 0.19009976E+01</totfact>
</mgrwt>
</event>
<event>
 6    1  0.5026615E-004  0.3583734E+04  0.7818608E-02  0.8094228E-01
          2   -1    0    0  501    0  0.00000000000E+00  0.00000000000E+00  0.25736281196E+04  0.25736281196E+04  0.00000000000E+00 0.  1.
         -2   -1    0    0    0  501 -0.00000000000E+00 -0.00000000000E+00 -0.12475725157E+04  0.12475725157E+04  0.00000000000E+00 0. -1.
         23    2    1    2    0    0  0.68586839213E+03  0.74689894125E+03  0.22372642461E+04  0.24579051174E+04  0.87594400895E+02 0.  0.
         13    1    3    3    0    0  0.17723418753E+03  0.13935181497E+03  0.49879648380E+03  0.54738361120E+03  0.00000000000E+00 0. -1.
        -13    1    3    3    0    0  0.50863420461E+03  0.60754712629E+03  0.17384677623E+04  0.19105215061E+04  0.00000000000E+00 0.  1.
         22    1    1    2    0    0 -0.68586839213E+03 -0.74689894125E+03 -0.91120864225E+03  0.13632955180E+04  0.00000000000E+00 0. -1.
<mgrwt>
<rscale>  0 0.35837342E+04</rscale>
<asrwt>0</asrwt>
<pdfrwt beam="1">  1        2 0.39594279E+00 0.35837342E+04</pdfrwt>
<pdfrwt beam="2">  1       -2 0.19193423E+00 0.35837342E+04</pdfrwt>
<totfact> 0.38713837E-01</totfact>
</mgrwt>
</event>
<event>
 6    1  0.5026615E-004  0.2399573E+04  0.7818608E-02  0.8439663E-01
         -2   -1    0    0    0  501 -0.00000000000E+00  0.00000000000E+00  0.11720271763E+04  0.11720271763E+04  0.00000000000E+00 0. -1.
          2   -1    0    0  501    0  0.00000000000E+00 -0.00000000000E+00 -0.12282031803E+04  0.12282031803E+04  0.00000000000E+00 0.  1.
         23    2    1    2    0    0  0.28713927338E+03 -0.93059942648E+03 -0.72650021005E+03  0.12179449442E+04  0.84398324153E+02 0.  0.
         11    1    3    3    0    0  0.56310459880E+02 -0.12252975234E+03 -0.13058769158E+03  0.18771668357E+03  0.00000000000E+00 0.  1.
        -11    1    3    3    0    0  0.23082881350E+03 -0.80806967414E+03 -0.59591251847E+03  0.10302282607E+04  0.00000000000E+00 0. -1.
         22    1    1    2    0    0 -0.28713927338E+03  0.93059942648E+03  0.67032420605E+03  0.11822854123E+04  0.00000000000E+00 0. -1.
<mgrwt>
<rscale>  0 0.23995729E+04</rscale>
<asrwt>0</asrwt>
<pdfrwt beam="1">  1        2 0.18895434E+00 0.23995729E+04</pdfrwt>
<pdfrwt beam="2">  1       -2 0.18031187E+00 0.23995729E+04</pdfrwt>
<totfact> 0.29565602E+00</totfact>
</mgrwt>
</event>
<event>
 6    1  0.5026615E-004  0.3111046E+04  0.7818608E-02  0.8212713E-01
         -2   -1    0    0    0  501 -0.00000000000E+00  0.00000000000E+00  0.48692295104E+03  0.48692295104E+03  0.00000000000E+00 0. -1.
          2   -1    0    0  501    0  0.00000000000E+00 -0.00000000000E+00 -0.49692688304E+04  0.49692688304E+04  0.00000000000E+00 0.  1.
         23    2    1    2    0    0 -0.18940351387E+03 -0.50973197991E+03 -0.47965428572E+04  0.48281630216E+04  0.92921468759E+02 0.  0.
         13    1    3    3    0    0 -0.42330762564E+02 -0.23483771608E+03 -0.19182367090E+04  0.19330216548E+04  0.00000000000E+00 0.  1.
        -13    1    3    3    0    0 -0.14707275131E+03 -0.27489426383E+03 -0.28783061482E+04  0.28951413668E+04  0.00000000000E+00 0. -1.
         22    1    1    2    0    0  0.18940351387E+03  0.50973197991E+03  0.31419697782E+03  0.62802875991E+03  0.00000000000E+00 0. -1.
<mgrwt>
<rscale>  0 0.31110455E+04</rscale>
<asrwt>0</asrwt>
<pdfrwt beam="1">  1        2 0.76450292E+00 0.31110455E+04</pdfrwt>
<pdfrwt beam="2">  1       -2 0.74911221E-01 0.31110455E+04</pdfrwt>
<totfact> 0.50827868E-02</totfact>
</mgrwt>
</event>
<event>
 6    1  0.5026615E-004  0.8664862E+03  0.7818608E-02  0.9468473E-01
          2   -1    0    0  501    0  0.00000000000E+00  0.00000000000E+00  0.11828184909E+04  0.11828184909E+04  0.00000000000E+00 0.  1.
         -2   -1    0    0    0  501 -0.00000000000E+00 -0.00000000000E+00 -0.15868842294E+03  0.15868842294E+03  0.00000000000E+00 0. -1.
         23    2    1    2    0    0  0.39452333639E+03 -0.13438623591E+03  0.67006240910E+03  0.79463194602E+03  0.93530605653E+02 0.  0.
         11    1    3    3    0    0  0.22604379231E+03 -0.10913508630E+03  0.33347854709E+03  0.41738975128E+03  0.00000000000E+00 0. -1.
        -11    1    3    3    0    0  0.16847954408E+03 -0.25251149610E+02  0.33658386201E+03  0.37724219474E+03  0.00000000000E+00 0.  1.
         22    1    1    2    0    0 -0.39452333639E+03  0.13438623591E+03  0.35406765883E+03  0.54687496778E+03  0.00000000000E+00 0. -1.
<mgrwt>
<rscale>  0 0.86648624E+03</rscale>
<asrwt>0</asrwt>
<pdfrwt beam="1">  1        2 0.18197207E+00 0.86648624E+03</pdfrwt>
<pdfrwt beam="2">  1       -2 0.24413604E-01 0.86648624E+03</pdfrwt>
<totfact> 0.29113435E+02</totfact>
</mgrwt>
</event>
<event>
 6    1  0.5026615E-004  0.3585613E+04  0.7818608E-02  0.8093795E-01
         -2   -1    0    0    0  501 -0.00000000000E+00  0.00000000000E+00  0.96548522385E+03  0.96548522385E+03  0.00000000000E+00 0. -1.
          2   -1    0    0  501    0  0.00000000000E+00 -0.00000000000E+00 -0.33290572897E+04  0.33290572897E+04  0.00000000000E+00 0.  1.
         23    2    1    2    0    0  0.14955323678E+04  0.95504180675E+03 -0.14793448805E+04  0.23119735662E+04  0.89658124934E+02 0.  0.
         11    1    3    3    0    0  0.71918746801E+03  0.41730669511E+03 -0.65704186455E+03  0.10597544544E+04  0.00000000000E+00 0. -1.
        -11    1    3    3    0    0  0.77634489983E+03  0.53773511164E+03 -0.82230301592E+03  0.12522191117E+04  0.00000000000E+00 0.  1.
         22    1    1    2    0    0 -0.14955323678E+04 -0.95504180675E+03 -0.88422718542E+03  0.19825689474E+04  0.00000000000E+00 0. -1.
<mgrwt>
<rscale>  0 0.35856133E+04</rscale>
<asrwt>0</asrwt>
<pdfrwt beam="1">  1        2 0.51216265E+00 0.35856133E+04</pdfrwt>
<pdfrwt beam="2">  1       -2 0.14853619E+00 0.35856133E+04</pdfrwt>
<totfact> 0.26689117E-01</totfact>
</mgrwt>
</event>
<event>
 6    1  0.5026615E-004  0.2303525E+04  0.7818608E-02  0.8476533E-01
          1   -1    0    0  501    0  0.00000000000E+00  0.00000000000E+00  0.21894277962E+04  0.21894277962E+04  0.00000000000E+00 0.  1.
         -1   -1    0    0    0  501 -0.00000000000E+00 -0.00000000000E+00 -0.60589205995E+03  0.60589205995E+03  0.00000000000E+00 0. -1.
         23    2    1    2    0    0  0.10065004588E+04  0.55261668197E+03  0.86892406688E+03  0.14428782830E+04  0.91871294374E+02 0.  0.
         13    1    3    3    0    0  0.83997486253E+03  0.48197978502E+03  0.69563708901E+03  0.11923813327E+04  0.00000000000E+00 0. -1.
        -13    1    3    3    0    0  0.16652559629E+03  0.70636896951E+02  0.17328697787E+03  0.25049695034E+03  0.00000000000E+00 0.  1.
         22    1    1    2    0    0 -0.10065004588E+04 -0.55261668197E+03  0.71461166936E+03  0.13524415732E+04  0.00000000000E+00 0.  1.
<mgrwt>
<rscale>  0 0.23035251E+04</rscale>
<asrwt>0</asrwt>
<pdfrwt beam="1">  1        1 0.33683504E+00 0.23035251E+04</pdfrwt>
<pdfrwt beam="2">  1       -1 0.93214164E-01 0.23035251E+04</pdfrwt>
<totfact> 0.22358347E+00</totfact>
</mgrwt>
</event>
<event>
 6    1  0.5026615E-004  0.2287137E+04  0.7818608E-02  0.8483010E-01
         -2   -1    0    0    0  501 -0.00000000000E+00  0.00000000000E+00  0.71344635241E+03  0.71344635241E+03  0.00000000000E+00 0.  1.
          2   -1    0    0  501    0  0.00000000000E+00 -0.00000000000E+00 -0.18330026589E+04  0.18330026589E+04  0.00000000000E+00 0. -1.
         23    2    1    2    0    0  0.53027402363E+03 -0.66732870178E+03  0.28517983757E+03  0.90334165913E+03  0.90445989422E+02 0.  0.
         11    1    3    3    0    0  0.17235413799E+03 -0.15338423480E+03  0.69857876734E+02  0.24106595634E+03  0.00000000000E+00 0. -1.
        -11    1    3    3    0    0  0.35791988565E+03 -0.51394446699E+03  0.21532196084E+03  0.66227570279E+03  0.00000000000E+00 0.  1.
         22    1    1    2    0    0 -0.53027402363E+03  0.66732870178E+03 -0.14047361441E+04  0.16431073522E+04  0.00000000000E+00 0. -1.
<mgrwt>
<rscale>  0 0.22871371E+04</rscale>
<asrwt>0</asrwt>
<pdfrwt beam="1">  1        2 0.28200041E+00 0.22871371E+04</pdfrwt>
<pdfrwt beam="2">  1       -2 0.10976098E+00 0.22871371E+04</pdfrwt>
<totfact> 0.49589112E+00</totfact>
</mgrwt>
</event>
<event>
 6    1  0.5026615E-004  0.3985382E+04  0.7818608E-02  0.8007502E-01
         -2   -1    0    0    0  501 -0.00000000000E+00  0.00000000000E+00  0.12015259589E+04  0.12015259589E+04  0.00000000000E+00 0. -1.
          2   -1    0    0  501    0  0.00000000000E+00 -0.00000000000E+00 -0.33048119426E+04  0.33048119426E+04  0.00000000000E+00 0.  1.
         23    2    1    2    0    0 -0.24591937235E+03 -0.17815439412E+04 -0.84621550400E+02  0.18027511641E+04  0.91519400114E+02 0.  0.
         11    1    3    3    0    0 -0.98225472702E+02 -0.50606088084E+03 -0.54669695763E+02  0.51839621357E+03  0.00000000000E+00 0.  1.
        -11    1    3    3    0    0 -0.14769389965E+03 -0.12754830604E+04 -0.29951854636E+02  0.12843549505E+04  0.00000000000E+00 0. -1.
         22    1    1    2    0    0  0.24591937235E+03  0.17815439412E+04 -0.20186644333E+04  0.27035867374E+04  0.00000000000E+00 0.  1.
<mgrwt>
<rscale>  0 0.39853820E+04</rscale>
<asrwt>0</asrwt>
<pdfrwt beam="1">  1        2 0.50843260E+00 0.39853820E+04</pdfrwt>
<pdfrwt beam="2">  1       -2 0.18485015E+00 0.39853820E+04</pdfrwt>
<totfact> 0.14647202E-01</totfact>
</mgrwt>
</event>
<event>
 6    1  0.5026615E-004  0.1250628E+04  0.7818608E-02  0.9069661E-01
         -2   -1    0    0    0  501 -0.00000000000E+00  0.00000000000E+00  0.71759597528E+03  0.71759597528E+03  0.00000000000E+00 0. -1.
          2   -1    0    0  501    0  0.00000000000E+00 -0.00000000000E+00 -0.54489901141E+03  0.54489901141E+03  0.00000000000E+00 0.  1.
         23    2    1    2    0    0 -0.30040509108E+03  0.21405004352E+03  0.59214730309E+03  0.70392607694E+03  0.93876798906E+02 0.  0.
         11    1    3    3    0    0 -0.12071678643E+03  0.14278791843E+03  0.30604576975E+03  0.35864320063E+03  0.00000000000E+00 0. -1.
        -11    1    3    3    0    0 -0.17968830464E+03  0.71262125089E+02  0.28610153334E+03  0.34528287631E+03  0.00000000000E+00 0.  1.
         22    1    1    2    0    0  0.30040509108E+03 -0.21405004352E+03 -0.41945033921E+03  0.55856890975E+03  0.00000000000E+00 0.  1.
<mgrwt>
<rscale>  0 0.12506276E+04</rscale>
<asrwt>0</asrwt>
<pdfrwt beam="1">  1        2 0.83830617E-01 0.12506276E+04</pdfrwt>
<pdfrwt beam="2">  1       -2 0.11039938E+00 0.12506276E+04</pdfrwt>
<totfact> 0.35652108E+01</totfact>
</mgrwt>
</event>
<event>
 6    1  0.5026615E-004  0.3368147E+04  0.7818608E-02  0.8145769E-01
          2   -1    0    0  501    0  0.00000000000E+00  0.00000000000E+00  0.31514875552E+04  0.31514875552E+04  0.00000000000E+00 0.  1.
         -2   -1    0    0    0  501 -0.00000000000E+00 -0.00000000000E+00 -0.89992537050E+03  0.89992537050E+03  0.00000000000E+00 0. -1.
         23    2    1    2    0    0  0.75094375177E+03  0.13712251926E+04  0.37769047248E+03  0.16110092212E+04  0.92334017069E+02 0.  0.
         13    1    3    3    0    0  0.35317387579E+03  0.55060859891E+03  0.16261872309E+03  0.67405227159E+03  0.00000000000E+00 0. -1.
        -13    1    3    3    0    0  0.39776987598E+03  0.82061659367E+03  0.21507174939E+03  0.93695694961E+03  0.00000000000E+00 0.  1.
         22    1    1    2    0    0 -0.75094375177E+03 -0.13712251926E+04  0.18738717122E+04  0.24404037045E+04  0.00000000000E+00 0. -1.
<mgrwt>
<rscale>  0 0.33681470E+04</rscale>
<asrwt>0</asrwt>
<pdfrwt beam="1">  1        2 0.48484424E+00 0.33681470E+04</pdfrwt>
<pdfrwt beam="2">  1       -2 0.13845006E+00 0.33681470E+04</pdfrwt>
<totfact> 0.42776413E-01</totfact>
</mgrwt>
</event>
<event>
 6    1  0.5026615E-004  0.2896534E+04  0.7818608E-02  0.8273909E-01
         -2   -1    0    0    0  501 -0.00000000000E+00  0.00000000000E+00  0.13321579810E+04  0.13321579810E+04  0.00000000000E+00 0. -1.
          2   -1    0    0  501    0  0.00000000000E+00 -0.00000000000E+00 -0.15744960332E+04  0.15744960332E+04  0.00000000000E+00 0.  1.
         23    2    1    2    0    0  0.96349666429E+03 -0.10248013599E+04 -0.46137129147E+03  0.14830953716E+04  0.90359079622E+02 0.  0.
         13    1    3    3    0    0  0.70564832919E+02 -0.51231952274E+02 -0.44073312520E+02  0.97706527189E+02  0.00000000000E+00 0. -1.
        -13    1    3    3    0    0  0.89293183137E+03 -0.97356940761E+03 -0.41729797895E+03  0.13853888444E+04  0.00000000000E+00 0.  1.
         22    1    1    2    0    0 -0.96349666429E+03  0.10248013599E+04  0.21903323926E+03  0.14235586427E+04  0.00000000000E+00 0. -1.
<mgrwt>
<rscale>  0 0.28965341E+04</rscale>
<asrwt>0</asrwt>
<pdfrwt beam="1">  1        2 0.24223016E+00 0.28965341E+04</pdfrwt>
<pdfrwt beam="2">  1       -2 0.20494738E+00 0.28965341E+04</pdfrwt>
<totfact> 0.12284926E+00</totfact>
</mgrwt>
</event>
<event>
 6    1  0.5026615E-004  0.3269454E+04  0.7818608E-02  0.8170712E-01
         -2   -1    0    0    0  501 -0.00000000000E+00  0.00000000000E+00  0.18247373394E+04  0.18247373394E+04  0.00000000000E+00 0. -1.
          2   -1    0    0  501    0  0.00000000000E+00 -0.00000000000E+00 -0.14645021634E+04  0.14645021634E+04  0.00000000000E+00 0.  1.
         23    2    1    2    0    0  0.68702559138E+03  0.36343141299E+03 -0.12651969471E+04  0.14875413755E+04  0.89271908766E+02 0.  0.
         13    1    3    3    0    0  0.61049329204E+03  0.30712609962E+03 -0.10568849826E+04  0.12585842710E+04  0.00000000000E+00 0.  1.
        -13    1    3    3    0    0  0.76532299347E+02  0.56305313365E+02 -0.20831196455E+03  0.22895710456E+03  0.00000000000E+00 0. -1.
         22    1    1    2    0    0 -0.68702559138E+03 -0.36343141299E+03  0.16254321231E+04  0.18016981273E+04  0.00000000000E+00 0. -1.
<mgrwt>
<rscale>  0 0.32694536E+04</rscale>
<asrwt>0</asrwt>
<pdfrwt beam="1">  1        2 0.22530802E+00 0.32694536E+04</pdfrwt>
<pdfrwt beam="2">  1       -2 0.28072882E+00 0.32694536E+04</pdfrwt>
<totfact> 0.46400268E-01</totfact>
</mgrwt>
</event>
<event>
 6    1  0.5026615E-004  0.1785172E+04  0.7818608E-02  0.8714225E-01
          2   -1    0    0  501    0  0.00000000000E+00  0.00000000000E+00  0.21490265956E+04  0.21490265956E+04  0.00000000000E+00 0.  1.
         -2   -1    0    0    0  501 -0.00000000000E+00 -0.00000000000E+00 -0.37073046825E+03  0.37073046825E+03  0.00000000000E+00 0. -1.
         23    2    1    2    0    0  0.71566660895E+03 -0.46607663477E+03  0.12464023419E+04  0.15136173501E+04  0.90069750277E+02 0.  0.
         11    1    3    3    0    0  0.53650445641E+03 -0.33810569760E+03  0.85455047457E+03  0.10641470801E+04  0.00000000000E+00 0. -1.
        -11    1    3    3    0    0  0.17916215254E+03 -0.12797093717E+03  0.39185186733E+03  0.44947026997E+03  0.00000000000E+00 0.  1.
         22    1    1    2    0    0 -0.71566660895E+03  0.46607663477E+03  0.53189378547E+03  0.10061397138E+04  0.00000000000E+00 0. -1.
<mgrwt>
<rscale>  0 0.17851719E+04</rscale>
<asrwt>0</asrwt>
<pdfrwt beam="1">  1        2 0.33061947E+00 0.17851719E+04</pdfrwt>
<pdfrwt beam="2">  1       -2 0.57035458E-01 0.17851719E+04</pdfrwt>
<totfact> 0.15027011E+01</totfact>
</mgrwt>
</event>
<event>
 6    1  0.5026615E-004  0.3687157E+04  0.7818608E-02  0.8070814E-01
          1   -1    0    0  501    0  0.00000000000E+00  0.00000000000E+00  0.16147911546E+04  0.16147911546E+04  0.00000000000E+00 0.  1.
         -1   -1    0    0    0  501 -0.00000000000E+00 -0.00000000000E+00 -0.21047814260E+04  0.21047814260E+04  0.00000000000E+00 0. -1.
         23    2    1    2    0    0  0.12580436895E+04  0.51651572193E+03  0.10088955141E+04  0.16956849816E+04  0.89526435518E+02 0.  0.
         11    1    3    3    0    0  0.74238728542E+03  0.30407520255E+03  0.64954880096E+03  0.10322374994E+04  0.00000000000E+00 0. -1.
        -11    1    3    3    0    0  0.51565640404E+03  0.21244051938E+03  0.35934671317E+03  0.66344748215E+03  0.00000000000E+00 0.  1.
         22    1    1    2    0    0 -0.12580436895E+04 -0.51651572193E+03 -0.14988857855E+04  0.20238875990E+04  0.00000000000E+00 0. -1.
<mgrwt>
<rscale>  0 0.36871574E+04</rscale>
<asrwt>0</asrwt>
<pdfrwt beam="1">  1        1 0.24842941E+00 0.36871574E+04</pdfrwt>
<pdfrwt beam="2">  1       -1 0.32381253E+00 0.36871574E+04</pdfrwt>
<totfact> 0.10115925E-01</totfact>
</mgrwt>
</event>
<event>
 6    1  0.5026615E-004  0.1670313E+04  0.7818608E-02  0.8778479E-01
          2   -1    0    0  501    0  0.00000000000E+00  0.00000000000E+00  0.15818622912E+04  0.15818622912E+04  0.00000000000E+00 0.  1.
         -2   -1    0    0    0  501 -0.00000000000E+00 -0.00000000000E+00 -0.44092761246E+03  0.44092761246E+03  0.00000000000E+00 0. -1.
         23    2    1    2    0    0  0.29640683566E+03  0.53440680463E+02 -0.36802095486E+03  0.48406964880E+03  0.90394043577E+02 0.  0.
         13    1    3    3    0    0  0.22315916759E+03  0.73044696296E+02 -0.24344858228E+03  0.33823476160E+03  0.00000000000E+00 0.  1.
        -13    1    3    3    0    0  0.73247668068E+02 -0.19604015833E+02 -0.12457237258E+03  0.14583488720E+03  0.00000000000E+00 0. -1.
         22    1    1    2    0    0 -0.29640683566E+03 -0.53440680463E+02  0.15089556336E+04  0.15387202549E+04  0.00000000000E+00 0.  1.
<mgrwt>
<rscale>  0 0.16703135E+04</rscale>
<asrwt>0</asrwt>
<pdfrwt beam="1">  1        2 0.24336343E+00 0.16703135E+04</pdfrwt>
<pdfrwt beam="2">  1       -2 0.67835018E-01 0.16703135E+04</pdfrwt>
<totfact> 0.21672152E+01</totfact>
</mgrwt>
</event>
<event>
 6    1  0.5026615E-004  0.4940394E+04  0.7818608E-02  0.7837768E-01
         -2   -1    0    0    0  501 -0.00000000000E+00  0.00000000000E+00  0.19390505692E+04  0.19390505692E+04  0.00000000000E+00 0. -1.
          2   -1    0    0  501    0  0.00000000000E+00 -0.00000000000E+00 -0.31468351264E+04  0.31468351264E+04  0.00000000000E+00 0.  1.
         23    2    1    2    0    0 -0.11162093405E+04 -0.65586827437E+03 -0.27687808317E+04  0.30578827730E+04  0.91723902147E+02 0.  0.
         13    1    3    3    0    0 -0.81887556531E+03 -0.51361182762E+03 -0.21301515224E+04  0.23392092274E+04  0.00000000000E+00 0.  1.
        -13    1    3    3    0    0 -0.29733377515E+03 -0.14225644675E+03 -0.63862930926E+03  0.71867354559E+03  0.00000000000E+00 0. -1.
         22    1    1    2    0    0  0.11162093405E+04  0.65586827437E+03  0.15609962745E+04  0.20280029226E+04  0.00000000000E+00 0. -1.
<mgrwt>
<rscale>  0 0.49403937E+04</rscale>
<asrwt>0</asrwt>
<pdfrwt beam="1">  1        2 0.48412848E+00 0.49403937E+04</pdfrwt>
<pdfrwt beam="2">  1       -2 0.29831547E+00 0.49403937E+04</pdfrwt>
<totfact> 0.33399914E-02</totfact>
</mgrwt>
</event>
<event>
 6    1  0.5026615E-004  0.1060306E+04  0.7818608E-02  0.9244768E-01
         -2   -1    0    0    0  501 -0.00000000000E+00  0.00000000000E+00  0.51566021253E+03  0.51566021253E+03  0.00000000000E+00 0. -1.
          2   -1    0    0  501    0  0.00000000000E+00 -0.00000000000E+00 -0.54505343723E+03  0.54505343723E+03  0.00000000000E+00 0.  1.
         23    2    1    2    0    0  0.32033945671E+01  0.52514840598E+03 -0.50302532103E+02  0.53513938367E+03  0.89736866359E+02 0.  0.
         13    1    3    3    0    0  0.36957761302E+02  0.23643720997E+03  0.44520088464E+01  0.23934964124E+03  0.00000000000E+00 0. -1.
        -13    1    3    3    0    0 -0.33754366735E+02  0.28871119601E+03 -0.54754540949E+02  0.29578974243E+03  0.00000000000E+00 0.  1.
         22    1    1    2    0    0 -0.32033945671E+01 -0.52514840598E+03  0.20909307400E+02  0.52557426609E+03  0.00000000000E+00 0.  1.
<mgrwt>
<rscale>  0 0.10603063E+04</rscale>
<asrwt>0</asrwt>
<pdfrwt beam="1">  1        2 0.83854375E-01 0.10603063E+04</pdfrwt>
<pdfrwt beam="2">  1       -2 0.79332341E-01 0.10603063E+04</pdfrwt>
<totfact> 0.78053082E+01</totfact>
</mgrwt>
</event>
<event>
 6    1  0.5026615E-004  0.1526364E+04  0.7818608E-02  0.8867108E-01
          2   -1    0    0  501    0  0.00000000000E+00  0.00000000000E+00  0.30022526583E+03  0.30022526583E+03  0.00000000000E+00 0.  1.
         -2   -1    0    0    0  501 -0.00000000000E+00 -0.00000000000E+00 -0.19400332525E+04  0.19400332525E+04  0.00000000000E+00 0. -1.
         23    2    1    2    0    0  0.24647025198E+02 -0.13523261066E+03 -0.19207337363E+04  0.19275052424E+04  0.84634739164E+02 0.  0.
         11    1    3    3    0    0  0.20921090735E+01 -0.52704835839E+02 -0.12798185501E+04  0.12809050307E+04  0.00000000000E+00 0.  1.
        -11    1    3    3    0    0  0.22554916124E+02 -0.82527774819E+02 -0.64091518621E+03  0.64660021170E+03  0.00000000000E+00 0. -1.
         22    1    1    2    0    0 -0.24647025198E+02  0.13523261066E+03  0.28092574957E+03  0.31275327594E+03  0.00000000000E+00 0.  1.
<mgrwt>
<rscale>  0 0.15263643E+04</rscale>
<asrwt>0</asrwt>
<pdfrwt beam="1">  1        2 0.46188504E-01 0.15263643E+04</pdfrwt>
<pdfrwt beam="2">  1       -2 0.29846664E+00 0.15263643E+04</pdfrwt>
<totfact> 0.34471236E+00</totfact>
</mgrwt>
</event>
<event>
 6    1  0.5026615E-004  0.2085440E+04  0.7818608E-02  0.8567684E-01
         -2   -1    0    0    0  501 -0.00000000000E+00  0.00000000000E+00  0.33341326651E+03  0.33341326651E+03  0.00000000000E+00 0. -1.
          2   -1    0    0  501    0  0.00000000000E+00 -0.00000000000E+00 -0.32610134570E+04  0.32610134570E+04  0.00000000000E+00 0.  1.
         23    2    1    2    0    0 -0.27365788618E+03  0.31497503226E+03 -0.31099088544E+04  0.31390868960E+04  0.90749923397E+02 0.  0.
         13    1    3    3    0    0 -0.88482140125E+02  0.14183375038E+03 -0.98163786733E+03  0.99577045770E+03  0.00000000000E+00 0.  1.
        -13    1    3    3    0    0 -0.18517574606E+03  0.17314128188E+03 -0.21282709870E+04  0.21433164383E+04  0.00000000000E+00 0. -1.
         22    1    1    2    0    0  0.27365788618E+03 -0.31497503226E+03  0.18230866385E+03  0.45533982753E+03  0.00000000000E+00 0. -1.
<mgrwt>
<rscale>  0 0.20854401E+04</rscale>
<asrwt>0</asrwt>
<pdfrwt beam="1">  1        2 0.50169439E+00 0.20854401E+04</pdfrwt>
<pdfrwt beam="2">  1       -2 0.51294347E-01 0.20854401E+04</pdfrwt>
<totfact> 0.39300872E+00</totfact>
</mgrwt>
</event>
<event>
 6    1  0.5026615E-004  0.1140209E+04  0.7818608E-02  0.9166864E-01
          2   -1    0    0  501    0  0.00000000000E+00  0.00000000000E+00  0.51171034305E+03  0.51171034305E+03  0.00000000000E+00 0.  1.
         -2   -1    0    0    0  501 -0.00000000000E+00 -0.00000000000E+00 -0.63516236561E+03  0.63516236561E+03  0.00000000000E+00 0. -1.
         23    2    1    2    0    0 -0.20132519293E+03 -0.45503903432E+03 -0.33445288811E+03  0.60639725008E+03  0.90920484357E+02 0.  0.
         11    1    3    3    0    0 -0.90931203043E+02 -0.11889915447E+03 -0.12669198526E+03  0.19610291111E+03  0.00000000000E+00 0. -1.
        -11    1    3    3    0    0 -0.11039398989E+03 -0.33613987986E+03 -0.20776090285E+03  0.41029433896E+03  0.00000000000E+00 0.  1.
         22    1    1    2    0    0  0.20132519293E+03  0.45503903432E+03  0.21100086555E+03  0.54047545858E+03  0.00000000000E+00 0. -1.
<mgrwt>
<rscale>  0 0.11402090E+04</rscale>
<asrwt>0</asrwt>
<pdfrwt beam="1">  1        2 0.78724668E-01 0.11402090E+04</pdfrwt>
<pdfrwt beam="2">  1       -2 0.97717287E-01 0.11402090E+04</pdfrwt>
<totfact> 0.51801504E+01</totfact>
</mgrwt>
</event>
<event>
 6    1  0.5026615E-004  0.3586630E+04  0.7818608E-02  0.8093561E-01
         -2   -1    0    0    0  501 -0.00000000000E+00  0.00000000000E+00  0.15047806169E+04  0.15047806169E+04  0.00000000000E+00 0. -1.
          2   -1    0    0  501    0  0.00000000000E+00 -0.00000000000E+00 -0.21371743635E+04  0.21371743635E+04  0.00000000000E+00 0.  1.
         23    2    1    2    0    0 -0.10060316645E+04  0.13761316669E+04  0.24553114990E+03  0.17245113180E+04  0.88406253411E+02 0.  0.
         11    1    3    3    0    0 -0.46273069698E+03  0.57001171072E+03  0.82276098852E+02  0.73878441018E+03  0.00000000000E+00 0. -1.
        -11    1    3    3    0    0 -0.54330096750E+03  0.80611995618E+03  0.16325505105E+03  0.98572690778E+03  0.00000000000E+00 0.  1.
         22    1    1    2    0    0  0.10060316645E+04 -0.13761316669E+04 -0.87792489649E+03  0.19174436624E+04  0.00000000000E+00 0.  1.
<mgrwt>
<rscale>  0 0.35866299E+04</rscale>
<asrwt>0</asrwt>
<pdfrwt beam="1">  1        2 0.32879605E+00 0.35866299E+04</pdfrwt>
<pdfrwt beam="2">  1       -2 0.23150471E+00 0.35866299E+04</pdfrwt>
<totfact> 0.38236436E-01</totfact>
</mgrwt>
</event>
<event>
 6    1  0.5026615E-004  0.4421168E+04  0.7818608E-02  0.7924585E-01
         -2   -1    0    0    0  501 -0.00000000000E+00  0.00000000000E+00  0.18827261577E+04  0.18827261577E+04  0.00000000000E+00 0. -1.
          2   -1    0    0  501    0  0.00000000000E+00 -0.00000000000E+00 -0.25955345480E+04  0.25955345480E+04  0.00000000000E+00 0.  1.
         23    2    1    2    0    0  0.74533148009E+03  0.18754546797E+04 -0.12679737057E+04  0.23851630497E+04  0.91630696164E+02 0.  0.
         13    1    3    3    0    0  0.25992745130E+03  0.73547666826E+03 -0.45112370702E+03  0.90111087472E+03  0.00000000000E+00 0.  1.
        -13    1    3    3    0    0  0.48540402878E+03  0.11399780114E+04 -0.81684999863E+03  0.14840521749E+04  0.00000000000E+00 0. -1.
         22    1    1    2    0    0 -0.74533148009E+03 -0.18754546797E+04  0.55516531535E+03  0.20930976561E+04  0.00000000000E+00 0. -1.
<mgrwt>
<rscale>  0 0.44211676E+04</rscale>
<asrwt>0</asrwt>
<pdfrwt beam="1">  1        2 0.39931301E+00 0.44211676E+04</pdfrwt>
<pdfrwt beam="2">  1       -2 0.28965018E+00 0.44211676E+04</pdfrwt>
<totfact> 0.85842942E-02</totfact>
</mgrwt>
</event>
<event>
 6    1  0.5026615E-004  0.1329330E+04  0.7818608E-02  0.9006624E-01
         -2   -1    0    0    0  501 -0.00000000000E+00  0.00000000000E+00  0.40442282700E+03  0.40442282700E+03  0.00000000000E+00 0. -1.
          2   -1    0    0  501    0  0.00000000000E+00 -0.00000000000E+00 -0.10923707838E+04  0.10923707838E+04  0.00000000000E+00 0.  1.
         23    2    1    2    0    0 -0.28495902543E+03 -0.58337533980E+03 -0.20357509317E+03  0.68676552223E+03  0.93143065804E+02 0.  0.
         13    1    3    3    0    0 -0.14203694905E+02 -0.72937497369E+02 -0.47725487082E+02  0.88313903711E+02  0.00000000000E+00 0. -1.
        -13    1    3    3    0    0 -0.27075533053E+03 -0.51043784243E+03 -0.15584960608E+03  0.59845161852E+03  0.00000000000E+00 0.  1.
         22    1    1    2    0    0  0.28495902543E+03  0.58337533980E+03 -0.48437286367E+03  0.81002808860E+03  0.00000000000E+00 0. -1.
<mgrwt>
<rscale>  0 0.13293302E+04</rscale>
<asrwt>0</asrwt>
<pdfrwt beam="1">  1        2 0.16805704E+00 0.13293302E+04</pdfrwt>
<pdfrwt beam="2">  1       -2 0.62218897E-01 0.13293302E+04</pdfrwt>
<totfact> 0.51658162E+01</totfact>
</mgrwt>
</event>
<event>
 6    1  0.5026615E-004  0.2306813E+04  0.7818608E-02  0.8475240E-01
         -2   -1    0    0    0  501 -0.00000000000E+00  0.00000000000E+00  0.61649926356E+03  0.61649926356E+03  0.00000000000E+00 0. -1.
          2   -1    0    0  501    0  0.00000000000E+00 -0.00000000000E+00 -0.21579043802E+04  0.21579043802E+04  0.00000000000E+00 0.  1.
         23    2    1    2    0    0 -0.93765453810E+03  0.51833439762E+03 -0.26388689162E+03  0.11070946155E+04  0.90308446009E+02 0.  0.
         11    1    3    3    0    0 -0.87716741708E+03  0.50494572561E+03 -0.23665350809E+03  0.10394218327E+04  0.00000000000E+00 0. -1.
        -11    1    3    3    0    0 -0.60487121022E+02  0.13388672012E+02 -0.27233383523E+02  0.67672782756E+02  0.00000000000E+00 0.  1.
         22    1    1    2    0    0  0.93765453810E+03 -0.51833439762E+03 -0.12775182250E+04  0.16673090283E+04  0.00000000000E+00 0. -1.
<mgrwt>
<rscale>  0 0.23068129E+04</rscale>
<asrwt>0</asrwt>
<pdfrwt beam="1">  1        2 0.33198529E+00 0.23068129E+04</pdfrwt>
<pdfrwt beam="2">  1       -2 0.94846040E-01 0.23068129E+04</pdfrwt>
<totfact> 0.46219788E+00</totfact>
</mgrwt>
</event>
<event>
 6    1  0.5026615E-004  0.2355051E+04  0.7818608E-02  0.8456526E-01
         -2   -1    0    0    0  501 -0.00000000000E+00  0.00000000000E+00  0.88353351203E+03  0.88353351203E+03  0.00000000000E+00 0. -1.
          2   -1    0    0  501    0  0.00000000000E+00 -0.00000000000E+00 -0.15693418710E+04  0.15693418710E+04  0.00000000000E+00 0.  1.
         23    2    1    2    0    0 -0.10002526962E+04 -0.50640942855E+03  0.25718253524E+02  0.11250101467E+04  0.89612700271E+02 0.  0.
         11    1    3    3    0    0 -0.73852532417E+03 -0.32968152899E+03  0.10549203074E+02  0.80883919952E+03  0.00000000000E+00 0.  1.
        -11    1    3    3    0    0 -0.26172737202E+03 -0.17672789955E+03  0.15169050450E+02  0.31617094718E+03  0.00000000000E+00 0. -1.
         22    1    1    2    0    0  0.10002526962E+04  0.50640942855E+03 -0.71152661248E+03  0.13278652363E+04  0.00000000000E+00 0.  1.
<mgrwt>
<rscale>  0 0.23550509E+04</rscale>
<asrwt>0</asrwt>
<pdfrwt beam="1">  1        2 0.24143721E+00 0.23550509E+04</pdfrwt>
<pdfrwt beam="2">  1       -2 0.13592823E+00 0.23550509E+04</pdfrwt>
<totfact> 0.40599898E+00</totfact>
</mgrwt>
</event>
<event>
 6    1  0.5026615E-004  0.8223794E+03  0.7818608E-02  0.9528177E-01
         -2   -1    0    0    0  501 -0.00000000000E+00  0.00000000000E+00  0.12533050661E+03  0.12533050661E+03  0.00000000000E+00 0. -1.
          2   -1    0    0  501    0  0.00000000000E+00 -0.00000000000E+00 -0.13490489379E+04  0.13490489379E+04  0.00000000000E+00 0.  1.
         23    2    1    2    0    0 -0.33555592573E+03  0.19928516471E+03 -0.41789101439E+03  0.57901908020E+03  0.91202188355E+02 0.  0.
         13    1    3    3    0    0 -0.67840844919E+02  0.60101388770E+02 -0.15137812092E+03  0.17643665340E+03  0.00000000000E+00 0.  1.
        -13    1    3    3    0    0 -0.26771508081E+03  0.13918377594E+03 -0.26651289347E+03  0.40258242680E+03  0.00000000000E+00 0. -1.
         22    1    1    2    0    0  0.33555592573E+03 -0.19928516471E+03 -0.80582741687E+03  0.89536036429E+03  0.00000000000E+00 0.  1.
<mgrwt>
<rscale>  0 0.82237944E+03</rscale>
<asrwt>0</asrwt>
<pdfrwt beam="1">  1        2 0.20754599E+00 0.82237944E+03</pdfrwt>
<pdfrwt beam="2">  1       -2 0.19281616E-01 0.82237944E+03</pdfrwt>
<totfact> 0.35454131E+02</totfact>
</mgrwt>
</event>
<event>
 6    1  0.5026615E-004  0.2033830E+04  0.7818608E-02  0.8590965E-01
         -2   -1    0    0    0  501 -0.00000000000E+00  0.00000000000E+00  0.75742993932E+03  0.75742993932E+03  0.00000000000E+00 0. -1.
          2   -1    0    0  501    0  0.00000000000E+00 -0.00000000000E+00 -0.13652961861E+04  0.13652961861E+04  0.00000000000E+00 0.  1.
         23    2    1    2    0    0  0.22893170802E+03  0.36688854644E+03  0.65368187685E+03  0.78911426259E+03  0.91566319414E+02 0.  0.
         13    1    3    3    0    0  0.15455188858E+02  0.50699624900E+02  0.13661651294E+03  0.14653800338E+03  0.00000000000E+00 0. -1.
        -13    1    3    3    0    0  0.21347651916E+03  0.31618892154E+03  0.51706536391E+03  0.64257625921E+03  0.00000000000E+00 0.  1.
         22    1    1    2    0    0 -0.22893170802E+03 -0.36688854644E+03 -0.12615481237E+04  0.13336118629E+04  0.00000000000E+00 0.  1.
<mgrwt>
<rscale>  0 0.20338301E+04</rscale>
<asrwt>0</asrwt>
<pdfrwt beam="1">  1        2 0.21004557E+00 0.20338301E+04</pdfrwt>
<pdfrwt beam="2">  1       -2 0.11652768E+00 0.20338301E+04</pdfrwt>
<totfact> 0.80155527E+00</totfact>
</mgrwt>
</event>
<event>
 6    1  0.5026615E-004  0.4909714E+04  0.7818608E-02  0.7842588E-01
         -2   -1    0    0    0  501 -0.00000000000E+00  0.00000000000E+00  0.23747759217E+04  0.23747759217E+04  0.00000000000E+00 0. -1.
          2   -1    0    0  501    0  0.00000000000E+00 -0.00000000000E+00 -0.25376383075E+04  0.25376383075E+04  0.00000000000E+00 0.  1.
         23    2    1    2    0    0  0.22845558844E+04  0.67475366653E+03 -0.67135286586E+03  0.24766287978E+04  0.92127259845E+02 0.  0.
         11    1    3    3    0    0  0.19156831555E+04  0.56924422564E+03 -0.59792519533E+03  0.20859998754E+04  0.00000000000E+00 0. -1.
        -11    1    3    3    0    0  0.36887272890E+03  0.10550944089E+03 -0.73427670527E+02  0.39062892243E+03  0.00000000000E+00 0.  1.
         22    1    1    2    0    0 -0.22845558844E+04 -0.67475366653E+03  0.50849048008E+03  0.24357854314E+04  0.00000000000E+00 0. -1.
<mgrwt>
<rscale>  0 0.49097138E+04</rscale>
<asrwt>0</asrwt>
<pdfrwt beam="1">  1        2 0.39040589E+00 0.49097138E+04</pdfrwt>
<pdfrwt beam="2">  1       -2 0.36535014E+00 0.49097138E+04</pdfrwt>
<totfact> 0.30179692E-02</totfact>
</mgrwt>
</event>
<event>
 6    1  0.5026615E-004  0.2756785E+04  0.7818608E-02  0.8316812E-01
         -2   -1    0    0    0  501 -0.00000000000E+00  0.00000000000E+00  0.47912897581E+03  0.47912897581E+03  0.00000000000E+00 0. -1.
          2   -1    0    0  501    0  0.00000000000E+00 -0.00000000000E+00 -0.39654578908E+04  0.39654578908E+04  0.00000000000E+00 0.  1.
         23    2    1    2    0    0  0.41780926240E+03 -0.45693689901E+03 -0.37278010291E+04  0.37800082849E+04  0.92769669844E+02 0.  0.
         11    1    3    3    0    0  0.32237380307E+03 -0.36754216701E+03 -0.31405309680E+04  0.31783560019E+04  0.00000000000E+00 0.  1.
        -11    1    3    3    0    0  0.95435459327E+02 -0.89394731992E+02 -0.58727006108E+03  0.60165228300E+03  0.00000000000E+00 0. -1.
         22    1    1    2    0    0 -0.41780926240E+03  0.45693689901E+03  0.24147211411E+03  0.66457858174E+03  0.00000000000E+00 0. -1.
<mgrwt>
<rscale>  0 0.27567849E+04</rscale>
<asrwt>0</asrwt>
<pdfrwt beam="1">  1        2 0.61007045E+00 0.27567849E+04</pdfrwt>
<pdfrwt beam="2">  1       -2 0.73712150E-01 0.27567849E+04</pdfrwt>
<totfact> 0.52901766E-01</totfact>
</mgrwt>
</event>
<event>
 6    1  0.5026615E-004  0.5097434E+04  0.7818608E-02  0.7813650E-01
          2   -1    0    0  501    0  0.00000000000E+00  0.00000000000E+00  0.20467714701E+04  0.20467714701E+04  0.00000000000E+00 0.  1.
         -2   -1    0    0    0  501 -0.00000000000E+00 -0.00000000000E+00 -0.31737589772E+04  0.31737589772E+04  0.00000000000E+00 0. -1.
         23    2    1    2    0    0 -0.16883370556E+04  0.68094903997E+03 -0.23893162491E+04  0.30052093733E+04  0.90981484989E+02 0.  0.
         11    1    3    3    0    0 -0.10718005465E+04  0.42104279343E+03 -0.14402391462E+04  0.18439962700E+04  0.00000000000E+00 0.  1.
        -11    1    3    3    0    0 -0.61653650907E+03  0.25990624654E+03 -0.94907710288E+03  0.11612131033E+04  0.00000000000E+00 0. -1.
         22    1    1    2    0    0  0.16883370556E+04 -0.68094903997E+03  0.12623287420E+04  0.22153210741E+04  0.00000000000E+00 0.  1.
<mgrwt>
<rscale>  0 0.50974344E+04</rscale>
<asrwt>0</asrwt>
<pdfrwt beam="1">  1        2 0.31488792E+00 0.50974344E+04</pdfrwt>
<pdfrwt beam="2">  1       -2 0.48827061E+00 0.50974344E+04</pdfrwt>
<totfact> 0.89404334E-03</totfact>
</mgrwt>
</event>
<event>
 6    1  0.5026615E-004  0.3230645E+04  0.7818608E-02  0.8180770E-01
          2   -1    0    0  501    0  0.00000000000E+00  0.00000000000E+00  0.20178888276E+04  0.20178888276E+04  0.00000000000E+00 0.  1.
         -2   -1    0    0    0  501 -0.00000000000E+00 -0.00000000000E+00 -0.12930679019E+04  0.12930679019E+04  0.00000000000E+00 0. -1.
         23    2    1    2    0    0  0.15182002768E+03 -0.12051980559E+04 -0.72657794642E+03  0.14183103386E+04  0.90205485550E+02 0.  0.
         13    1    3    3    0    0  0.68939662511E+02 -0.68419927591E+03 -0.45902739991E+03  0.82679349301E+03  0.00000000000E+00 0.  1.
        -13    1    3    3    0    0  0.82880365164E+02 -0.52099877999E+03 -0.26755054651E+03  0.59151684559E+03  0.00000000000E+00 0. -1.
         22    1    1    2    0    0 -0.15182002768E+03  0.12051980559E+04  0.14513988721E+04  0.18926463908E+04  0.00000000000E+00 0.  1.
<mgrwt>
<rscale>  0 0.32306453E+04</rscale>
<asrwt>0</asrwt>
<pdfrwt beam="1">  1        2 0.31044443E+00 0.32306453E+04</pdfrwt>
<pdfrwt beam="2">  1       -2 0.19893352E+00 0.32306453E+04</pdfrwt>
<totfact> 0.74138336E-01</totfact>
</mgrwt>
</event>
<event>
 6    1  0.5026615E-004  0.1736522E+04  0.7818608E-02  0.8740804E-01
         -2   -1    0    0    0  501 -0.00000000000E+00  0.00000000000E+00  0.77164781721E+03  0.77164781721E+03  0.00000000000E+00 0. -1.
          2   -1    0    0  501    0  0.00000000000E+00 -0.00000000000E+00 -0.97697051833E+03  0.97697051833E+03  0.00000000000E+00 0.  1.
         23    2    1    2    0    0  0.27970090360E+02 -0.49327507773E+03  0.61316715605E+03  0.79257007601E+03  0.89948517889E+02 0.  0.
         13    1    3    3    0    0 -0.14643105187E+02 -0.38010342039E+03  0.48472167656E+03  0.61615593355E+03  0.00000000000E+00 0. -1.
        -13    1    3    3    0    0  0.42613195547E+02 -0.11317165735E+03  0.12844547949E+03  0.17641414247E+03  0.00000000000E+00 0.  1.
         22    1    1    2    0    0 -0.27970090360E+02  0.49327507773E+03 -0.81848985716E+03  0.95604825953E+03  0.00000000000E+00 0.  1.
<mgrwt>
<rscale>  0 0.17365220E+04</rscale>
<asrwt>0</asrwt>
<pdfrwt beam="1">  1        2 0.15030316E+00 0.17365220E+04</pdfrwt>
<pdfrwt beam="2">  1       -2 0.11871505E+00 0.17365220E+04</pdfrwt>
<totfact> 0.13490536E+01</totfact>
</mgrwt>
</event>
<event>
 6    1  0.5026615E-004  0.2071231E+04  0.7818608E-02  0.8574023E-01
          2   -1    0    0  501    0  0.00000000000E+00  0.00000000000E+00  0.34830489288E+04  0.34830489288E+04  0.00000000000E+00 0.  1.
         -2   -1    0    0    0  501 -0.00000000000E+00 -0.00000000000E+00 -0.30791960913E+03  0.30791960913E+03  0.00000000000E+00 0. -1.
         23    2    1    2    0    0  0.49800909453E+03 -0.25855066081E+03  0.31793991331E+04  0.32298270818E+04  0.91337989759E+02 0.  0.
         13    1    3    3    0    0  0.23738967758E+03 -0.10915982017E+03  0.12327320145E+04  0.12601182266E+04  0.00000000000E+00 0.  1.
        -13    1    3    3    0    0  0.26061941695E+03 -0.14939084064E+03  0.19466671186E+04  0.19697088552E+04  0.00000000000E+00 0. -1.
         22    1    1    2    0    0 -0.49800909453E+03  0.25855066081E+03 -0.42698134604E+01  0.56114145609E+03  0.00000000000E+00 0. -1.
<mgrwt>
<rscale>  0 0.20712306E+04</rscale>
<asrwt>0</asrwt>
<pdfrwt beam="1">  1        2 0.53585365E+00 0.20712306E+04</pdfrwt>
<pdfrwt beam="2">  1       -2 0.47372250E-01 0.20712306E+04</pdfrwt>
<totfact> 0.32745841E+00</totfact>
</mgrwt>
</event>
<event>
 6    1  0.5026615E-004  0.1346036E+04  0.7818608E-02  0.8993834E-01
          2   -1    0    0  501    0  0.00000000000E+00  0.00000000000E+00  0.10885370545E+04  0.10885370545E+04  0.00000000000E+00 0.  1.
         -2   -1    0    0    0  501 -0.00000000000E+00 -0.00000000000E+00 -0.41611214375E+03  0.41611214375E+03  0.00000000000E+00 0. -1.
         23    2    1    2    0    0  0.17350668319E+03 -0.33470334087E+03 -0.28130046957E+03  0.47911373004E+03  0.91044585992E+02 0.  0.
         13    1    3    3    0    0  0.10309777648E+03 -0.15144244812E+03 -0.86686826949E+02  0.20267849559E+03  0.00000000000E+00 0. -1.
        -13    1    3    3    0    0  0.70408906706E+02 -0.18326089275E+03 -0.19461364262E+03  0.27643523445E+03  0.00000000000E+00 0.  1.
         22    1    1    2    0    0 -0.17350668319E+03  0.33470334087E+03  0.95372538034E+03  0.10255354682E+04  0.00000000000E+00 0.  1.
<mgrwt>
<rscale>  0 0.13460364E+04</rscale>
<asrwt>0</asrwt>
<pdfrwt beam="1">  1        2 0.16746724E+00 0.13460364E+04</pdfrwt>
<pdfrwt beam="2">  1       -2 0.64017253E-01 0.13460364E+04</pdfrwt>
<totfact> 0.48814321E+01</totfact>
</mgrwt>
</event>
<event>
 6    1  0.5026615E-004  0.2811875E+04  0.7818608E-02  0.8299591E-01
         -1   -1    0    0    0  501 -0.00000000000E+00  0.00000000000E+00  0.14029691626E+04  0.14029691626E+04  0.00000000000E+00 0. -1.
          1   -1    0    0  501    0  0.00000000000E+00 -0.00000000000E+00 -0.14089122364E+04  0.14089122364E+04  0.00000000000E+00 0.  1.
         23    2    1    2    0    0  0.70940546645E+03  0.94029691551E+03 -0.76782739785E+03  0.14090691777E+04  0.92209704004E+02 0.  0.
         13    1    3    3    0    0  0.24329795249E+03  0.39681669313E+03 -0.29651116546E+03  0.55188427489E+03  0.00000000000E+00 0. -1.
        -13    1    3    3    0    0  0.46610751396E+03  0.54348022238E+03 -0.47131623239E+03  0.85718490281E+03  0.00000000000E+00 0.  1.
         22    1    1    2    0    0 -0.70940546645E+03 -0.94029691551E+03  0.76188432398E+03  0.14028122213E+04  0.00000000000E+00 0. -1.
<mgrwt>
<rscale>  0 0.28118751E+04</rscale>
<asrwt>0</asrwt>
<pdfrwt beam="1">  1        1 0.21675573E+00 0.28118751E+04</pdfrwt>
<pdfrwt beam="2">  1       -1 0.21584141E+00 0.28118751E+04</pdfrwt>
<totfact> 0.76871753E-01</totfact>
</mgrwt>
</event>
<event>
 6    1  0.5026615E-004  0.1493063E+04  0.7818608E-02  0.8889079E-01
          1   -1    0    0  501    0  0.00000000000E+00  0.00000000000E+00  0.66730698457E+03  0.66730698457E+03  0.00000000000E+00 0.  1.
         -1   -1    0    0    0  501 -0.00000000000E+00 -0.00000000000E+00 -0.83516226852E+03  0.83516226852E+03  0.00000000000E+00 0. -1.
         23    2    1    2    0    0 -0.42526659580E+03 -0.60575946872E+03 -0.10371296682E+02  0.74576758288E+03  0.90914863582E+02 0.  0.
         13    1    3    3    0    0 -0.29002450711E+03 -0.33585765028E+03 -0.10624071338E+02  0.44387773864E+03  0.00000000000E+00 0. -1.
        -13    1    3    3    0    0 -0.13524208870E+03 -0.26990181845E+03  0.25277465563E+00  0.30188984423E+03  0.00000000000E+00 0.  1.
         22    1    1    2    0    0  0.42526659580E+03  0.60575946872E+03 -0.15748398727E+03  0.75670167021E+03  0.00000000000E+00 0. -1.
<mgrwt>
<rscale>  0 0.14930634E+04</rscale>
<asrwt>0</asrwt>
<pdfrwt beam="1">  1        1 0.10266261E+00 0.14930634E+04</pdfrwt>
<pdfrwt beam="2">  1       -1 0.12848650E+00 0.14930634E+04</pdfrwt>
<totfact> 0.14810330E+01</totfact>
</mgrwt>
</event>
<event>
 6    1  0.5026615E-004  0.2329154E+04  0.7818608E-02  0.8466514E-01
          2   -1    0    0  501    0  0.00000000000E+00  0.00000000000E+00  0.77949088369E+03  0.77949088369E+03  0.00000000000E+00 0. -1.
         -2   -1    0    0    0  501 -0.00000000000E+00 -0.00000000000E+00 -0.17399039362E+04  0.17399039362E+04  0.00000000000E+00 0.  1.
         23    2    1    2    0    0 -0.89565375859E+03  0.66937048216E+03 -0.13628611323E+03  0.11303528084E+04  0.94186353354E+02 0.  0.
         11    1    3    3    0    0 -0.33979986379E+03  0.21966951419E+03 -0.13106149315E+02  0.40483381040E+03  0.00000000000E+00 0. -1.
        -11    1    3    3    0    0 -0.55585389480E+03  0.44970096797E+03 -0.12317996392E+03  0.72551899801E+03  0.00000000000E+00 0.  1.
         22    1    1    2    0    0  0.89565375859E+03 -0.66937048216E+03 -0.82412693933E+03  0.13890420115E+04  0.00000000000E+00 0.  1.
<mgrwt>
<rscale>  0 0.23291537E+04</rscale>
<asrwt>0</asrwt>
<pdfrwt beam="1">  1        2 0.11992168E+00 0.23291537E+04</pdfrwt>
<pdfrwt beam="2">  1       -2 0.26767753E+00 0.23291537E+04</pdfrwt>
<totfact> 0.16147763E+00</totfact>
</mgrwt>
</event>
<event>
 6    1  0.5026615E-004  0.2586125E+04  0.7818608E-02  0.8372930E-01
         -2   -1    0    0    0  501 -0.00000000000E+00  0.00000000000E+00  0.72446805755E+03  0.72446805755E+03  0.00000000000E+00 0. -1.
          2   -1    0    0  501    0  0.00000000000E+00 -0.00000000000E+00 -0.23079147164E+04  0.23079147164E+04  0.00000000000E+00 0.  1.
         23    2    1    2    0    0  0.94185986035E+03  0.52469739031E+03 -0.16263483889E+04  0.19533795736E+04  0.90968832813E+02 0.  0.
         13    1    3    3    0    0  0.90054783475E+03  0.48444567477E+03 -0.15621093509E+04  0.18670456980E+04  0.00000000000E+00 0. -1.
        -13    1    3    3    0    0  0.41312025600E+02  0.40251715542E+02 -0.64239038039E+02  0.86333875572E+02  0.00000000000E+00 0.  1.
         22    1    1    2    0    0 -0.94185986035E+03 -0.52469739031E+03  0.42901730034E+02  0.10790032004E+04  0.00000000000E+00 0. -1.
<mgrwt>
<rscale>  0 0.25861249E+04</rscale>
<asrwt>0</asrwt>
<pdfrwt beam="1">  1        2 0.35506380E+00 0.25861249E+04</pdfrwt>
<pdfrwt beam="2">  1       -2 0.11145662E+00 0.25861249E+04</pdfrwt>
<totfact> 0.25282360E+00</totfact>
</mgrwt>
</event>
<event>
 6    1  0.5026615E-004  0.1902913E+04  0.7818608E-02  0.8653408E-01
         -2   -1    0    0    0  501 -0.00000000000E+00  0.00000000000E+00  0.31917701463E+03  0.31917701463E+03  0.00000000000E+00 0. -1.
          2   -1    0    0  501    0  0.00000000000E+00 -0.00000000000E+00 -0.28362604189E+04  0.28362604189E+04  0.00000000000E+00 0.  1.
         23    2    1    2    0    0 -0.43010950999E+03 -0.29791433135E+03  0.51797160140E+02  0.53381684816E+03  0.92359851517E+02 0.  0.
         13    1    3    3    0    0 -0.13270561546E+03 -0.86432368010E+02  0.58487758568E+02  0.16882580524E+03  0.00000000000E+00 0.  1.
        -13    1    3    3    0    0 -0.29740389453E+03 -0.21148196334E+03 -0.66905984280E+01  0.36499104291E+03  0.00000000000E+00 0. -1.
         22    1    1    2    0    0  0.43010950999E+03  0.29791433135E+03 -0.25688805645E+04  0.26216205854E+04  0.00000000000E+00 0.  1.
<mgrwt>
<rscale>  0 0.19029126E+04</rscale>
<asrwt>0</asrwt>
<pdfrwt beam="1">  1        2 0.43634777E+00 0.19029126E+04</pdfrwt>
<pdfrwt beam="2">  1       -2 0.49104155E-01 0.19029126E+04</pdfrwt>
<totfact> 0.80985854E+00</totfact>
</mgrwt>
</event>
<event>
 6    1  0.5026615E-004  0.2268113E+04  0.7818608E-02  0.8490601E-01
         -2   -1    0    0    0  501 -0.00000000000E+00  0.00000000000E+00  0.63838826863E+03  0.63838826863E+03  0.00000000000E+00 0. -1.
          2   -1    0    0  501    0  0.00000000000E+00 -0.00000000000E+00 -0.20145791429E+04  0.20145791429E+04  0.00000000000E+00 0.  1.
         23    2    1    2    0    0  0.46644108675E+03 -0.13064963085E+03  0.50727370278E+03  0.70821153316E+03  0.97981389654E+02 0.  0.
         11    1    3    3    0    0  0.41689205129E+03 -0.89752341867E+02  0.40953259824E+03  0.59124564634E+03  0.00000000000E+00 0. -1.
        -11    1    3    3    0    0  0.49549035452E+02 -0.40897288987E+02  0.97741104543E+02  0.11696588681E+03  0.00000000000E+00 0.  1.
         22    1    1    2    0    0 -0.46644108675E+03  0.13064963085E+03 -0.18834645770E+04  0.19447558783E+04  0.00000000000E+00 0.  1.
<mgrwt>
<rscale>  0 0.22681126E+04</rscale>
<asrwt>0</asrwt>
<pdfrwt beam="1">  1        2 0.30993525E+00 0.22681126E+04</pdfrwt>
<pdfrwt beam="2">  1       -2 0.98213579E-01 0.22681126E+04</pdfrwt>
<totfact> 0.51374213E+00</totfact>
</mgrwt>
</event>
<event>
 6    1  0.5026615E-004  0.1242355E+04  0.7818608E-02  0.9076570E-01
         -2   -1    0    0    0  501 -0.00000000000E+00  0.00000000000E+00  0.35062843608E+03  0.35062843608E+03  0.00000000000E+00 0. -1.
          2   -1    0    0  501    0  0.00000000000E+00 -0.00000000000E+00 -0.11004858810E+04  0.11004858810E+04  0.00000000000E+00 0.  1.
         23    2    1    2    0    0  0.31077518452E+03  0.47819317340E+03 -0.99515561128E+02  0.58613195182E+03  0.91637283024E+02 0.  0.
         13    1    3    3    0    0  0.35050812850E+02  0.15037338774E+02 -0.77906594537E+00  0.38148236952E+02  0.00000000000E+00 0.  1.
        -13    1    3    3    0    0  0.27572437167E+03  0.46315583462E+03 -0.98736495182E+02  0.54798371487E+03  0.00000000000E+00 0. -1.
         22    1    1    2    0    0 -0.31077518452E+03 -0.47819317340E+03 -0.65034188379E+03  0.86498236526E+03  0.00000000000E+00 0.  1.
<mgrwt>
<rscale>  0 0.12423553E+04</rscale>
<asrwt>0</asrwt>
<pdfrwt beam="1">  1        2 0.16930552E+00 0.12423553E+04</pdfrwt>
<pdfrwt beam="2">  1       -2 0.53942837E-01 0.12423553E+04</pdfrwt>
<totfact> 0.69336807E+01</totfact>
</mgrwt>
</event>
<event>
 6    1  0.5026615E-004  0.2959802E+04  0.7818608E-02  0.8255304E-01
         -2   -1    0    0    0  501 -0.00000000000E+00  0.00000000000E+00  0.77368243661E+03  0.77368243661E+03  0.00000000000E+00 0. -1.
          2   -1    0    0  501    0  0.00000000000E+00 -0.00000000000E+00 -0.28307573257E+04  0.28307573257E+04  0.00000000000E+00 0.  1.
         23    2    1    2    0    0  0.10655922504E+04  0.97797843095E+03 -0.14029769847E+04  0.20170605625E+04  0.90885849306E+02 0.  0.
         13    1    3    3    0    0  0.50081699954E+03  0.51607388728E+03 -0.72194097711E+03  0.10189939640E+04  0.00000000000E+00 0.  1.
        -13    1    3    3    0    0  0.56477525086E+03  0.46190454367E+03 -0.68103600763E+03  0.99806659854E+03  0.00000000000E+00 0. -1.
         22    1    1    2    0    0 -0.10655922504E+04 -0.97797843095E+03 -0.65409790435E+03  0.15873791998E+04  0.00000000000E+00 0. -1.
<mgrwt>
<rscale>  0 0.29598022E+04</rscale>
<asrwt>0</asrwt>
<pdfrwt beam="1">  1        2 0.43550112E+00 0.29598022E+04</pdfrwt>
<pdfrwt beam="2">  1       -2 0.11902807E+00 0.29598022E+04</pdfrwt>
<totfact> 0.10303458E+00</totfact>
</mgrwt>
</event>
<event>
 6    1  0.5026615E-004  0.1467401E+04  0.7818608E-02  0.8906425E-01
          2   -1    0    0  501    0  0.00000000000E+00  0.00000000000E+00  0.96618017041E+03  0.96618017041E+03  0.00000000000E+00 0.  1.
         -2   -1    0    0    0  501 -0.00000000000E+00 -0.00000000000E+00 -0.55715948047E+03  0.55715948047E+03  0.00000000000E+00 0. -1.
         23    2    1    2    0    0  0.66221826886E+03  0.17411804687E+03 -0.60152522280E+02  0.69329529488E+03  0.90498122160E+02 0.  0.
         13    1    3    3    0    0  0.23500318315E+03  0.71565513782E+02  0.20839716761E+02  0.24654089447E+03  0.00000000000E+00 0.  1.
        -13    1    3    3    0    0  0.42721508571E+03  0.10255253309E+03 -0.80992239041E+02  0.44675440041E+03  0.00000000000E+00 0. -1.
         22    1    1    2    0    0 -0.66221826886E+03 -0.17411804687E+03  0.46917321223E+03  0.83004435600E+03  0.00000000000E+00 0.  1.
<mgrwt>
<rscale>  0 0.14674010E+04</rscale>
<asrwt>0</asrwt>
<pdfrwt beam="1">  1        2 0.14864310E+00 0.14674010E+04</pdfrwt>
<pdfrwt beam="2">  1       -2 0.85716843E-01 0.14674010E+04</pdfrwt>
<totfact> 0.30339365E+01</totfact>
</mgrwt>
</event>
<event>
 6    1  0.5026615E-004  0.1195912E+04  0.7818608E-02  0.9116443E-01
          2   -1    0    0  501    0  0.00000000000E+00  0.00000000000E+00  0.50611548950E+03  0.50611548950E+03  0.00000000000E+00 0.  1.
         -2   -1    0    0    0  501 -0.00000000000E+00 -0.00000000000E+00 -0.70646150060E+03  0.70646150060E+03  0.00000000000E+00 0. -1.
         23    2    1    2    0    0  0.17587604411E+03 -0.55411217287E+03  0.25091270080E+02  0.58904298881E+03  0.91484358341E+02 0.  0.
         11    1    3    3    0    0  0.95875552201E+02 -0.23175510173E+03 -0.29204805304E+02  0.25249845414E+03  0.00000000000E+00 0. -1.
        -11    1    3    3    0    0  0.80000491909E+02 -0.32235707113E+03  0.54296075384E+02  0.33654453467E+03  0.00000000000E+00 0.  1.
         22    1    1    2    0    0 -0.17587604411E+03  0.55411217287E+03 -0.22543728118E+03  0.62353400129E+03  0.00000000000E+00 0. -1.
<mgrwt>
<rscale>  0 0.11959115E+04</rscale>
<asrwt>0</asrwt>
<pdfrwt beam="1">  1        2 0.77863922E-01 0.11959115E+04</pdfrwt>
<pdfrwt beam="2">  1       -2 0.10868638E+00 0.11959115E+04</pdfrwt>
<totfact> 0.40533793E+01</totfact>
</mgrwt>
</event>
<event>
 6    1  0.5026615E-004  0.4984867E+04  0.7818608E-02  0.7830846E-01
         -2   -1    0    0    0  501 -0.00000000000E+00  0.00000000000E+00  0.17453652987E+04  0.17453652987E+04  0.00000000000E+00 0. -1.
          2   -1    0    0  501    0  0.00000000000E+00 -0.00000000000E+00 -0.35592683917E+04  0.35592683917E+04  0.00000000000E+00 0.  1.
         23    2    1    2    0    0  0.24563912083E+04  0.17803882753E+03 -0.13094080926E+04  0.27906585915E+04  0.87579843316E+02 0.  0.
         13    1    3    3    0    0  0.14608681659E+04  0.13329795680E+03 -0.81718623904E+03  0.16791954897E+04  0.00000000000E+00 0. -1.
        -13    1    3    3    0    0  0.99552304242E+03  0.44740870728E+02 -0.49222185356E+03  0.11114631018E+04  0.00000000000E+00 0.  1.
         22    1    1    2    0    0 -0.24563912083E+04 -0.17803882753E+03 -0.50449500038E+03  0.25139750989E+04  0.00000000000E+00 0. -1.
<mgrwt>
<rscale>  0 0.49848665E+04</rscale>
<asrwt>0</asrwt>
<pdfrwt beam="1">  1        2 0.54757975E+00 0.49848665E+04</pdfrwt>
<pdfrwt beam="2">  1       -2 0.26851774E+00 0.49848665E+04</pdfrwt>
<totfact> 0.26572580E-02</totfact>
</mgrwt>
</event>
<event>
 6    1  0.5026615E-004  0.2664178E+04  0.7818608E-02  0.8346722E-01
          1   -1    0    0  501    0  0.00000000000E+00  0.00000000000E+00  0.17738494669E+04  0.17738494669E+04  0.00000000000E+00 0.  1.
         -1   -1    0    0    0  501 -0.00000000000E+00 -0.00000000000E+00 -0.10003447340E+04  0.10003447340E+04  0.00000000000E+00 0. -1.
         23    2    1    2    0    0  0.32555671855E+03 -0.12814690147E+04  0.54190415669E+03  0.14318869188E+04  0.92141307454E+02 0.  0.
         11    1    3    3    0    0  0.11753038940E+03 -0.59959660763E+03  0.21645409560E+03  0.64821436255E+03  0.00000000000E+00 0. -1.
        -11    1    3    3    0    0  0.20802632915E+03 -0.68187240705E+03  0.32545006109E+03  0.78367255623E+03  0.00000000000E+00 0.  1.
         22    1    1    2    0    0 -0.32555671855E+03  0.12814690147E+04  0.23160057621E+03  0.13423072821E+04  0.00000000000E+00 0.  1.
<mgrwt>
<rscale>  0 0.26641779E+04</rscale>
<asrwt>0</asrwt>
<pdfrwt beam="1">  1        1 0.27289992E+00 0.26641779E+04</pdfrwt>
<pdfrwt beam="2">  1       -1 0.15389919E+00 0.26641779E+04</pdfrwt>
<totfact> 0.12096844E+00</totfact>
</mgrwt>
</event>
<event>
 6    1  0.5026615E-004  0.3473730E+04  0.7818608E-02  0.8120044E-01
         -2   -1    0    0    0  501 -0.00000000000E+00  0.00000000000E+00  0.10034494639E+04  0.10034494639E+04  0.00000000000E+00 0. -1.
          2   -1    0    0  501    0  0.00000000000E+00 -0.00000000000E+00 -0.30063301945E+04  0.30063301945E+04  0.00000000000E+00 0.  1.
         23    2    1    2    0    0 -0.18597339339E+02  0.10148759016E+04 -0.26273549114E+04  0.28180217303E+04  0.89071234974E+02 0.  0.
         13    1    3    3    0    0  0.31696918890E+02  0.45343791804E+03 -0.12255812257E+04  0.13071572135E+04  0.00000000000E+00 0.  1.
        -13    1    3    3    0    0 -0.50294258229E+02  0.56143798357E+03 -0.14017736858E+04  0.15108645167E+04  0.00000000000E+00 0. -1.
         22    1    1    2    0    0  0.18597339339E+02 -0.10148759016E+04  0.62447418078E+03  0.11917579281E+04  0.00000000000E+00 0. -1.
<mgrwt>
<rscale>  0 0.34737302E+04</rscale>
<asrwt>0</asrwt>
<pdfrwt beam="1">  1        2 0.46251232E+00 0.34737302E+04</pdfrwt>
<pdfrwt beam="2">  1       -2 0.15437685E+00 0.34737302E+04</pdfrwt>
<totfact> 0.39397492E-01</totfact>
</mgrwt>
</event>
<event>
 6    1  0.5026615E-004  0.2401016E+04  0.7818608E-02  0.8439123E-01
         -2   -1    0    0    0  501 -0.00000000000E+00  0.00000000000E+00  0.46099644991E+03  0.46099644991E+03  0.00000000000E+00 0. -1.
          2   -1    0    0  501    0  0.00000000000E+00 -0.00000000000E+00 -0.31263128725E+04  0.31263128725E+04  0.00000000000E+00 0.  1.
         23    2    1    2    0    0  0.34042217875E+03 -0.53991837804E+03  0.18167617690E+03  0.66964484953E+03  0.89548179828E+02 0.  0.
         11    1    3    3    0    0  0.82220810106E+02 -0.20430950088E+03  0.45862832290E+02  0.22495784749E+03  0.00000000000E+00 0. -1.
        -11    1    3    3    0    0  0.25820136865E+03 -0.33560887716E+03  0.13581334461E+03  0.44468700203E+03  0.00000000000E+00 0.  1.
         22    1    1    2    0    0 -0.34042217875E+03  0.53991837804E+03 -0.28469925995E+04  0.29176644729E+04  0.00000000000E+00 0.  1.
<mgrwt>
<rscale>  0 0.24010157E+04</rscale>
<asrwt>0</asrwt>
<pdfrwt beam="1">  1        2 0.48097121E+00 0.24010157E+04</pdfrwt>
<pdfrwt beam="2">  1       -2 0.70922530E-01 0.24010157E+04</pdfrwt>
<totfact> 0.23527921E+00</totfact>
</mgrwt>
</event>
<event>
 6    1  0.5026615E-004  0.1573798E+04  0.7818608E-02  0.8836809E-01
          2   -1    0    0  501    0  0.00000000000E+00  0.00000000000E+00  0.19017475570E+04  0.19017475570E+04  0.00000000000E+00 0.  1.
         -2   -1    0    0    0  501 -0.00000000000E+00 -0.00000000000E+00 -0.32560051021E+03  0.32560051021E+03  0.00000000000E+00 0. -1.
         23    2    1    2    0    0  0.55113210714E+03  0.13940059627E+03  0.15554214497E+04  0.16584819352E+04  0.89706842048E+02 0.  0.
         13    1    3    3    0    0  0.45981972638E+03  0.13656921150E+03  0.13746884655E+04  0.14559717399E+04  0.00000000000E+00 0.  1.
        -13    1    3    3    0    0  0.91312380761E+02  0.28313847656E+01  0.18073298424E+03  0.20251019533E+03  0.00000000000E+00 0. -1.
         22    1    1    2    0    0 -0.55113210714E+03 -0.13940059627E+03  0.20725597111E+02  0.56886613200E+03  0.00000000000E+00 0. -1.
<mgrwt>
<rscale>  0 0.15737979E+04</rscale>
<asrwt>0</asrwt>
<pdfrwt beam="1">  1        2 0.29257654E+00 0.15737979E+04</pdfrwt>
<pdfrwt beam="2">  1       -2 0.50092387E-01 0.15737979E+04</pdfrwt>
<totfact> 0.27447093E+01</totfact>
</mgrwt>
</event>
<event>
 6    1  0.5026615E-004  0.5177103E+04  0.7818608E-02  0.7801753E-01
          2   -1    0    0  501    0  0.00000000000E+00  0.00000000000E+00  0.40878714515E+04  0.40878714515E+04  0.00000000000E+00 0.  1.
         -2   -1    0    0    0  501 -0.00000000000E+00 -0.00000000000E+00 -0.16391411175E+04  0.16391411175E+04  0.00000000000E+00 0. -1.
         23    2    1    2    0    0  0.16560633758E+04 -0.36916442626E+03 -0.93669231258E+03  0.19402045763E+04  0.90404818216E+02 0.  0.
         11    1    3    3    0    0  0.71549016260E+03 -0.14753482937E+03 -0.45278682246E+03  0.85948159099E+03  0.00000000000E+00 0. -1.
        -11    1    3    3    0    0  0.94057321318E+03 -0.22162959689E+03 -0.48390549012E+03  0.10807229853E+04  0.00000000000E+00 0.  1.
         22    1    1    2    0    0 -0.16560633758E+04  0.36916442626E+03  0.33854226465E+04  0.37868079927E+04  0.00000000000E+00 0.  1.
<mgrwt>
<rscale>  0 0.51771027E+04</rscale>
<asrwt>0</asrwt>
<pdfrwt beam="1">  1        2 0.62890329E+00 0.51771027E+04</pdfrwt>
<pdfrwt beam="2">  1       -2 0.25217556E+00 0.51771027E+04</pdfrwt>
<totfact> 0.12887127E-02</totfact>
</mgrwt>
</event>
<event>
 6    1  0.5026615E-004  0.3647285E+04  0.7818608E-02  0.8079746E-01
          2   -1    0    0  501    0  0.00000000000E+00  0.00000000000E+00  0.21571840271E+04  0.21571840271E+04  0.00000000000E+00 0.  1.
         -2   -1    0    0    0  501 -0.00000000000E+00 -0.00000000000E+00 -0.15416725066E+04  0.15416725066E+04  0.00000000000E+00 0. -1.
         23    2    1    2    0    0  0.24719701177E+03  0.44287033329E+03 -0.14673173728E+04  0.15551642298E+04  0.90967105680E+02 0.  0.
         13    1    3    3    0    0  0.48812264150E+02  0.72839773656E+02 -0.37048324622E+03  0.38071788175E+03  0.00000000000E+00 0. -1.
        -13    1    3    3    0    0  0.19838474762E+03  0.37003055963E+03 -0.10968341266E+04  0.11744463481E+04  0.00000000000E+00 0.  1.
         22    1    1    2    0    0 -0.24719701177E+03 -0.44287033329E+03  0.20828288934E+04  0.21436923039E+04  0.00000000000E+00 0.  1.
<mgrwt>
<rscale>  0 0.36472846E+04</rscale>
<asrwt>0</asrwt>
<pdfrwt beam="1">  1        2 0.33187447E+00 0.36472846E+04</pdfrwt>
<pdfrwt beam="2">  1       -2 0.23718039E+00 0.36472846E+04</pdfrwt>
<totfact> 0.34176624E-01</totfact>
</mgrwt>
</event>
<event>
 6    1  0.5026615E-004  0.2616602E+04  0.7818608E-02  0.8362584E-01
         -2   -1    0    0    0  501 -0.00000000000E+00  0.00000000000E+00  0.78363734377E+03  0.78363734377E+03  0.00000000000E+00 0. -1.
          2   -1    0    0  501    0  0.00000000000E+00 -0.00000000000E+00 -0.21842393416E+04  0.21842393416E+04  0.00000000000E+00 0.  1.
         23    2    1    2    0    0  0.32655952874E+03  0.52429618272E+03 -0.20072530597E+04  0.21021093241E+04  0.90945873240E+02 0.  0.
         13    1    3    3    0    0  0.16438313290E+03  0.32018248946E+03 -0.12753606300E+04  0.13251729614E+04  0.00000000000E+00 0.  1.
        -13    1    3    3    0    0  0.16217639584E+03  0.20411369325E+03 -0.73189242965E+03  0.77693636272E+03  0.00000000000E+00 0. -1.
         22    1    1    2    0    0 -0.32655952874E+03 -0.52429618272E+03  0.60665106184E+03  0.86576736128E+03  0.00000000000E+00 0. -1.
<mgrwt>
<rscale>  0 0.26166020E+04</rscale>
<asrwt>0</asrwt>
<pdfrwt beam="1">  1        2 0.33603682E+00 0.26166020E+04</pdfrwt>
<pdfrwt beam="2">  1       -2 0.12055959E+00 0.26166020E+04</pdfrwt>
<totfact> 0.24434417E+00</totfact>
</mgrwt>
</event>
<event>
 6    1  0.5026615E-004  0.3200727E+04  0.7818608E-02  0.8188625E-01
          2   -1    0    0  501    0  0.00000000000E+00  0.00000000000E+00  0.22690941042E+04  0.22690941042E+04  0.00000000000E+00 0.  1.
         -2   -1    0    0    0  501 -0.00000000000E+00 -0.00000000000E+00 -0.11287159870E+04  0.11287159870E+04  0.00000000000E+00 0. -1.
         23    2    1    2    0    0 -0.30399812267E+03  0.11240542361E+04  0.17337256058E+04  0.20909152880E+04  0.10104197864E+03 0.  0.
         11    1    3    3    0    0  0.13399505366E+01  0.94297882217E+02  0.15600343702E+03  0.18229360499E+03  0.00000000000E+00 0. -1.
        -11    1    3    3    0    0 -0.30533807320E+03  0.10297563539E+04  0.15777221688E+04  0.19086216831E+04  0.00000000000E+00 0.  1.
         22    1    1    2    0    0  0.30399812267E+03 -0.11240542361E+04 -0.59334748867E+03  0.13068948032E+04  0.00000000000E+00 0. -1.
<mgrwt>
<rscale>  0 0.32007267E+04</rscale>
<asrwt>0</asrwt>
<pdfrwt beam="1">  1        2 0.34909140E+00 0.32007267E+04</pdfrwt>
<pdfrwt beam="2">  1       -2 0.17364861E+00 0.32007267E+04</pdfrwt>
<totfact> 0.79818032E-01</totfact>
</mgrwt>
</event>
<event>
 6    1  0.5026615E-004  0.3419088E+04  0.7818608E-02  0.8133237E-01
         -2   -1    0    0    0  501 -0.00000000000E+00  0.00000000000E+00  0.96110475624E+03  0.96110475624E+03  0.00000000000E+00 0. -1.
          2   -1    0    0  501    0  0.00000000000E+00 -0.00000000000E+00 -0.30408130166E+04  0.30408130166E+04  0.00000000000E+00 0.  1.
         23    2    1    2    0    0  0.14881444898E+04  0.80639725563E+03 -0.13103214059E+04  0.21426688148E+04  0.96108826205E+02 0.  0.
         11    1    3    3    0    0  0.48265047067E+03  0.21761049991E+03 -0.43760032791E+03  0.68687688380E+03  0.00000000000E+00 0. -1.
        -11    1    3    3    0    0  0.10054940191E+04  0.58878675573E+03 -0.87272107802E+03  0.14557919310E+04  0.00000000000E+00 0.  1.
         22    1    1    2    0    0 -0.14881444898E+04 -0.80639725563E+03 -0.76938685445E+03  0.18592489581E+04  0.00000000000E+00 0. -1.
<mgrwt>
<rscale>  0 0.34190875E+04</rscale>
<asrwt>0</asrwt>
<pdfrwt beam="1">  1        2 0.46781739E+00 0.34190875E+04</pdfrwt>
<pdfrwt beam="2">  1       -2 0.14786227E+00 0.34190875E+04</pdfrwt>
<totfact> 0.42213658E-01</totfact>
</mgrwt>
</event>
<event>
 6    1  0.9106463E-004  0.3177158E+04  0.7818608E-02  0.8194876E-01
         -2   -1    0    0    0  501 -0.00000000000E+00  0.00000000000E+00  0.15112869265E+04  0.15112869265E+04  0.00000000000E+00 0. -1.
          2   -1    0    0  501    0  0.00000000000E+00 -0.00000000000E+00 -0.16698238424E+04  0.16698238424E+04  0.00000000000E+00 0.  1.
         23    2    1    2    0    0  0.12913081525E+03  0.15703349373E+04 -0.27172323039E+03  0.16014153159E+04  0.89838284193E+02 0.  0.
         13    1    3    3    0    0  0.10714126983E+03  0.82598712132E+03 -0.12114018301E+03  0.84167031564E+03  0.00000000000E+00 0. -1.
        -13    1    3    3    0    0  0.21989545429E+02  0.74434781594E+03 -0.15058304738E+03  0.75974500022E+03  0.00000000000E+00 0.  1.
         22    1    1    2    0    0 -0.12913081525E+03 -0.15703349373E+04  0.11318631450E+03  0.15796954531E+04  0.00000000000E+00 0. -1.
<mgrwt>
<rscale>  0 0.31771578E+04</rscale>
<asrwt>0</asrwt>
<pdfrwt beam="1">  1        2 0.25689598E+00 0.31771578E+04</pdfrwt>
<pdfrwt beam="2">  1       -2 0.23250568E+00 0.31771578E+04</pdfrwt>
<totfact> 0.70928504E-01</totfact>
</mgrwt>
</event>
<event>
 6    1  0.5026615E-004  0.4610675E+04  0.7818608E-02  0.7891542E-01
         -2   -1    0    0    0  501 -0.00000000000E+00  0.00000000000E+00  0.18578165563E+04  0.18578165563E+04  0.00000000000E+00 0. -1.
          2   -1    0    0  501    0  0.00000000000E+00 -0.00000000000E+00 -0.28606591962E+04  0.28606591962E+04  0.00000000000E+00 0.  1.
         23    2    1    2    0    0  0.10081966586E+03  0.56688035287E+03 -0.27852007675E+04  0.28454251834E+04  0.87081684298E+02 0.  0.
         11    1    3    3    0    0 -0.92316668886E+01  0.15174948021E+03 -0.66355788354E+03  0.68075119774E+03  0.00000000000E+00 0. -1.
        -11    1    3    3    0    0  0.11005133275E+03  0.41513087266E+03 -0.21216428840E+04  0.21646739857E+04  0.00000000000E+00 0.  1.
         22    1    1    2    0    0 -0.10081966586E+03 -0.56688035287E+03  0.17823581275E+04  0.18730505691E+04  0.00000000000E+00 0. -1.
<mgrwt>
<rscale>  0 0.46106746E+04</rscale>
<asrwt>0</asrwt>
<pdfrwt beam="1">  1        2 0.44010141E+00 0.46106746E+04</pdfrwt>
<pdfrwt beam="2">  1       -2 0.28581793E+00 0.46106746E+04</pdfrwt>
<totfact> 0.61879641E-02</totfact>
</mgrwt>
</event>
<event>
 6    1  0.5026615E-004  0.1974152E+04  0.7818608E-02  0.8618802E-01
          2   -1    0    0  501    0  0.00000000000E+00  0.00000000000E+00  0.11939012497E+04  0.11939012497E+04  0.00000000000E+00 0.  1.
         -2   -1    0    0    0  501 -0.00000000000E+00 -0.00000000000E+00 -0.81607981228E+03  0.81607981228E+03  0.00000000000E+00 0. -1.
         23    2    1    2    0    0 -0.21329527089E+03  0.95933947425E+03  0.25560031245E+03  0.10196452084E+04  0.92291559308E+02 0.  0.
         13    1    3    3    0    0 -0.14406580281E+03  0.44448242290E+03  0.10745035711E+03  0.47944255031E+03  0.00000000000E+00 0. -1.
        -13    1    3    3    0    0 -0.69229468080E+02  0.51485705134E+03  0.14814995534E+03  0.54020265811E+03  0.00000000000E+00 0.  1.
         22    1    1    2    0    0  0.21329527089E+03 -0.95933947425E+03  0.12222112496E+03  0.99033585354E+03  0.00000000000E+00 0.  1.
<mgrwt>
<rscale>  0 0.19741517E+04</rscale>
<asrwt>0</asrwt>
<pdfrwt beam="1">  1        2 0.18367712E+00 0.19741517E+04</pdfrwt>
<pdfrwt beam="2">  1       -2 0.12555074E+00 0.19741517E+04</pdfrwt>
<totfact> 0.84341236E+00</totfact>
</mgrwt>
</event>
<event>
 6    1  0.5026615E-004  0.2801268E+04  0.7818608E-02  0.8302875E-01
         -2   -1    0    0    0  501 -0.00000000000E+00  0.00000000000E+00  0.10979203588E+04  0.10979203588E+04  0.00000000000E+00 0. -1.
          2   -1    0    0  501    0  0.00000000000E+00 -0.00000000000E+00 -0.17868105913E+04  0.17868105913E+04  0.00000000000E+00 0.  1.
         23    2    1    2    0    0 -0.26056359575E+03  0.65807052371E+03  0.89786835835E+03  0.11472750435E+04  0.95510392091E+02 0.  0.
         11    1    3    3    0    0 -0.24062911854E+03  0.54310962754E+03  0.78964621954E+03  0.98813541190E+03  0.00000000000E+00 0. -1.
        -11    1    3    3    0    0 -0.19934477213E+02  0.11496089617E+03  0.10822213881E+03  0.15913963164E+03  0.00000000000E+00 0.  1.
         22    1    1    2    0    0  0.26056359575E+03 -0.65807052371E+03 -0.15867585908E+04  0.17374559065E+04  0.00000000000E+00 0.  1.
<mgrwt>
<rscale>  0 0.28012681E+04</rscale>
<asrwt>0</asrwt>
<pdfrwt beam="1">  1        2 0.27489393E+00 0.28012681E+04</pdfrwt>
<pdfrwt beam="2">  1       -2 0.16891083E+00 0.28012681E+04</pdfrwt>
<totfact> 0.16569578E+00</totfact>
</mgrwt>
</event>
<event>
 6    1  0.5026615E-004  0.1405938E+04  0.7818608E-02  0.8949532E-01
         -2   -1    0    0    0  501 -0.00000000000E+00  0.00000000000E+00  0.57444935382E+03  0.57444935382E+03  0.00000000000E+00 0. -1.
          2   -1    0    0  501    0  0.00000000000E+00 -0.00000000000E+00 -0.86024190241E+03  0.86024190241E+03  0.00000000000E+00 0.  1.
         23    2    1    2    0    0 -0.49376809405E+03 -0.46146210341E+03 -0.33008785297E+03  0.75740529182E+03  0.89166035126E+02 0.  0.
         11    1    3    3    0    0 -0.35587834116E+03 -0.36818420150E+03 -0.27968562397E+03  0.58346640708E+03  0.00000000000E+00 0.  1.
        -11    1    3    3    0    0 -0.13788975289E+03 -0.93277901913E+02 -0.50402229003E+02  0.17393888474E+03  0.00000000000E+00 0. -1.
         22    1    1    2    0    0  0.49376809405E+03  0.46146210341E+03  0.44295304384E+02  0.67728596440E+03  0.00000000000E+00 0.  1.
<mgrwt>
<rscale>  0 0.14059380E+04</rscale>
<asrwt>0</asrwt>
<pdfrwt beam="1">  1        2 0.13234491E+00 0.14059380E+04</pdfrwt>
<pdfrwt beam="2">  1       -2 0.88376823E-01 0.14059380E+04</pdfrwt>
<totfact> 0.33486601E+01</totfact>
</mgrwt>
</event>
<event>
 6    1  0.5026615E-004  0.1542398E+04  0.7818608E-02  0.8856738E-01
         -2   -1    0    0    0  501 -0.00000000000E+00  0.00000000000E+00  0.10769013274E+04  0.10769013274E+04  0.00000000000E+00 0. -1.
          2   -1    0    0  501    0  0.00000000000E+00 -0.00000000000E+00 -0.55227735064E+03  0.55227735064E+03  0.00000000000E+00 0.  1.
         23    2    1    2    0    0 -0.67087332772E+03 -0.11409904216E+03 -0.11428568863E+03  0.69574674489E+03  0.88953364952E+02 0.  0.
         13    1    3    3    0    0 -0.37585146311E+03 -0.26225067681E+02 -0.87215435489E+02  0.38672808106E+03  0.00000000000E+00 0. -1.
        -13    1    3    3    0    0 -0.29502186461E+03 -0.87873974484E+02 -0.27070253140E+02  0.30901866383E+03  0.00000000000E+00 0.  1.
         22    1    1    2    0    0  0.67087332772E+03  0.11409904216E+03  0.63890966538E+03  0.93343193313E+03  0.00000000000E+00 0. -1.
<mgrwt>
<rscale>  0 0.15423984E+04</rscale>
<asrwt>0</asrwt>
<pdfrwt beam="1">  1        2 0.84965747E-01 0.15423984E+04</pdfrwt>
<pdfrwt beam="2">  1       -2 0.16567713E+00 0.15423984E+04</pdfrwt>
<totfact> 0.12066619E+01</totfact>
</mgrwt>
</event>
<event>
 6    1  0.5026615E-004  0.2552328E+04  0.7818608E-02  0.8384577E-01
         -1   -1    0    0    0  501 -0.00000000000E+00  0.00000000000E+00  0.24772530333E+04  0.24772530333E+04  0.00000000000E+00 0. -1.
          1   -1    0    0  501    0  0.00000000000E+00 -0.00000000000E+00 -0.65741936225E+03  0.65741936225E+03  0.00000000000E+00 0.  1.
         23    2    1    2    0    0  0.68599630895E+03 -0.48672596243E+03  0.20872161181E+04  0.22520702931E+04  0.88636239398E+02 0.  0.
         11    1    3    3    0    0  0.31992010409E+03 -0.20716703558E+03  0.10553254062E+04  0.11220422303E+04  0.00000000000E+00 0. -1.
        -11    1    3    3    0    0  0.36607620486E+03 -0.27955892685E+03  0.10318907119E+04  0.11300280628E+04  0.00000000000E+00 0.  1.
         22    1    1    2    0    0 -0.68599630895E+03  0.48672596243E+03 -0.26738244700E+03  0.88260210251E+03  0.00000000000E+00 0.  1.
<mgrwt>
<rscale>  0 0.25523277E+04</rscale>
<asrwt>0</asrwt>
<pdfrwt beam="1">  1        1 0.10114144E+00 0.25523277E+04</pdfrwt>
<pdfrwt beam="2">  1       -1 0.38111585E+00 0.25523277E+04</pdfrwt>
<totfact> 0.25468580E-01</totfact>
</mgrwt>
</event>
<event>
 6    1  0.5026615E-004  0.2327963E+04  0.7818608E-02  0.8466977E-01
          2   -1    0    0  501    0  0.00000000000E+00  0.00000000000E+00  0.24621876688E+04  0.24621876688E+04  0.00000000000E+00 0.  1.
         -2   -1    0    0    0  501 -0.00000000000E+00 -0.00000000000E+00 -0.55026393311E+03  0.55026393311E+03  0.00000000000E+00 0. -1.
         23    2    1    2    0    0 -0.10799906342E+04  0.42276748517E+03  0.10544671375E+04  0.15701118590E+04  0.90764470980E+02 0.  0.
         13    1    3    3    0    0 -0.58081308758E+03  0.17901352910E+03  0.55810972363E+03  0.82515219803E+03  0.00000000000E+00 0. -1.
        -13    1    3    3    0    0 -0.49917754657E+03  0.24375395607E+03  0.49635741386E+03  0.74495966092E+03  0.00000000000E+00 0.  1.
         22    1    1    2    0    0  0.10799906342E+04 -0.42276748517E+03  0.85745659823E+03  0.14423397430E+04  0.00000000000E+00 0. -1.
<mgrwt>
<rscale>  0 0.23279631E+04</rscale>
<asrwt>0</asrwt>
<pdfrwt beam="1">  1        2 0.37879810E+00 0.23279631E+04</pdfrwt>
<pdfrwt beam="2">  1       -2 0.84655991E-01 0.23279631E+04</pdfrwt>
<totfact> 0.40268880E+00</totfact>
</mgrwt>
</event>
<event>
 6    1  0.5026615E-004  0.2350955E+04  0.7818608E-02  0.8458097E-01
          2   -1    0    0  501    0  0.00000000000E+00  0.00000000000E+00  0.19520157969E+04  0.19520157969E+04  0.00000000000E+00 0.  1.
         -2   -1    0    0    0  501 -0.00000000000E+00 -0.00000000000E+00 -0.70785653846E+03  0.70785653846E+03  0.00000000000E+00 0. -1.
         23    2    1    2    0    0 -0.92079951968E+03 -0.68430176530E+03  0.34258003474E+03  0.12007678984E+04  0.91333477511E+02 0.  0.
         11    1    3    3    0    0 -0.53266066740E+03 -0.45063276808E+03  0.19979537656E+03  0.72575165915E+03  0.00000000000E+00 0. -1.
        -11    1    3    3    0    0 -0.38813885228E+03 -0.23366899722E+03  0.14278465817E+03  0.47501623922E+03  0.00000000000E+00 0.  1.
         22    1    1    2    0    0  0.92079951968E+03  0.68430176530E+03  0.90157922375E+03  0.14591044370E+04  0.00000000000E+00 0.  1.
<mgrwt>
<rscale>  0 0.23509548E+04</rscale>
<asrwt>0</asrwt>
<pdfrwt beam="1">  1        2 0.30031012E+00 0.23509548E+04</pdfrwt>
<pdfrwt beam="2">  1       -2 0.10890101E+00 0.23509548E+04</pdfrwt>
<totfact> 0.43180510E+00</totfact>
</mgrwt>
</event>
<event>
 6    1  0.5026615E-004  0.1722751E+04  0.7818608E-02  0.8748494E-01
          2   -1    0    0  501    0  0.00000000000E+00  0.00000000000E+00  0.17939810127E+04  0.17939810127E+04  0.00000000000E+00 0.  1.
         -2   -1    0    0    0  501 -0.00000000000E+00 -0.00000000000E+00 -0.41358748597E+03  0.41358748597E+03  0.00000000000E+00 0. -1.
         23    2    1    2    0    0 -0.52026908517E+03 -0.16444502738E+03  0.15423909345E+04  0.16383890471E+04  0.87331477347E+02 0.  0.
         13    1    3    3    0    0 -0.10676749640E+03 -0.19035851585E+02  0.41070688270E+03  0.42478442231E+03  0.00000000000E+00 0.  1.
        -13    1    3    3    0    0 -0.41350158877E+03 -0.14540917580E+03  0.11316840518E+04  0.12136046248E+04  0.00000000000E+00 0. -1.
         22    1    1    2    0    0  0.52026908517E+03  0.16444502738E+03 -0.16199740770E+03  0.56917945159E+03  0.00000000000E+00 0. -1.
<mgrwt>
<rscale>  0 0.17227514E+04</rscale>
<asrwt>0</asrwt>
<pdfrwt beam="1">  1        2 0.27599708E+00 0.17227514E+04</pdfrwt>
<pdfrwt beam="2">  1       -2 0.63628845E-01 0.17227514E+04</pdfrwt>
<totfact> 0.18874630E+01</totfact>
</mgrwt>
</event>
<event>
 6    1  0.5026615E-004  0.2204652E+04  0.7818608E-02  0.8516495E-01
         -2   -1    0    0    0  501 -0.00000000000E+00  0.00000000000E+00  0.21644410034E+04  0.21644410034E+04  0.00000000000E+00 0. -1.
          2   -1    0    0  501    0  0.00000000000E+00 -0.00000000000E+00 -0.56140232016E+03  0.56140232016E+03  0.00000000000E+00 0.  1.
         23    2    1    2    0    0  0.73814961135E+03  0.74761040392E+03  0.39844257292E+03  0.11274572770E+04  0.92829213000E+02 0.  0.
         13    1    3    3    0    0  0.59182686122E+03  0.55769631459E+03  0.33472866848E+03  0.87939041072E+03  0.00000000000E+00 0.  1.
        -13    1    3    3    0    0  0.14632275013E+03  0.18991408933E+03  0.63713904444E+02  0.24806686629E+03  0.00000000000E+00 0. -1.
         22    1    1    2    0    0 -0.73814961135E+03 -0.74761040392E+03  0.12045961103E+04  0.15983860465E+04  0.00000000000E+00 0. -1.
<mgrwt>
<rscale>  0 0.22046516E+04</rscale>
<asrwt>0</asrwt>
<pdfrwt beam="1">  1        2 0.86369589E-01 0.22046516E+04</pdfrwt>
<pdfrwt beam="2">  1       -2 0.33299092E+00 0.22046516E+04</pdfrwt>
<totfact> 0.97733460E-01</totfact>
</mgrwt>
</event>
<event>
 6    1  0.5026615E-004  0.1738223E+04  0.7818608E-02  0.8739860E-01
          2   -1    0    0  501    0  0.00000000000E+00  0.00000000000E+00  0.72802763173E+03  0.72802763173E+03  0.00000000000E+00 0.  1.
         -2   -1    0    0    0  501 -0.00000000000E+00 -0.00000000000E+00 -0.10375354584E+04  0.10375354584E+04  0.00000000000E+00 0. -1.
         23    2    1    2    0    0  0.23503454991E+03 -0.64843298254E+03 -0.68829521694E+03  0.97867907108E+03  0.91410316782E+02 0.  0.
         13    1    3    3    0    0  0.17187631465E+03 -0.40756894384E+03 -0.49201608786E+03  0.66161449669E+03  0.00000000000E+00 0. -1.
        -13    1    3    3    0    0  0.63158235251E+02 -0.24086403871E+03 -0.19627912908E+03  0.31706457439E+03  0.00000000000E+00 0.  1.
         22    1    1    2    0    0 -0.23503454991E+03  0.64843298254E+03  0.37878739024E+03  0.78688401909E+03  0.00000000000E+00 0.  1.
<mgrwt>
<rscale>  0 0.17382226E+04</rscale>
<asrwt>0</asrwt>
<pdfrwt beam="1">  1        2 0.11200425E+00 0.17382226E+04</pdfrwt>
<pdfrwt beam="2">  1       -2 0.15962084E+00 0.17382226E+04</pdfrwt>
<totfact> 0.93673941E+00</totfact>
</mgrwt>
</event>
<event>
 6    1  0.5026615E-004  0.4061773E+04  0.7818608E-02  0.7992200E-01
         -2   -1    0    0    0  501 -0.00000000000E+00  0.00000000000E+00  0.14164026204E+04  0.14164026204E+04  0.00000000000E+00 0. -1.
          2   -1    0    0  501    0  0.00000000000E+00 -0.00000000000E+00 -0.29119551190E+04  0.29119551190E+04  0.00000000000E+00 0.  1.
         23    2    1    2    0    0  0.28324788535E+03  0.16551637691E+04 -0.19633676244E+04  0.25851860729E+04  0.92618227326E+02 0.  0.
         11    1    3    3    0    0  0.16962566169E+03  0.77200158745E+03 -0.96597743891E+03  0.12481473185E+04  0.00000000000E+00 0. -1.
        -11    1    3    3    0    0  0.11362222366E+03  0.88316218166E+03 -0.99739018545E+03  0.13370387544E+04  0.00000000000E+00 0.  1.
         22    1    1    2    0    0 -0.28324788535E+03 -0.16551637691E+04  0.46781512579E+03  0.17431716666E+04  0.00000000000E+00 0.  1.
<mgrwt>
<rscale>  0 0.40617734E+04</rscale>
<asrwt>0</asrwt>
<pdfrwt beam="1">  1        2 0.44799310E+00 0.40617734E+04</pdfrwt>
<pdfrwt beam="2">  1       -2 0.21790810E+00 0.40617734E+04</pdfrwt>
<totfact> 0.15793502E-01</totfact>
</mgrwt>
</event>
<event>
 6    1  0.5026615E-004  0.2328830E+04  0.7818608E-02  0.8466640E-01
         -2   -1    0    0    0  501 -0.00000000000E+00  0.00000000000E+00  0.45688834456E+03  0.45688834456E+03  0.00000000000E+00 0. -1.
          2   -1    0    0  501    0  0.00000000000E+00 -0.00000000000E+00 -0.29675999940E+04  0.29675999940E+04  0.00000000000E+00 0.  1.
         23    2    1    2    0    0 -0.18544057238E+03  0.88936511596E+03 -0.19055973111E+03  0.93280949901E+03  0.91989319777E+02 0.  0.
         13    1    3    3    0    0 -0.48018982757E+02  0.42185093158E+03 -0.64213713732E+02  0.42940357731E+03  0.00000000000E+00 0.  1.
        -13    1    3    3    0    0 -0.13742158963E+03  0.46751418438E+03 -0.12634601737E+03  0.50340592170E+03  0.00000000000E+00 0. -1.
         22    1    1    2    0    0  0.18544057238E+03 -0.88936511596E+03 -0.23201519183E+04  0.24916788396E+04  0.00000000000E+00 0.  1.
<mgrwt>
<rscale>  0 0.23288296E+04</rscale>
<asrwt>0</asrwt>
<pdfrwt beam="1">  1        2 0.45655387E+00 0.23288296E+04</pdfrwt>
<pdfrwt beam="2">  1       -2 0.70290511E-01 0.23288296E+04</pdfrwt>
<totfact> 0.30415813E+00</totfact>
</mgrwt>
</event>
<event>
 6    1  0.5026615E-004  0.2553994E+04  0.7818608E-02  0.8383998E-01
          2   -1    0    0  501    0  0.00000000000E+00  0.00000000000E+00  0.12230258067E+04  0.12230258067E+04  0.00000000000E+00 0.  1.
         -2   -1    0    0    0  501 -0.00000000000E+00 -0.00000000000E+00 -0.13333500340E+04  0.13333500340E+04  0.00000000000E+00 0. -1.
         23    2    1    2    0    0 -0.76277061130E+03 -0.64766796303E+03 -0.84678383596E+03  0.13139324614E+04  0.89904685233E+02 0.  0.
         11    1    3    3    0    0 -0.67513381974E+03 -0.55152086675E+03 -0.70192886013E+03  0.11192341425E+04  0.00000000000E+00 0. -1.
        -11    1    3    3    0    0 -0.87636791553E+02 -0.96147096287E+02 -0.14485497583E+03  0.19469831890E+03  0.00000000000E+00 0.  1.
         22    1    1    2    0    0  0.76277061130E+03  0.64766796303E+03  0.73645960863E+03  0.12424433794E+04  0.00000000000E+00 0.  1.
<mgrwt>
<rscale>  0 0.25539941E+04</rscale>
<asrwt>0</asrwt>
<pdfrwt beam="1">  1        2 0.18815782E+00 0.25539941E+04</pdfrwt>
<pdfrwt beam="2">  1       -2 0.20513077E+00 0.25539941E+04</pdfrwt>
<totfact> 0.20061040E+00</totfact>
</mgrwt>
</event>
<event>
 6    1  0.5026615E-004  0.2759243E+04  0.7818608E-02  0.8316035E-01
          2   -1    0    0  501    0  0.00000000000E+00  0.00000000000E+00  0.40952180915E+04  0.40952180915E+04  0.00000000000E+00 0.  1.
         -2   -1    0    0    0  501 -0.00000000000E+00 -0.00000000000E+00 -0.46477500290E+03  0.46477500290E+03  0.00000000000E+00 0. -1.
         23    2    1    2    0    0  0.69404704861E+03  0.40398567376E+03 -0.33659271442E+02  0.80891967001E+03  0.91172121188E+02 0.  0.
         11    1    3    3    0    0  0.23781948008E+03  0.94986206148E+02 -0.30435471197E+02  0.25788912806E+03  0.00000000000E+00 0. -1.
        -11    1    3    3    0    0  0.45622756853E+03  0.30899946761E+03 -0.32238002451E+01  0.55103054195E+03  0.00000000000E+00 0.  1.
         22    1    1    2    0    0 -0.69404704861E+03 -0.40398567376E+03  0.36641023600E+04  0.37510734244E+04  0.00000000000E+00 0.  1.
<mgrwt>
<rscale>  0 0.27592426E+04</rscale>
<asrwt>0</asrwt>
<pdfrwt beam="1">  1        2 0.63003353E+00 0.27592426E+04</pdfrwt>
<pdfrwt beam="2">  1       -2 0.71503849E-01 0.27592426E+04</pdfrwt>
<totfact> 0.44298700E-01</totfact>
</mgrwt>
</event>
<event>
 6    1  0.5026615E-004  0.1816016E+04  0.7818608E-02  0.8697828E-01
         -1   -1    0    0    0  501 -0.00000000000E+00  0.00000000000E+00  0.10998352418E+04  0.10998352418E+04  0.00000000000E+00 0. -1.
          1   -1    0    0  501    0  0.00000000000E+00 -0.00000000000E+00 -0.74963821201E+03  0.74963821201E+03  0.00000000000E+00 0.  1.
         23    2    1    2    0    0 -0.56355027404E+03  0.55719013692E+03 -0.27110063910E+03  0.84246771726E+03  0.90589944608E+02 0.  0.
         13    1    3    3    0    0 -0.40341718726E+03  0.43726298805E+03 -0.23230360879E+03  0.63867778602E+03  0.00000000000E+00 0.  1.
        -13    1    3    3    0    0 -0.16013308677E+03  0.11992714887E+03 -0.38797030309E+02  0.20378993124E+03  0.00000000000E+00 0. -1.
         22    1    1    2    0    0  0.56355027404E+03 -0.55719013692E+03  0.62129766885E+03  0.10070057365E+04  0.00000000000E+00 0. -1.
<mgrwt>
<rscale>  0 0.18160160E+04</rscale>
<asrwt>0</asrwt>
<pdfrwt beam="1">  1        1 0.11532895E+00 0.18160160E+04</pdfrwt>
<pdfrwt beam="2">  1       -1 0.16920542E+00 0.18160160E+04</pdfrwt>
<totfact> 0.57603515E+00</totfact>
</mgrwt>
</event>
<event>
 6    1  0.5026615E-004  0.2076471E+04  0.7818608E-02  0.8571680E-01
         -2   -1    0    0    0  501 -0.00000000000E+00  0.00000000000E+00  0.41415612793E+03  0.41415612793E+03  0.00000000000E+00 0. -1.
          2   -1    0    0  501    0  0.00000000000E+00 -0.00000000000E+00 -0.26027207944E+04  0.26027207944E+04  0.00000000000E+00 0.  1.
         23    2    1    2    0    0  0.14597309873E+03  0.15975056605E+03 -0.25687255646E+04  0.25794404157E+04  0.91287693196E+02 0.  0.
         11    1    3    3    0    0  0.13806102602E+03  0.11504447410E+03 -0.16866007683E+04  0.16961480565E+04  0.00000000000E+00 0.  1.
        -11    1    3    3    0    0  0.79120727112E+01  0.44706091944E+02 -0.88212479630E+03  0.88329235919E+03  0.00000000000E+00 0. -1.
         22    1    1    2    0    0 -0.14597309873E+03 -0.15975056605E+03  0.38016089811E+03  0.43743650666E+03  0.00000000000E+00 0. -1.
<mgrwt>
<rscale>  0 0.20764708E+04</rscale>
<asrwt>0</asrwt>
<pdfrwt beam="1">  1        2 0.40041859E+00 0.20764708E+04</pdfrwt>
<pdfrwt beam="2">  1       -2 0.63716326E-01 0.20764708E+04</pdfrwt>
<totfact> 0.63831121E+00</totfact>
</mgrwt>
</event>
<event>
 6    1  0.5026615E-004  0.2399420E+04  0.7818608E-02  0.8439721E-01
          2   -1    0    0  501    0  0.00000000000E+00  0.00000000000E+00  0.29697398858E+04  0.29697398858E+04  0.00000000000E+00 0.  1.
         -2   -1    0    0    0  501 -0.00000000000E+00 -0.00000000000E+00 -0.48465662590E+03  0.48465662590E+03  0.00000000000E+00 0. -1.
         23    2    1    2    0    0  0.11294376505E+04  0.33840049759E+03  0.93898068766E+03  0.15100257994E+04  0.91372205420E+02 0.  0.
         13    1    3    3    0    0  0.56239628417E+03  0.12761475492E+03  0.48827497087E+03  0.75563718364E+03  0.00000000000E+00 0.  1.
        -13    1    3    3    0    0  0.56704136629E+03  0.21078574268E+03  0.45070571679E+03  0.75438861574E+03  0.00000000000E+00 0. -1.
         22    1    1    2    0    0 -0.11294376505E+04 -0.33840049759E+03  0.15461025722E+04  0.19443707123E+04  0.00000000000E+00 0. -1.
<mgrwt>
<rscale>  0 0.23994200E+04</rscale>
<asrwt>0</asrwt>
<pdfrwt beam="1">  1        2 0.45688305E+00 0.23994200E+04</pdfrwt>
<pdfrwt beam="2">  1       -2 0.74562560E-01 0.23994200E+04</pdfrwt>
<totfact> 0.26468082E+00</totfact>
</mgrwt>
</event>
<event>
 6    1  0.5026615E-004  0.1400814E+04  0.7818608E-02  0.8953230E-01
         -2   -1    0    0    0  501 -0.00000000000E+00  0.00000000000E+00  0.58798099518E+03  0.58798099518E+03  0.00000000000E+00 0. -1.
          2   -1    0    0  501    0  0.00000000000E+00 -0.00000000000E+00 -0.83432966783E+03  0.83432966783E+03  0.00000000000E+00 0.  1.
         23    2    1    2    0    0 -0.15437798285E+02 -0.43459309347E+03  0.42984520047E+03  0.61835317871E+03  0.92110122933E+02 0.  0.
         11    1    3    3    0    0 -0.45629553127E+02 -0.16026867671E+03  0.18993503512E+03  0.25267255969E+03  0.00000000000E+00 0. -1.
        -11    1    3    3    0    0  0.30191754842E+02 -0.27432441676E+03  0.23991016535E+03  0.36568061902E+03  0.00000000000E+00 0.  1.
         22    1    1    2    0    0  0.15437798285E+02  0.43459309347E+03 -0.67619387312E+03  0.80395748429E+03  0.00000000000E+00 0.  1.
<mgrwt>
<rscale>  0 0.14008140E+04</rscale>
<asrwt>0</asrwt>
<pdfrwt beam="1">  1        2 0.12835841E+00 0.14008140E+04</pdfrwt>
<pdfrwt beam="2">  1       -2 0.90458614E-01 0.14008140E+04</pdfrwt>
<totfact> 0.33102163E+01</totfact>
</mgrwt>
</event>
<event>
 6    1  0.5026615E-004  0.1655572E+04  0.7818608E-02  0.8787117E-01
          2   -1    0    0  501    0  0.00000000000E+00  0.00000000000E+00  0.57212693773E+03  0.57212693773E+03  0.00000000000E+00 0.  1.
         -2   -1    0    0    0  501 -0.00000000000E+00 -0.00000000000E+00 -0.11976886764E+04  0.11976886764E+04  0.00000000000E+00 0. -1.
         23    2    1    2    0    0  0.78594223531E+03  0.14555495208E+03 -0.95548000419E+02  0.81075044219E+03  0.96412747102E+02 0.  0.
         13    1    3    3    0    0  0.58245438961E+03  0.91291118909E+02 -0.10966933360E+03  0.59967870323E+03  0.00000000000E+00 0.  1.
        -13    1    3    3    0    0  0.20348784570E+03  0.54263833166E+02  0.14121333185E+02  0.21107173896E+03  0.00000000000E+00 0. -1.
         22    1    1    2    0    0 -0.78594223531E+03 -0.14555495208E+03 -0.53001373827E+03  0.95906517196E+03  0.00000000000E+00 0. -1.
<mgrwt>
<rscale>  0 0.16555724E+04</rscale>
<asrwt>0</asrwt>
<pdfrwt beam="1">  1        2 0.88019529E-01 0.16555724E+04</pdfrwt>
<pdfrwt beam="2">  1       -2 0.18425980E+00 0.16555724E+04</pdfrwt>
<totfact> 0.84928491E+00</totfact>
</mgrwt>
</event>
<event>
 6    1  0.5026615E-004  0.5490905E+03  0.7818608E-02  0.1001705E+00
         -1   -1    0    0    0  501 -0.00000000000E+00  0.00000000000E+00  0.35531962500E+03  0.35531962500E+03  0.00000000000E+00 0. -1.
          1   -1    0    0  501    0  0.00000000000E+00 -0.00000000000E+00 -0.21213322844E+03  0.21213322844E+03  0.00000000000E+00 0.  1.
         23    2    1    2    0    0  0.53580271875E+02  0.44438700058E+02  0.34003455357E+03  0.35865907836E+03  0.90372524988E+02 0.  0.
         11    1    3    3    0    0  0.69247888555E+02  0.45324072513E+02  0.18302607408E+03  0.20086832855E+03  0.00000000000E+00 0.  1.
        -11    1    3    3    0    0 -0.15667616680E+02 -0.88537245467E+00  0.15700847948E+03  0.15779074981E+03  0.00000000000E+00 0. -1.
         22    1    1    2    0    0 -0.53580271875E+02 -0.44438700058E+02 -0.19684815701E+03  0.20879377508E+03  0.00000000000E+00 0.  1.
<mgrwt>
<rscale>  0 0.54909052E+03</rscale>
<asrwt>0</asrwt>
<pdfrwt beam="1">  1        1 0.32635881E-01 0.54909052E+03</pdfrwt>
<pdfrwt beam="2">  1       -1 0.54664558E-01 0.54909052E+03</pdfrwt>
<totfact> 0.47130100E+02</totfact>
</mgrwt>
</event>
<event>
 6    1  0.5026615E-004  0.2644401E+04  0.7818608E-02  0.8353274E-01
          2   -1    0    0  501    0  0.00000000000E+00  0.00000000000E+00  0.34327175900E+04  0.34327175900E+04  0.00000000000E+00 0.  1.
         -2   -1    0    0    0  501 -0.00000000000E+00 -0.00000000000E+00 -0.50927994952E+03  0.50927994952E+03  0.00000000000E+00 0. -1.
         23    2    1    2    0    0 -0.84825440133E+03  0.75092582272E+03  0.24753395508E+04  0.27237130823E+04  0.88780305711E+02 0.  0.
         11    1    3    3    0    0 -0.68438948923E+03  0.57307284497E+03  0.18810241062E+04  0.20820790443E+04  0.00000000000E+00 0.  1.
        -11    1    3    3    0    0 -0.16386491210E+03  0.17785297775E+03  0.59431544456E+03  0.64163403802E+03  0.00000000000E+00 0. -1.
         22    1    1    2    0    0  0.84825440133E+03 -0.75092582272E+03  0.44809808969E+03  0.12182844572E+04  0.00000000000E+00 0. -1.
<mgrwt>
<rscale>  0 0.26444011E+04</rscale>
<asrwt>0</asrwt>
<pdfrwt beam="1">  1        2 0.52811038E+00 0.26444011E+04</pdfrwt>
<pdfrwt beam="2">  1       -2 0.78350764E-01 0.26444011E+04</pdfrwt>
<totfact> 0.11561900E+00</totfact>
</mgrwt>
</event>
<event>
 6    1  0.5026615E-004  0.2679029E+04  0.7818608E-02  0.8341842E-01
          2   -1    0    0  501    0  0.00000000000E+00  0.00000000000E+00  0.21135130163E+04  0.21135130163E+04  0.00000000000E+00 0.  1.
         -2   -1    0    0    0  501 -0.00000000000E+00 -0.00000000000E+00 -0.84896499830E+03  0.84896499830E+03  0.00000000000E+00 0. -1.
         23    2    1    2    0    0  0.14138185759E+02 -0.89149366837E+03 -0.47150406876E+03  0.10108536407E+04  0.67439950580E+02 0.  0.
         13    1    3    3    0    0 -0.10574434841E+01 -0.76850700263E+03 -0.38364008428E+03  0.85894344724E+03  0.00000000000E+00 0. -1.
        -13    1    3    3    0    0  0.15195629243E+02 -0.12298666574E+03 -0.87863984474E+02  0.15191019342E+03  0.00000000000E+00 0.  1.
         22    1    1    2    0    0 -0.14138185759E+02  0.89149366837E+03  0.17360520868E+04  0.19516243740E+04  0.00000000000E+00 0.  1.
<mgrwt>
<rscale>  0 0.26790286E+04</rscale>
<asrwt>0</asrwt>
<pdfrwt beam="1">  1        2 0.32515585E+00 0.26790286E+04</pdfrwt>
<pdfrwt beam="2">  1       -2 0.13061000E+00 0.26790286E+04</pdfrwt>
<totfact> 0.21778583E+00</totfact>
</mgrwt>
</event>
<event>
 6    1  0.5026615E-004  0.4776577E+04  0.7818608E-02  0.7863928E-01
         -2   -1    0    0    0  501 -0.00000000000E+00  0.00000000000E+00  0.18198039031E+04  0.18198039031E+04  0.00000000000E+00 0. -1.
          2   -1    0    0  501    0  0.00000000000E+00 -0.00000000000E+00 -0.31343601390E+04  0.31343601390E+04  0.00000000000E+00 0.  1.
         23    2    1    2    0    0  0.13878121518E+04 -0.25451986854E+03  0.13400258736E+04  0.19479023922E+04  0.88608440138E+02 0.  0.
         11    1    3    3    0    0  0.51527477960E+03 -0.60130880543E+02  0.52831507921E+03  0.74043274118E+03  0.00000000000E+00 0. -1.
        -11    1    3    3    0    0  0.87253737216E+03 -0.19438898800E+03  0.81171079435E+03  0.12074696510E+04  0.00000000000E+00 0.  1.
         22    1    1    2    0    0 -0.13878121518E+04  0.25451986854E+03 -0.26545821095E+04  0.30062616500E+04  0.00000000000E+00 0.  1.
<mgrwt>
<rscale>  0 0.47765765E+04</rscale>
<asrwt>0</asrwt>
<pdfrwt beam="1">  1        2 0.48220925E+00 0.47765765E+04</pdfrwt>
<pdfrwt beam="2">  1       -2 0.27996983E+00 0.47765765E+04</pdfrwt>
<totfact> 0.44619534E-02</totfact>
</mgrwt>
</event>
<event>
 6    1  0.5026615E-004  0.1651442E+04  0.7818608E-02  0.8789554E-01
         -2   -1    0    0    0  501 -0.00000000000E+00  0.00000000000E+00  0.69991558204E+03  0.69991558204E+03  0.00000000000E+00 0. -1.
          2   -1    0    0  501    0  0.00000000000E+00 -0.00000000000E+00 -0.97413909158E+03  0.97413909158E+03  0.00000000000E+00 0.  1.
         23    2    1    2    0    0  0.13559088746E+03 -0.56385317994E+03 -0.73006833052E+03  0.93641668781E+03  0.86954865849E+02 0.  0.
         11    1    3    3    0    0  0.53740909044E+02 -0.24020806972E+03 -0.24268534713E+03  0.34566483734E+03  0.00000000000E+00 0. -1.
        -11    1    3    3    0    0  0.81849978419E+02 -0.32364511022E+03 -0.48738298339E+03  0.59075185047E+03  0.00000000000E+00 0.  1.
         22    1    1    2    0    0 -0.13559088746E+03  0.56385317994E+03  0.45584482098E+03  0.73763798580E+03  0.00000000000E+00 0. -1.
<mgrwt>
<rscale>  0 0.16514420E+04</rscale>
<asrwt>0</asrwt>
<pdfrwt beam="1">  1        2 0.14986755E+00 0.16514420E+04</pdfrwt>
<pdfrwt beam="2">  1       -2 0.10767932E+00 0.16514420E+04</pdfrwt>
<totfact> 0.17300585E+01</totfact>
</mgrwt>
</event>
<event>
 6    1  0.5026615E-004  0.1587734E+04  0.7818608E-02  0.8828119E-01
          2   -1    0    0  501    0  0.00000000000E+00  0.00000000000E+00  0.13976791013E+04  0.13976791013E+04  0.00000000000E+00 0.  1.
         -2   -1    0    0    0  501 -0.00000000000E+00 -0.00000000000E+00 -0.45090796664E+03  0.45090796664E+03  0.00000000000E+00 0. -1.
         23    2    1    2    0    0 -0.58710820035E+03 -0.21697138084E+03 -0.89009530952E+02  0.63837460467E+03  0.88469318182E+02 0.  0.
         11    1    3    3    0    0 -0.27052884517E+03 -0.53220130009E+02 -0.39673565425E+02  0.27855381903E+03  0.00000000000E+00 0. -1.
        -11    1    3    3    0    0 -0.31657935519E+03 -0.16375125083E+03 -0.49335965527E+02  0.35982078563E+03  0.00000000000E+00 0.  1.
         22    1    1    2    0    0  0.58710820035E+03  0.21697138084E+03  0.10357806656E+04  0.12102124633E+04  0.00000000000E+00 0.  1.
<mgrwt>
<rscale>  0 0.15877338E+04</rscale>
<asrwt>0</asrwt>
<pdfrwt beam="1">  1        2 0.21502755E+00 0.15877338E+04</pdfrwt>
<pdfrwt beam="2">  1       -2 0.69370457E-01 0.15877338E+04</pdfrwt>
<totfact> 0.26413714E+01</totfact>
</mgrwt>
</event>
<event>
 6    1  0.5026615E-004  0.1714829E+04  0.7818608E-02  0.8752952E-01
          2   -1    0    0  501    0  0.00000000000E+00  0.00000000000E+00  0.15852399729E+04  0.15852399729E+04  0.00000000000E+00 0.  1.
         -2   -1    0    0    0  501 -0.00000000000E+00 -0.00000000000E+00 -0.46375284354E+03  0.46375284354E+03  0.00000000000E+00 0. -1.
         23    2    1    2    0    0  0.14913631260E+03 -0.81008036225E+03  0.28847809248E+03  0.87750833571E+03  0.91265745888E+02 0.  0.
         11    1    3    3    0    0  0.46080098733E+02 -0.24976040706E+03  0.13429322301E+03  0.28729480709E+03  0.00000000000E+00 0. -1.
        -11    1    3    3    0    0  0.10305621387E+03 -0.56031995519E+03  0.15418486947E+03  0.59021352863E+03  0.00000000000E+00 0.  1.
         22    1    1    2    0    0 -0.14913631260E+03  0.81008036225E+03  0.83300903687E+03  0.11714844807E+04  0.00000000000E+00 0.  1.
<mgrwt>
<rscale>  0 0.17148289E+04</rscale>
<asrwt>0</asrwt>
<pdfrwt beam="1">  1        2 0.24388307E+00 0.17148289E+04</pdfrwt>
<pdfrwt beam="2">  1       -2 0.71346592E-01 0.17148289E+04</pdfrwt>
<totfact> 0.19259277E+01</totfact>
</mgrwt>
</event>
<event>
 6    1  0.5026615E-004  0.9263012E+03  0.7818608E-02  0.9393288E-01
         -2   -1    0    0    0  501 -0.00000000000E+00  0.00000000000E+00  0.89246356634E+03  0.89246356634E+03  0.00000000000E+00 0. -1.
          2   -1    0    0  501    0  0.00000000000E+00 -0.00000000000E+00 -0.24035543368E+03  0.24035543368E+03  0.00000000000E+00 0.  1.
         23    2    1    2    0    0 -0.26716371661E+03 -0.10567322434E+03 -0.10783982885E+03  0.32037565675E+03  0.92020926611E+02 0.  0.
         11    1    3    3    0    0 -0.13568752125E+03 -0.71172756180E+02 -0.10249768727E+03  0.18434326823E+03  0.00000000000E+00 0.  1.
        -11    1    3    3    0    0 -0.13147619536E+03 -0.34500468162E+02 -0.53421415805E+01  0.13603238852E+03  0.00000000000E+00 0. -1.
         22    1    1    2    0    0  0.26716371661E+03  0.10567322434E+03  0.75994796151E+03  0.81244334327E+03  0.00000000000E+00 0. -1.
<mgrwt>
<rscale>  0 0.92630118E+03</rscale>
<asrwt>0</asrwt>
<pdfrwt beam="1">  1        2 0.36977760E-01 0.92630118E+03</pdfrwt>
<pdfrwt beam="2">  1       -2 0.13730208E+00 0.92630118E+03</pdfrwt>
<totfact> 0.53202814E+01</totfact>
</mgrwt>
</event>
<event>
 6    1  0.5026615E-004  0.6331570E+03  0.7818608E-02  0.9838907E-01
         -2   -1    0    0    0  501 -0.00000000000E+00  0.00000000000E+00  0.17956396151E+03  0.17956396151E+03  0.00000000000E+00 0. -1.
          2   -1    0    0  501    0  0.00000000000E+00 -0.00000000000E+00 -0.55814069238E+03  0.55814069238E+03  0.00000000000E+00 0.  1.
         23    2    1    2    0    0 -0.53031416833E+02  0.15054464666E+03 -0.50282273654E+03  0.53543480510E+03  0.91562570513E+02 0.  0.
         13    1    3    3    0    0 -0.26021999867E+01  0.64974399622E+02 -0.32784796981E+03  0.33423455141E+03  0.00000000000E+00 0. -1.
        -13    1    3    3    0    0 -0.50429216846E+02  0.85570247037E+02 -0.17497476673E+03  0.20120025368E+03  0.00000000000E+00 0.  1.
         22    1    1    2    0    0  0.53031416833E+02 -0.15054464666E+03  0.12424600566E+03  0.20226984880E+03  0.00000000000E+00 0. -1.
<mgrwt>
<rscale>  0 0.63315702E+03</rscale>
<asrwt>0</asrwt>
<pdfrwt beam="1">  1        2 0.85867799E-01 0.63315702E+03</pdfrwt>
<pdfrwt beam="2">  1       -2 0.27625225E-01 0.63315702E+03</pdfrwt>
<totfact> 0.64989800E+02</totfact>
</mgrwt>
</event>
<event>
 6    1  0.5026615E-004  0.2155800E+04  0.7818608E-02  0.8537054E-01
         -2   -1    0    0    0  501 -0.00000000000E+00  0.00000000000E+00  0.93501125640E+03  0.93501125640E+03  0.00000000000E+00 0. -1.
          2   -1    0    0  501    0  0.00000000000E+00 -0.00000000000E+00 -0.12426247970E+04  0.12426247970E+04  0.00000000000E+00 0.  1.
         23    2    1    2    0    0  0.89931274654E+03  0.50175505623E+03 -0.46865325525E+03  0.11353043681E+04  0.93587296192E+02 0.  0.
         11    1    3    3    0    0  0.46374157881E+03  0.31123530271E+03 -0.24373804551E+03  0.60937008493E+03  0.00000000000E+00 0. -1.
        -11    1    3    3    0    0  0.43557116773E+03  0.19051975352E+03 -0.22491520974E+03  0.52593428317E+03  0.00000000000E+00 0.  1.
         22    1    1    2    0    0 -0.89931274654E+03 -0.50175505623E+03  0.16103971462E+03  0.10423316853E+04  0.00000000000E+00 0.  1.
<mgrwt>
<rscale>  0 0.21557998E+04</rscale>
<asrwt>0</asrwt>
<pdfrwt beam="1">  1        2 0.19117305E+00 0.21557998E+04</pdfrwt>
<pdfrwt beam="2">  1       -2 0.14384789E+00 0.21557998E+04</pdfrwt>
<totfact> 0.54848379E+00</totfact>
</mgrwt>
</event>
<event>
 6    1  0.5026615E-004  0.1077601E+04  0.7818608E-02  0.9227302E-01
          2   -1    0    0  501    0  0.00000000000E+00  0.00000000000E+00  0.11803727358E+04  0.11803727358E+04  0.00000000000E+00 0.  1.
         -2   -1    0    0    0  501 -0.00000000000E+00 -0.00000000000E+00 -0.24594451490E+03  0.24594451490E+03  0.00000000000E+00 0. -1.
         23    2    1    2    0    0  0.37153954048E+03 -0.99826233886E+02 -0.26234156897E+02  0.39148436021E+03  0.67563793440E+02 0.  0.
         11    1    3    3    0    0  0.23406332797E+03 -0.93515635703E+02 -0.40423046538E+01  0.25208561214E+03  0.00000000000E+00 0.  1.
        -11    1    3    3    0    0  0.13747621252E+03 -0.63105981835E+01 -0.22191852243E+02  0.13939874807E+03  0.00000000000E+00 0. -1.
         22    1    1    2    0    0 -0.37153954048E+03  0.99826233886E+02  0.96066237775E+03  0.10348328904E+04  0.00000000000E+00 0.  1.
<mgrwt>
<rscale>  0 0.10776014E+04</rscale>
<asrwt>0</asrwt>
<pdfrwt beam="1">  1        2 0.18159580E+00 0.10776014E+04</pdfrwt>
<pdfrwt beam="2">  1       -2 0.37837618E-01 0.10776014E+04</pdfrwt>
<totfact> 0.12741306E+02</totfact>
</mgrwt>
</event>
<event>
 6    1  0.5026615E-004  0.7328743E+03  0.7818608E-02  0.9662608E-01
         -2   -1    0    0    0  501 -0.00000000000E+00  0.00000000000E+00  0.13973301548E+03  0.13973301548E+03  0.00000000000E+00 0. -1.
          2   -1    0    0  501    0  0.00000000000E+00 -0.00000000000E+00 -0.96094817305E+03  0.96094817305E+03  0.00000000000E+00 0.  1.
         23    2    1    2    0    0 -0.80862898440E+02  0.20516800568E+03  0.11589332815E+02  0.23917318618E+03  0.91851953996E+02 0.  0.
         13    1    3    3    0    0 -0.25148048836E+02  0.46115420316E+02  0.42828038633E+02  0.67773868447E+02  0.00000000000E+00 0.  1.
        -13    1    3    3    0    0 -0.55714849605E+02  0.15905258537E+03 -0.31238705818E+02  0.17139931774E+03  0.00000000000E+00 0. -1.
         22    1    1    2    0    0  0.80862898440E+02 -0.20516800568E+03 -0.83280449039E+03  0.86150800235E+03  0.00000000000E+00 0.  1.
<mgrwt>
<rscale>  0 0.73287430E+03</rscale>
<asrwt>0</asrwt>
<pdfrwt beam="1">  1        2 0.14783818E+00 0.73287430E+03</pdfrwt>
<pdfrwt beam="2">  1       -2 0.21497387E-01 0.73287430E+03</pdfrwt>
<totfact> 0.50475623E+02</totfact>
</mgrwt>
</event>
<event>
 6    1  0.5026615E-004  0.3589853E+04  0.7818608E-02  0.8092820E-01
          2   -1    0    0  501    0  0.00000000000E+00  0.00000000000E+00  0.25957867733E+04  0.25957867733E+04  0.00000000000E+00 0.  1.
         -2   -1    0    0    0  501 -0.00000000000E+00 -0.00000000000E+00 -0.12411499407E+04  0.12411499407E+04  0.00000000000E+00 0. -1.
         23    2    1    2    0    0  0.27776051023E+03  0.14310320465E+04 -0.43949619283E+03  0.15252453566E+04  0.90624915017E+02 0.  0.
         13    1    3    3    0    0  0.20064439315E+03  0.10986830786E+04 -0.37420213679E+03  0.11778751712E+04  0.00000000000E+00 0. -1.
        -13    1    3    3    0    0  0.77116117080E+02  0.33234896786E+03 -0.65294056035E+02  0.34737018540E+03  0.00000000000E+00 0.  1.
         22    1    1    2    0    0 -0.27776051023E+03 -0.14310320465E+04  0.17941330254E+04  0.23116913574E+04  0.00000000000E+00 0.  1.
<mgrwt>
<rscale>  0 0.35898527E+04</rscale>
<asrwt>0</asrwt>
<pdfrwt beam="1">  1        2 0.39935181E+00 0.35898527E+04</pdfrwt>
<pdfrwt beam="2">  1       -2 0.19094615E+00 0.35898527E+04</pdfrwt>
<totfact> 0.38129313E-01</totfact>
</mgrwt>
</event>
<event>
 6    1  0.5026615E-004  0.4202735E+04  0.7818608E-02  0.7964852E-01
         -2   -1    0    0    0  501 -0.00000000000E+00  0.00000000000E+00  0.28694069174E+04  0.28694069174E+04  0.00000000000E+00 0. -1.
          2   -1    0    0  501    0  0.00000000000E+00 -0.00000000000E+00 -0.15389054122E+04  0.15389054122E+04  0.00000000000E+00 0.  1.
         23    2    1    2    0    0  0.10611395460E+04  0.11708562976E+04  0.21168389517E+04  0.26433057614E+04  0.95585538419E+02 0.  0.
         13    1    3    3    0    0  0.20571198757E+03  0.20186257384E+03  0.44275031262E+03  0.52829325178E+03  0.00000000000E+00 0.  1.
        -13    1    3    3    0    0  0.85542755841E+03  0.96899372380E+03  0.16740886391E+04  0.21150125097E+04  0.00000000000E+00 0. -1.
         22    1    1    2    0    0 -0.10611395460E+04 -0.11708562976E+04 -0.78633744653E+03  0.17650065681E+04  0.00000000000E+00 0.  1.
<mgrwt>
<rscale>  0 0.42027352E+04</rscale>
<asrwt>0</asrwt>
<pdfrwt beam="1">  1        2 0.23675468E+00 0.42027352E+04</pdfrwt>
<pdfrwt beam="2">  1       -2 0.44144722E+00 0.42027352E+04</pdfrwt>
<totfact> 0.37044740E-02</totfact>
</mgrwt>
</event>
<event>
 6    1  0.5026615E-004  0.1441148E+04  0.7818608E-02  0.8924561E-01
          2   -1    0    0  501    0  0.00000000000E+00  0.00000000000E+00  0.26134166183E+04  0.26134166183E+04  0.00000000000E+00 0.  1.
         -2   -1    0    0    0  501 -0.00000000000E+00 -0.00000000000E+00 -0.19867731225E+03  0.19867731225E+03  0.00000000000E+00 0. -1.
         23    2    1    2    0    0 -0.10932897346E+03  0.45565348503E+03  0.22728942349E+04  0.23225094669E+04  0.91810119754E+02 0.  0.
         13    1    3    3    0    0 -0.94611820866E+02  0.33035518719E+03  0.18306044380E+04  0.18625784694E+04  0.00000000000E+00 0.  1.
        -13    1    3    3    0    0 -0.14717152590E+02  0.12529829784E+03  0.44228979685E+03  0.45993099746E+03  0.00000000000E+00 0. -1.
         22    1    1    2    0    0  0.10932897346E+03 -0.45565348503E+03  0.14184507122E+03  0.48958446369E+03  0.00000000000E+00 0. -1.
<mgrwt>
<rscale>  0 0.14411476E+04</rscale>
<asrwt>0</asrwt>
<pdfrwt beam="1">  1        2 0.40206407E+00 0.14411476E+04</pdfrwt>
<pdfrwt beam="2">  1       -2 0.30565742E-01 0.14411476E+04</pdfrwt>
<totfact> 0.28838395E+01</totfact>
</mgrwt>
</event>
<event>
 6    1  0.5026615E-004  0.5166363E+04  0.7818608E-02  0.7803344E-01
          2   -1    0    0  501    0  0.00000000000E+00  0.00000000000E+00  0.43637716526E+04  0.43637716526E+04  0.00000000000E+00 0.  1.
         -2   -1    0    0    0  501 -0.00000000000E+00 -0.00000000000E+00 -0.15291422268E+04  0.15291422268E+04  0.00000000000E+00 0. -1.
         23    2    1    2    0    0  0.13207371423E+04 -0.85900332915E+03 -0.91606493392E+03  0.18247519481E+04  0.91166827480E+02 0.  0.
         11    1    3    3    0    0  0.79076493735E+03 -0.56167240800E+03 -0.54025172224E+03  0.11102508741E+04  0.00000000000E+00 0.  1.
        -11    1    3    3    0    0  0.52997220500E+03 -0.29733092115E+03 -0.37581321167E+03  0.71450107404E+03  0.00000000000E+00 0. -1.
         22    1    1    2    0    0 -0.13207371423E+04  0.85900332915E+03  0.37506943597E+04  0.40681619312E+04  0.00000000000E+00 0.  1.
<mgrwt>
<rscale>  0 0.51663633E+04</rscale>
<asrwt>0</asrwt>
<pdfrwt beam="1">  1        2 0.67134948E+00 0.51663633E+04</pdfrwt>
<pdfrwt beam="2">  1       -2 0.23525265E+00 0.51663633E+04</pdfrwt>
<totfact> 0.93701598E-03</totfact>
</mgrwt>
</event>
<event>
 6    1  0.5026615E-004  0.1407622E+04  0.7818608E-02  0.8948320E-01
          1   -1    0    0  501    0  0.00000000000E+00  0.00000000000E+00  0.33274464724E+03  0.33274464724E+03  0.00000000000E+00 0.  1.
         -1   -1    0    0    0  501 -0.00000000000E+00 -0.00000000000E+00 -0.14886781392E+04  0.14886781392E+04  0.00000000000E+00 0. -1.
         23    2    1    2    0    0 -0.40282875511E+03 -0.57354459616E+03 -0.59403781520E+03  0.92311818260E+03  0.89676325945E+02 0.  0.
         13    1    3    3    0    0 -0.98181504784E+02 -0.19807349997E+03 -0.15479647693E+03  0.26987898870E+03  0.00000000000E+00 0. -1.
        -13    1    3    3    0    0 -0.30464725032E+03 -0.37547109619E+03 -0.43924133826E+03  0.65323919390E+03  0.00000000000E+00 0.  1.
         22    1    1    2    0    0  0.40282875511E+03  0.57354459616E+03 -0.56189567677E+03  0.89830460385E+03  0.00000000000E+00 0. -1.
<mgrwt>
<rscale>  0 0.14076217E+04</rscale>
<asrwt>0</asrwt>
<pdfrwt beam="1">  1        1 0.51191485E-01 0.14076217E+04</pdfrwt>
<pdfrwt beam="2">  1       -1 0.22902740E+00 0.14076217E+04</pdfrwt>
<totfact> 0.71491177E+00</totfact>
</mgrwt>
</event>
<event>
 6    1  0.5026615E-004  0.1467225E+04  0.7818608E-02  0.8906545E-01
         -1   -1    0    0    0  501 -0.00000000000E+00  0.00000000000E+00  0.34526054836E+03  0.34526054836E+03  0.00000000000E+00 0.  1.
          1   -1    0    0  501    0  0.00000000000E+00 -0.00000000000E+00 -0.15587860704E+04  0.15587860704E+04  0.00000000000E+00 0. -1.
         23    2    1    2    0    0  0.19683416231E+03  0.70353338927E+03 -0.63004443025E+03  0.96908506780E+03  0.92016124996E+02 0.  0.
         11    1    3    3    0    0  0.11874493837E+03  0.25824289858E+03 -0.24386115969E+03  0.37451037404E+03  0.00000000000E+00 0.  1.
        -11    1    3    3    0    0  0.78089223938E+02  0.44529049069E+03 -0.38618327057E+03  0.59457469376E+03  0.00000000000E+00 0. -1.
         22    1    1    2    0    0 -0.19683416231E+03 -0.70353338927E+03 -0.58348109174E+03  0.93496155092E+03  0.00000000000E+00 0.  1.
<mgrwt>
<rscale>  0 0.14672250E+04</rscale>
<asrwt>0</asrwt>
<pdfrwt beam="1">  1        1 0.23981324E+00 0.14672250E+04</pdfrwt>
<pdfrwt beam="2">  1       -1 0.53117007E-01 0.14672250E+04</pdfrwt>
<totfact> 0.20649865E+01</totfact>
</mgrwt>
</event>
<event>
 6    1  0.5026615E-004  0.4040852E+04  0.7818608E-02  0.7996356E-01
          2   -1    0    0  501    0  0.00000000000E+00  0.00000000000E+00  0.29604799228E+04  0.29604799228E+04  0.00000000000E+00 0.  1.
         -2   -1    0    0    0  501 -0.00000000000E+00 -0.00000000000E+00 -0.13788717441E+04  0.13788717441E+04  0.00000000000E+00 0. -1.
         23    2    1    2    0    0 -0.35952456564E+03 -0.19762239149E+04  0.10130465768E+04  0.22517738431E+04  0.97484351622E+02 0.  0.
         11    1    3    3    0    0 -0.26606588906E+03 -0.16559267792E+04  0.85686886009E+03  0.18833769667E+04  0.00000000000E+00 0. -1.
        -11    1    3    3    0    0 -0.93458676576E+02 -0.32029713568E+03  0.15617771675E+03  0.36839687643E+03  0.00000000000E+00 0.  1.
         22    1    1    2    0    0  0.35952456564E+03  0.19762239149E+04  0.56856160188E+03  0.20875778237E+04  0.00000000000E+00 0.  1.
<mgrwt>
<rscale>  0 0.40408524E+04</rscale>
<asrwt>0</asrwt>
<pdfrwt beam="1">  1        2 0.45545845E+00 0.40408524E+04</pdfrwt>
<pdfrwt beam="2">  1       -2 0.21213411E+00 0.40408524E+04</pdfrwt>
<totfact> 0.16069441E-01</totfact>
</mgrwt>
</event>
<event>
 6    1  0.5026615E-004  0.2432854E+04  0.7818608E-02  0.8427305E-01
          2   -1    0    0  501    0  0.00000000000E+00  0.00000000000E+00  0.28787989584E+04  0.28787989584E+04  0.00000000000E+00 0.  1.
         -2   -1    0    0    0  501 -0.00000000000E+00 -0.00000000000E+00 -0.51399741661E+03  0.51399741661E+03  0.00000000000E+00 0. -1.
         23    2    1    2    0    0  0.16241592726E+03  0.10423474849E+04  0.20238456509E+04  0.22841403723E+04  0.92080449297E+02 0.  0.
         13    1    3    3    0    0  0.15115704344E+03  0.70919992483E+03  0.13545835604E+04  0.15364600897E+04  0.00000000000E+00 0.  1.
        -13    1    3    3    0    0  0.11258883827E+02  0.33314756009E+03  0.66926209042E+03  0.74768028256E+03  0.00000000000E+00 0. -1.
         22    1    1    2    0    0 -0.16241592726E+03 -0.10423474849E+04  0.34095589090E+03  0.11086560027E+04  0.00000000000E+00 0. -1.
<mgrwt>
<rscale>  0 0.24328545E+04</rscale>
<asrwt>0</asrwt>
<pdfrwt beam="1">  1        2 0.44289214E+00 0.24328545E+04</pdfrwt>
<pdfrwt beam="2">  1       -2 0.79076528E-01 0.24328545E+04</pdfrwt>
<totfact> 0.26347721E+00</totfact>
</mgrwt>
</event>
<event>
 6    1  0.5026615E-004  0.1930826E+04  0.7818608E-02  0.8639663E-01
         -2   -1    0    0    0  501 -0.00000000000E+00  0.00000000000E+00  0.71904956752E+03  0.71904956752E+03  0.00000000000E+00 0. -1.
          2   -1    0    0  501    0  0.00000000000E+00 -0.00000000000E+00 -0.12961863320E+04  0.12961863320E+04  0.00000000000E+00 0.  1.
         23    2    1    2    0    0 -0.17250072237E+03  0.51882719999E+03 -0.11160203596E+04  0.12475551770E+04  0.10933578627E+03 0.  0.
         13    1    3    3    0    0  0.22378362968E+01  0.12186692841E+03 -0.29049594020E+03  0.31503086742E+03  0.00000000000E+00 0. -1.
        -13    1    3    3    0    0 -0.17473855866E+03  0.39696027159E+03 -0.82552441935E+03  0.93252430963E+03  0.00000000000E+00 0.  1.
         22    1    1    2    0    0  0.17250072237E+03 -0.51882719999E+03  0.53888359506E+03  0.76768072250E+03  0.00000000000E+00 0. -1.
<mgrwt>
<rscale>  0 0.19308260E+04</rscale>
<asrwt>0</asrwt>
<pdfrwt beam="1">  1        2 0.19941328E+00 0.19308260E+04</pdfrwt>
<pdfrwt beam="2">  1       -2 0.11062301E+00 0.19308260E+04</pdfrwt>
<totfact> 0.10062566E+01</totfact>
</mgrwt>
</event>
<event>
 6    1  0.5026615E-004  0.3932969E+03  0.7818608E-02  0.1046126E+00
          2   -1    0    0  501    0  0.00000000000E+00  0.00000000000E+00  0.14350973032E+04  0.14350973032E+04  0.00000000000E+00 0.  1.
         -2   -1    0    0    0  501 -0.00000000000E+00 -0.00000000000E+00 -0.26946335160E+02  0.26946335160E+02  0.00000000000E+00 0. -1.
         23    2    1    2    0    0 -0.20492792674E+02 -0.10512046762E+03  0.13027463312E+04  0.13117758616E+04  0.11017095991E+03 0.  0.
         11    1    3    3    0    0  0.94149826594E+01 -0.10575185266E+03  0.67332669737E+03  0.68164575670E+03  0.00000000000E+00 0. -1.
        -11    1    3    3    0    0 -0.29907775333E+02  0.63138503739E+00  0.62941963379E+03  0.63013010488E+03  0.00000000000E+00 0.  1.
         22    1    1    2    0    0  0.20492792674E+02  0.10512046762E+03  0.10540463689E+03  0.15026777679E+03  0.00000000000E+00 0. -1.
<mgrwt>
<rscale>  0 0.39329690E+03</rscale>
<asrwt>0</asrwt>
<pdfrwt beam="1">  1        2 0.22078414E+00 0.39329690E+03</pdfrwt>
<pdfrwt beam="2">  1       -2 0.41455911E-02 0.39329690E+03</pdfrwt>
<totfact> 0.38584801E+03</totfact>
</mgrwt>
</event>
<event>
 6    1  0.5026615E-004  0.1702718E+04  0.7818608E-02  0.8759816E-01
          2   -1    0    0  501    0  0.00000000000E+00  0.00000000000E+00  0.25464272649E+04  0.25464272649E+04  0.00000000000E+00 0.  1.
         -2   -1    0    0    0  501 -0.00000000000E+00 -0.00000000000E+00 -0.28463890113E+03  0.28463890113E+03  0.00000000000E+00 0. -1.
         23    2    1    2    0    0  0.28006455612E+03 -0.78519033176E+03  0.14002864461E+04  0.16322561032E+04  0.92183743224E+02 0.  0.
         13    1    3    3    0    0  0.16947842993E+03 -0.35307942896E+03  0.61427221846E+03  0.72850420708E+03  0.00000000000E+00 0.  1.
        -13    1    3    3    0    0  0.11058612619E+03 -0.43211090279E+03  0.78601422766E+03  0.90375189610E+03  0.00000000000E+00 0. -1.
         22    1    1    2    0    0 -0.28006455612E+03  0.78519033176E+03  0.86150191769E+03  0.11988100629E+04  0.00000000000E+00 0.  1.
<mgrwt>
<rscale>  0 0.17027181E+04</rscale>
<asrwt>0</asrwt>
<pdfrwt beam="1">  1        2 0.39175802E+00 0.17027181E+04</pdfrwt>
<pdfrwt beam="2">  1       -2 0.43790602E-01 0.17027181E+04</pdfrwt>
<totfact> 0.15417952E+01</totfact>
</mgrwt>
</event>
<event>
 6    1  0.5026615E-004  0.1763469E+04  0.7818608E-02  0.8725971E-01
         -2   -1    0    0    0  501 -0.00000000000E+00  0.00000000000E+00  0.36450523622E+03  0.36450523622E+03  0.00000000000E+00 0. -1.
          2   -1    0    0  501    0  0.00000000000E+00 -0.00000000000E+00 -0.21329073876E+04  0.21329073876E+04  0.00000000000E+00 0.  1.
         23    2    1    2    0    0  0.27107645837E+02 -0.64690861976E+03 -0.43988038504E+02  0.65544910099E+03  0.91940141768E+02 0.  0.
         11    1    3    3    0    0  0.61277696630E+01 -0.33771652613E+03  0.22403144085E+02  0.33851425738E+03  0.00000000000E+00 0. -1.
        -11    1    3    3    0    0  0.20979876174E+02 -0.30919209363E+03 -0.66391182589E+02  0.31693484361E+03  0.00000000000E+00 0.  1.
         22    1    1    2    0    0 -0.27107645837E+02  0.64690861976E+03 -0.17244141128E+04  0.18419635228E+04  0.00000000000E+00 0.  1.
<mgrwt>
<rscale>  0 0.17634692E+04</rscale>
<asrwt>0</asrwt>
<pdfrwt beam="1">  1        2 0.32813959E+00 0.17634692E+04</pdfrwt>
<pdfrwt beam="2">  1       -2 0.56077730E-01 0.17634692E+04</pdfrwt>
<totfact> 0.15924136E+01</totfact>
</mgrwt>
</event>
<event>
 6    1  0.5026615E-004  0.1980771E+04  0.7818608E-02  0.8615664E-01
          2   -1    0    0  501    0  0.00000000000E+00  0.00000000000E+00  0.23397386014E+04  0.23397386014E+04  0.00000000000E+00 0.  1.
         -2   -1    0    0    0  501 -0.00000000000E+00 -0.00000000000E+00 -0.41921915039E+03  0.41921915039E+03  0.00000000000E+00 0. -1.
         23    2    1    2    0    0  0.41040982417E+03  0.58094101769E+03  0.19180297504E+04  0.20476667505E+04  0.90400819805E+02 0.  0.
         13    1    3    3    0    0  0.20284312444E+03  0.36424458263E+03  0.11233834343E+04  0.11982528071E+04  0.00000000000E+00 0. -1.
        -13    1    3    3    0    0  0.20756669973E+03  0.21669643505E+03  0.79464631603E+03  0.84941394348E+03  0.00000000000E+00 0.  1.
         22    1    1    2    0    0 -0.41040982417E+03 -0.58094101769E+03  0.24897006224E+01  0.71129100122E+03  0.00000000000E+00 0. -1.
<mgrwt>
<rscale>  0 0.19807708E+04</rscale>
<asrwt>0</asrwt>
<pdfrwt beam="1">  1        2 0.35995978E+00 0.19807708E+04</pdfrwt>
<pdfrwt beam="2">  1       -2 0.64495255E-01 0.19807708E+04</pdfrwt>
<totfact> 0.88926657E+00</totfact>
</mgrwt>
</event>
<event>
 6    1  0.5026615E-004  0.9343158E+03  0.7818608E-02  0.9383673E-01
         -2   -1    0    0    0  501 -0.00000000000E+00  0.00000000000E+00  0.89392160102E+02  0.89392160102E+02  0.00000000000E+00 0. -1.
          2   -1    0    0  501    0  0.00000000000E+00 -0.00000000000E+00 -0.24413384491E+04  0.24413384491E+04  0.00000000000E+00 0.  1.
         23    2    1    2    0    0 -0.32168307776E+03  0.21408679467E+02 -0.20861959122E+04  0.21129249165E+04  0.91104251496E+02 0.  0.
         13    1    3    3    0    0 -0.27021841022E+01 -0.13021066399E+02 -0.11859970457E+03  0.11934295075E+03  0.00000000000E+00 0. -1.
        -13    1    3    3    0    0 -0.31898089365E+03  0.34429745866E+02 -0.19675962076E+04  0.19935819657E+04  0.00000000000E+00 0.  1.
         22    1    1    2    0    0  0.32168307776E+03 -0.21408679467E+02 -0.26575037677E+03  0.41780569266E+03  0.00000000000E+00 0. -1.
<mgrwt>
<rscale>  0 0.93431583E+03</rscale>
<asrwt>0</asrwt>
<pdfrwt beam="1">  1        2 0.37559050E+00 0.93431583E+03</pdfrwt>
<pdfrwt beam="2">  1       -2 0.13752641E-01 0.93431583E+03</pdfrwt>
<totfact> 0.15542298E+02</totfact>
</mgrwt>
</event>
<event>
 6    1  0.5026615E-004  0.1993030E+04  0.7818608E-02  0.8609886E-01
          1   -1    0    0  501    0  0.00000000000E+00  0.00000000000E+00  0.11192202022E+04  0.11192202022E+04  0.00000000000E+00 0.  1.
         -1   -1    0    0    0  501 -0.00000000000E+00 -0.00000000000E+00 -0.88726266569E+03  0.88726266569E+03  0.00000000000E+00 0. -1.
         23    2    1    2    0    0 -0.11194767689E+03  0.15063819464E+03  0.10993130968E+04  0.11190541010E+04  0.92566992703E+02 0.  0.
         11    1    3    3    0    0 -0.69886358638E+02  0.54800477952E+02  0.72380856382E+03  0.72923660945E+03  0.00000000000E+00 0. -1.
        -11    1    3    3    0    0 -0.42061318254E+02  0.95837716689E+02  0.37550453302E+03  0.38981749160E+03  0.00000000000E+00 0.  1.
         22    1    1    2    0    0  0.11194767689E+03 -0.15063819464E+03 -0.86735556037E+03  0.88742876680E+03  0.00000000000E+00 0. -1.
<mgrwt>
<rscale>  0 0.19930302E+04</rscale>
<asrwt>0</asrwt>
<pdfrwt beam="1">  1        1 0.17218772E+00 0.19930302E+04</pdfrwt>
<pdfrwt beam="2">  1       -1 0.13650195E+00 0.19930302E+04</pdfrwt>
<totfact> 0.50969761E+00</totfact>
</mgrwt>
</event>
<event>
 6    1  0.5026615E-004  0.1980054E+04  0.7818608E-02  0.8616003E-01
          2   -1    0    0  501    0  0.00000000000E+00  0.00000000000E+00  0.17307572028E+04  0.17307572028E+04  0.00000000000E+00 0.  1.
         -2   -1    0    0    0  501 -0.00000000000E+00 -0.00000000000E+00 -0.56631484425E+03  0.56631484425E+03  0.00000000000E+00 0. -1.
         23    2    1    2    0    0 -0.85797094880E+03  0.43844470160E+03  0.32929957679E+03  0.10219989624E+04  0.87725495152E+02 0.  0.
         13    1    3    3    0    0 -0.56788496488E+03  0.26938819872E+03  0.25389162553E+03  0.67788221135E+03  0.00000000000E+00 0.  1.
        -13    1    3    3    0    0 -0.29008598392E+03  0.16905650288E+03  0.75407951255E+02  0.34411675103E+03  0.00000000000E+00 0. -1.
         22    1    1    2    0    0  0.85797094880E+03 -0.43844470160E+03  0.83514278177E+03  0.12750730847E+04  0.00000000000E+00 0.  1.
<mgrwt>
<rscale>  0 0.19800540E+04</rscale>
<asrwt>0</asrwt>
<pdfrwt beam="1">  1        2 0.26627034E+00 0.19800540E+04</pdfrwt>
<pdfrwt beam="2">  1       -2 0.87125361E-01 0.19800540E+04</pdfrwt>
<totfact> 0.99904530E+00</totfact>
</mgrwt>
</event>
<event>
 6    1  0.5026615E-004  0.2429235E+04  0.7818608E-02  0.8428639E-01
          1   -1    0    0  501    0  0.00000000000E+00  0.00000000000E+00  0.22603085473E+04  0.22603085473E+04  0.00000000000E+00 0. -1.
         -1   -1    0    0    0  501 -0.00000000000E+00 -0.00000000000E+00 -0.65269680431E+03  0.65269680431E+03  0.00000000000E+00 0.  1.
         23    2    1    2    0    0  0.67255138905E+03  0.97796360766E+03  0.11046565758E+04  0.16239351095E+04  0.90337703327E+02 0.  0.
         13    1    3    3    0    0  0.25435048478E+03  0.44307480012E+03  0.45162731246E+03  0.68189198336E+03  0.00000000000E+00 0. -1.
        -13    1    3    3    0    0  0.41820090427E+03  0.53488880753E+03  0.65302926330E+03  0.94204312613E+03  0.00000000000E+00 0.  1.
         22    1    1    2    0    0 -0.67255138905E+03 -0.97796360766E+03  0.50295516719E+03  0.12890702421E+04  0.00000000000E+00 0.  1.
<mgrwt>
<rscale>  0 0.24292354E+04</rscale>
<asrwt>0</asrwt>
<pdfrwt beam="1">  1        1 0.34773977E+00 0.24292354E+04</pdfrwt>
<pdfrwt beam="2">  1       -1 0.10041489E+00 0.24292354E+04</pdfrwt>
<totfact> 0.16716265E+00</totfact>
</mgrwt>
</event>
<event>
 6    1  0.5026615E-004  0.4086814E+04  0.7818608E-02  0.7987259E-01
         -2   -1    0    0    0  501 -0.00000000000E+00  0.00000000000E+00  0.18397210324E+04  0.18397210324E+04  0.00000000000E+00 0. -1.
          2   -1    0    0  501    0  0.00000000000E+00 -0.00000000000E+00 -0.22696445638E+04  0.22696445638E+04  0.00000000000E+00 0.  1.
         23    2    1    2    0    0  0.40027861225E+02 -0.12285447492E+04  0.14250467122E+04  0.18840927960E+04  0.90128249362E+02 0.  0.
         11    1    3    3    0    0  0.47108601907E+02 -0.90172669968E+03  0.10993729868E+04  0.14226563975E+04  0.00000000000E+00 0. -1.
        -11    1    3    3    0    0 -0.70807406829E+01 -0.32681804953E+03  0.32567372539E+03  0.46143639843E+03  0.00000000000E+00 0.  1.
         22    1    1    2    0    0 -0.40027861225E+02  0.12285447492E+04 -0.18549702436E+04  0.22252728002E+04  0.00000000000E+00 0.  1.
<mgrwt>
<rscale>  0 0.40868143E+04</rscale>
<asrwt>0</asrwt>
<pdfrwt beam="1">  1        2 0.34917609E+00 0.40868143E+04</pdfrwt>
<pdfrwt beam="2">  1       -2 0.28303401E+00 0.40868143E+04</pdfrwt>
<totfact> 0.14912696E-01</totfact>
</mgrwt>
</event>
<event>
 6    1  0.5026615E-004  0.4822523E+04  0.7818608E-02  0.7856483E-01
          2   -1    0    0  501    0  0.00000000000E+00  0.00000000000E+00  0.29966030926E+04  0.29966030926E+04  0.00000000000E+00 0.  1.
         -2   -1    0    0    0  501 -0.00000000000E+00 -0.00000000000E+00 -0.19402578277E+04  0.19402578277E+04  0.00000000000E+00 0. -1.
         23    2    1    2    0    0  0.12767697063E+04 -0.78544185764E+03 -0.14039529628E+04  0.20558667927E+04  0.91894248154E+02 0.  0.
         11    1    3    3    0    0  0.33249457235E+03 -0.19447261541E+03 -0.41567710553E+03  0.56670953305E+03  0.00000000000E+00 0.  1.
        -11    1    3    3    0    0  0.94427513395E+03 -0.59096924223E+03 -0.98827585726E+03  0.14891572596E+04  0.00000000000E+00 0. -1.
         22    1    1    2    0    0 -0.12767697063E+04  0.78544185764E+03  0.24602982276E+04  0.28809941276E+04  0.00000000000E+00 0.  1.
<mgrwt>
<rscale>  0 0.48225232E+04</rscale>
<asrwt>0</asrwt>
<pdfrwt beam="1">  1        2 0.46101586E+00 0.48225232E+04</pdfrwt>
<pdfrwt beam="2">  1       -2 0.29850121E+00 0.48225232E+04</pdfrwt>
<totfact> 0.41916697E-02</totfact>
</mgrwt>
</event>
<event>
 6    1  0.5026615E-004  0.3067585E+04  0.7818608E-02  0.8224691E-01
         -1   -1    0    0    0  501 -0.00000000000E+00  0.00000000000E+00  0.60535120899E+03  0.60535120899E+03  0.00000000000E+00 0. -1.
          1   -1    0    0  501    0  0.00000000000E+00 -0.00000000000E+00 -0.38862064680E+04  0.38862064680E+04  0.00000000000E+00 0.  1.
         23    2    1    2    0    0  0.74500206665E+03  0.12412236508E+03  0.31039320224E+03  0.82174842429E+03  0.92152547398E+02 0.  0.
         11    1    3    3    0    0  0.32704248267E+03  0.93958178006E+02  0.16526478501E+03  0.37828213525E+03  0.00000000000E+00 0.  1.
        -11    1    3    3    0    0  0.41795958398E+03  0.30164187077E+02  0.14512841723E+03  0.44346628903E+03  0.00000000000E+00 0. -1.
         22    1    1    2    0    0 -0.74500206665E+03 -0.12412236508E+03 -0.35912484612E+04  0.36698092527E+04  0.00000000000E+00 0.  1.
<mgrwt>
<rscale>  0 0.30675852E+04</rscale>
<asrwt>0</asrwt>
<pdfrwt beam="1">  1        1 0.59787791E+00 0.30675852E+04</pdfrwt>
<pdfrwt beam="2">  1       -1 0.93130956E-01 0.30675852E+04</pdfrwt>
<totfact> 0.11399256E-01</totfact>
</mgrwt>
</event>
<event>
 6    1  0.5026615E-004  0.2299512E+04  0.7818608E-02  0.8478113E-01
         -2   -1    0    0    0  501 -0.00000000000E+00  0.00000000000E+00  0.88085323374E+03  0.88085323374E+03  0.00000000000E+00 0. -1.
          2   -1    0    0  501    0  0.00000000000E+00 -0.00000000000E+00 -0.15007484943E+04  0.15007484943E+04  0.00000000000E+00 0.  1.
         23    2    1    2    0    0 -0.19903269932E+02 -0.11467479311E+04 -0.26140473454E+03  0.11799601780E+04  0.92447978137E+02 0.  0.
         11    1    3    3    0    0 -0.39140709940E+02 -0.30074791783E+03 -0.45965970335E+02  0.30674773949E+03  0.00000000000E+00 0. -1.
        -11    1    3    3    0    0  0.19237440008E+02 -0.84600001328E+03 -0.21543876420E+03  0.87321243846E+03  0.00000000000E+00 0.  1.
         22    1    1    2    0    0  0.19903269932E+02  0.11467479311E+04 -0.35849052604E+03  0.12016415501E+04  0.00000000000E+00 0.  1.
<mgrwt>
<rscale>  0 0.22995123E+04</rscale>
<asrwt>0</asrwt>
<pdfrwt beam="1">  1        2 0.23088438E+00 0.22995123E+04</pdfrwt>
<pdfrwt beam="2">  1       -2 0.13551588E+00 0.22995123E+04</pdfrwt>
<totfact> 0.44927185E+00</totfact>
</mgrwt>
</event>
<event>
 6    1  0.5026615E-004  0.2052995E+04  0.7818608E-02  0.8582237E-01
          2   -1    0    0  501    0  0.00000000000E+00  0.00000000000E+00  0.23395119569E+04  0.23395119569E+04  0.00000000000E+00 0.  1.
         -2   -1    0    0    0  501 -0.00000000000E+00 -0.00000000000E+00 -0.45039175840E+03  0.45039175840E+03  0.00000000000E+00 0. -1.
         23    2    1    2    0    0 -0.76688777618E+03  0.32260538229E+03  0.17588526976E+04  0.19477869088E+04  0.90110689345E+02 0.  0.
         11    1    3    3    0    0 -0.47071297950E+03  0.17587743995E+03  0.11502943266E+04  0.12552611763E+04  0.00000000000E+00 0.  1.
        -11    1    3    3    0    0 -0.29617479668E+03  0.14672794234E+03  0.60855837098E+03  0.69252573248E+03  0.00000000000E+00 0. -1.
         22    1    1    2    0    0  0.76688777618E+03 -0.32260538229E+03  0.13026750087E+03  0.84211680646E+03  0.00000000000E+00 0. -1.
<mgrwt>
<rscale>  0 0.20529948E+04</rscale>
<asrwt>0</asrwt>
<pdfrwt beam="1">  1        2 0.35992491E+00 0.20529948E+04</pdfrwt>
<pdfrwt beam="2">  1       -2 0.69291041E-01 0.20529948E+04</pdfrwt>
<totfact> 0.75704649E+00</totfact>
</mgrwt>
</event>
<event>
 6    1  0.5026615E-004  0.4120244E+04  0.7818608E-02  0.7980719E-01
          2   -1    0    0  501    0  0.00000000000E+00  0.00000000000E+00  0.27647886699E+04  0.27647886699E+04  0.00000000000E+00 0.  1.
         -2   -1    0    0    0  501 -0.00000000000E+00 -0.00000000000E+00 -0.15350550828E+04  0.15350550828E+04  0.00000000000E+00 0. -1.
         23    2    1    2    0    0 -0.38139413278E+03 -0.19438675594E+04  0.28685315915E+02  0.19832515308E+04  0.91548969147E+02 0.  0.
         13    1    3    3    0    0 -0.33705378294E+03 -0.17842203238E+04  0.48192416334E+02  0.18164167819E+04  0.00000000000E+00 0.  1.
        -13    1    3    3    0    0 -0.44340349837E+02 -0.15964723560E+03 -0.19507100418E+02  0.16683474886E+03  0.00000000000E+00 0. -1.
         22    1    1    2    0    0  0.38139413278E+03  0.19438675594E+04  0.12010482712E+04  0.23165922220E+04  0.00000000000E+00 0. -1.
<mgrwt>
<rscale>  0 0.41202441E+04</rscale>
<asrwt>0</asrwt>
<pdfrwt beam="1">  1        2 0.42535210E+00 0.41202441E+04</pdfrwt>
<pdfrwt beam="2">  1       -2 0.23616232E+00 0.41202441E+04</pdfrwt>
<totfact> 0.14843474E-01</totfact>
</mgrwt>
</event>
<event>
 6    1  0.5026615E-004  0.2296496E+04  0.7818608E-02  0.8479304E-01
          1   -1    0    0  501    0  0.00000000000E+00  0.00000000000E+00  0.68485574505E+03  0.68485574505E+03  0.00000000000E+00 0. -1.
         -1   -1    0    0    0  501 -0.00000000000E+00 -0.00000000000E+00 -0.19251834907E+04  0.19251834907E+04  0.00000000000E+00 0.  1.
         23    2    1    2    0    0 -0.70538959644E+03 -0.73962356745E+03 -0.30610545733E+02  0.10263621196E+04  0.88683092028E+02 0.  0.
         13    1    3    3    0    0 -0.36542210898E+03 -0.42979390933E+03 -0.47033116821E+02  0.56609914000E+03  0.00000000000E+00 0.  1.
        -13    1    3    3    0    0 -0.33996748746E+03 -0.30982965812E+03  0.16422571088E+02  0.46026297964E+03  0.00000000000E+00 0. -1.
         22    1    1    2    0    0  0.70538959644E+03  0.73962356745E+03 -0.12097171999E+04  0.15836771161E+04  0.00000000000E+00 0.  1.
<mgrwt>
<rscale>  0 0.22964956E+04</rscale>
<asrwt>0</asrwt>
<pdfrwt beam="1">  1        1 0.10536242E+00 0.22964956E+04</pdfrwt>
<pdfrwt beam="2">  1       -1 0.29618207E+00 0.22964956E+04</pdfrwt>
<totfact> 0.89048715E-01</totfact>
</mgrwt>
</event>
<event>
 6    1  0.5026615E-004  0.3867233E+04  0.7818608E-02  0.8031879E-01
          2   -1    0    0  501    0  0.00000000000E+00  0.00000000000E+00  0.14849697780E+04  0.14849697780E+04  0.00000000000E+00 0.  1.
         -2   -1    0    0    0  501 -0.00000000000E+00 -0.00000000000E+00 -0.25178113095E+04  0.25178113095E+04  0.00000000000E+00 0. -1.
         23    2    1    2    0    0  0.60083862131E+03  0.18101623086E+04 -0.19430348666E+03  0.19193126609E+04  0.91173532506E+02 0.  0.
         13    1    3    3    0    0  0.34335198364E+03  0.94956294684E+03 -0.65798345723E+02  0.10118743978E+04  0.00000000000E+00 0.  1.
        -13    1    3    3    0    0  0.25748663767E+03  0.86059936172E+03 -0.12850514093E+03  0.90743826304E+03  0.00000000000E+00 0. -1.
         22    1    1    2    0    0 -0.60083862131E+03 -0.18101623086E+04 -0.83853804485E+03  0.20834684266E+04  0.00000000000E+00 0.  1.
<mgrwt>
<rscale>  0 0.38672335E+04</rscale>
<asrwt>0</asrwt>
<pdfrwt beam="1">  1        2 0.22845689E+00 0.38672335E+04</pdfrwt>
<pdfrwt beam="2">  1       -2 0.38735558E+00 0.38672335E+04</pdfrwt>
<totfact> 0.92567956E-02</totfact>
</mgrwt>
</event>
<event>
 6    1  0.5026615E-004  0.2516894E+04  0.7818608E-02  0.8396992E-01
          2   -1    0    0  501    0  0.00000000000E+00  0.00000000000E+00  0.96924107039E+03  0.96924107039E+03  0.00000000000E+00 0.  1.
         -2   -1    0    0    0  501 -0.00000000000E+00 -0.00000000000E+00 -0.16339470671E+04  0.16339470671E+04  0.00000000000E+00 0. -1.
         23    2    1    2    0    0  0.87479138040E+03  0.14393178733E+02 -0.12659474676E+04  0.15416051549E+04  0.91958359843E+02 0.  0.
         11    1    3    3    0    0  0.60812708376E+03 -0.14495705530E+02 -0.81614603770E+03  0.10179012871E+04  0.00000000000E+00 0.  1.
        -11    1    3    3    0    0  0.26666429664E+03  0.28888884263E+02 -0.44980142990E+03  0.52370386773E+03  0.00000000000E+00 0. -1.
         22    1    1    2    0    0 -0.87479138040E+03 -0.14393178733E+02  0.60124147085E+03  0.10615829827E+04  0.00000000000E+00 0.  1.
<mgrwt>
<rscale>  0 0.25168938E+04</rscale>
<asrwt>0</asrwt>
<pdfrwt beam="1">  1        2 0.14911401E+00 0.25168938E+04</pdfrwt>
<pdfrwt beam="2">  1       -2 0.25137647E+00 0.25168938E+04</pdfrwt>
<totfact> 0.14800556E+00</totfact>
</mgrwt>
</event>
<event>
 6    1  0.5026615E-004  0.9542894E+03  0.7818608E-02  0.9360151E-01
          2   -1    0    0  501    0  0.00000000000E+00  0.00000000000E+00  0.27191967430E+04  0.27191967430E+04  0.00000000000E+00 0.  1.
         -2   -1    0    0    0  501 -0.00000000000E+00 -0.00000000000E+00 -0.83725859744E+02  0.83725859744E+02  0.00000000000E+00 0. -1.
         23    2    1    2    0    0  0.28261588330E+03 -0.34979181689E+03  0.17591286461E+04  0.18179343951E+04  0.90143322308E+02 0.  0.
         13    1    3    3    0    0  0.24089238616E+03 -0.29637824328E+03  0.13402072037E+04  0.13935654106E+04  0.00000000000E+00 0. -1.
        -13    1    3    3    0    0  0.41723497142E+02 -0.53413573607E+02  0.41892144247E+03  0.42436898451E+03  0.00000000000E+00 0.  1.
         22    1    1    2    0    0 -0.28261588330E+03  0.34979181689E+03  0.87634223716E+03  0.98498820769E+03  0.00000000000E+00 0. -1.
<mgrwt>
<rscale>  0 0.95428944E+03</rscale>
<asrwt>0</asrwt>
<pdfrwt beam="1">  1        2 0.41833789E+00 0.95428944E+03</pdfrwt>
<pdfrwt beam="2">  1       -2 0.12880904E-01 0.95428944E+03</pdfrwt>
<totfact> 0.11972527E+02</totfact>
</mgrwt>
</event>
<event>
 6    1  0.5026615E-004  0.1440152E+04  0.7818608E-02  0.8925256E-01
         -1   -1    0    0    0  501 -0.00000000000E+00  0.00000000000E+00  0.25700285379E+03  0.25700285379E+03  0.00000000000E+00 0.  1.
          1   -1    0    0  501    0  0.00000000000E+00 -0.00000000000E+00 -0.20175244475E+04  0.20175244475E+04  0.00000000000E+00 0. -1.
         23    2    1    2    0    0  0.26798967670E+03 -0.46594046043E+03 -0.13654670540E+03  0.56390945461E+03  0.10212683666E+03 0.  0.
         13    1    3    3    0    0  0.67684292463E+02 -0.71666145783E+02  0.73500653055E+01  0.98849498520E+02  0.00000000000E+00 0. -1.
        -13    1    3    3    0    0  0.20030538423E+03 -0.39427431465E+03 -0.14389677070E+03  0.46505995609E+03  0.00000000000E+00 0.  1.
         22    1    1    2    0    0 -0.26798967670E+03  0.46594046043E+03 -0.16239748883E+04  0.17106178467E+04  0.00000000000E+00 0. -1.
<mgrwt>
<rscale>  0 0.14401521E+04</rscale>
<asrwt>0</asrwt>
<pdfrwt beam="1">  1        1 0.31038838E+00 0.14401521E+04</pdfrwt>
<pdfrwt beam="2">  1       -1 0.39538900E-01 0.14401521E+04</pdfrwt>
<totfact> 0.17549226E+01</totfact>
</mgrwt>
</event>
<event>
 6    1  0.5026615E-004  0.2341048E+04  0.7818608E-02  0.8461910E-01
          2   -1    0    0  501    0  0.00000000000E+00  0.00000000000E+00  0.45345589731E+04  0.45345589731E+04  0.00000000000E+00 0.  1.
         -2   -1    0    0    0  501 -0.00000000000E+00 -0.00000000000E+00 -0.30215220401E+03  0.30215220401E+03  0.00000000000E+00 0. -1.
         23    2    1    2    0    0 -0.19125679001E+03  0.78699846211E+03  0.37886242264E+03  0.89897708640E+03  0.93152173818E+02 0.  0.
         13    1    3    3    0    0 -0.10609664845E+03  0.33964125126E+03  0.21069635838E+03  0.41352827449E+03  0.00000000000E+00 0.  1.
        -13    1    3    3    0    0 -0.85160141562E+02  0.44735721085E+03  0.16816606426E+03  0.48544881191E+03  0.00000000000E+00 0. -1.
         22    1    1    2    0    0  0.19125679001E+03 -0.78699846211E+03  0.38535443465E+04  0.39377340907E+04  0.00000000000E+00 0.  1.
<mgrwt>
<rscale>  0 0.23410485E+04</rscale>
<asrwt>0</asrwt>
<pdfrwt beam="1">  1        2 0.69762441E+00 0.23410485E+04</pdfrwt>
<pdfrwt beam="2">  1       -2 0.46484958E-01 0.23410485E+04</pdfrwt>
<totfact> 0.45518051E-01</totfact>
</mgrwt>
</event>
<event>
 6    1  0.5026615E-004  0.3375649E+04  0.7818608E-02  0.8143909E-01
          2   -1    0    0  501    0  0.00000000000E+00  0.00000000000E+00  0.15309981938E+04  0.15309981938E+04  0.00000000000E+00 0.  1.
         -2   -1    0    0    0  501 -0.00000000000E+00 -0.00000000000E+00 -0.18607155315E+04  0.18607155315E+04  0.00000000000E+00 0. -1.
         23    2    1    2    0    0  0.77606414615E+03  0.12074243785E+04 -0.10548679533E+04  0.17836115506E+04  0.91512709913E+02 0.  0.
         13    1    3    3    0    0  0.53156444081E+03  0.75639055965E+03 -0.65155805070E+03  0.11310240169E+04  0.00000000000E+00 0.  1.
        -13    1    3    3    0    0  0.24449970534E+03  0.45103381883E+03 -0.40330990255E+03  0.65258753370E+03  0.00000000000E+00 0. -1.
         22    1    1    2    0    0 -0.77606414615E+03 -0.12074243785E+04  0.72515061556E+03  0.16081021746E+04  0.00000000000E+00 0.  1.
<mgrwt>
<rscale>  0 0.33756493E+04</rscale>
<asrwt>0</asrwt>
<pdfrwt beam="1">  1        2 0.23553818E+00 0.33756493E+04</pdfrwt>
<pdfrwt beam="2">  1       -2 0.28626393E+00 0.33756493E+04</pdfrwt>
<totfact> 0.39028334E-01</totfact>
</mgrwt>
</event>
<event>
 6    1  0.5026615E-004  0.3513834E+04  0.7818608E-02  0.8110519E-01
          2   -1    0    0  501    0  0.00000000000E+00  0.00000000000E+00  0.15950019200E+04  0.15950019200E+04  0.00000000000E+00 0.  1.
         -2   -1    0    0    0  501 -0.00000000000E+00 -0.00000000000E+00 -0.19352692803E+04  0.19352692803E+04  0.00000000000E+00 0. -1.
         23    2    1    2    0    0 -0.13405447573E+04 -0.26331142133E+03 -0.12782196459E+04  0.18731207422E+04  0.91338386296E+02 0.  0.
         13    1    3    3    0    0 -0.50360299861E+03 -0.12837161989E+03 -0.53218049084E+03  0.74384899532E+03  0.00000000000E+00 0.  1.
        -13    1    3    3    0    0 -0.83694175871E+03 -0.13493980145E+03 -0.74603915502E+03  0.11292717469E+04  0.00000000000E+00 0. -1.
         22    1    1    2    0    0  0.13405447573E+04  0.26331142133E+03  0.93795228553E+03  0.16571504581E+04  0.00000000000E+00 0.  1.
<mgrwt>
<rscale>  0 0.35138345E+04</rscale>
<asrwt>0</asrwt>
<pdfrwt beam="1">  1        2 0.24538491E+00 0.35138345E+04</pdfrwt>
<pdfrwt beam="2">  1       -2 0.29773374E+00 0.35138345E+04</pdfrwt>
<totfact> 0.30228534E-01</totfact>
</mgrwt>
</event>
<event>
 6    1  0.5026615E-004  0.1708226E+04  0.7818608E-02  0.8756687E-01
          2   -1    0    0  501    0  0.00000000000E+00  0.00000000000E+00  0.19646274133E+04  0.19646274133E+04  0.00000000000E+00 0.  1.
         -2   -1    0    0    0  501 -0.00000000000E+00 -0.00000000000E+00 -0.37132189915E+03  0.37132189915E+03  0.00000000000E+00 0. -1.
         23    2    1    2    0    0  0.33155282625E+03  0.31931295846E+03 -0.18104651195E+03  0.50286089272E+03  0.90571496072E+02 0.  0.
         13    1    3    3    0    0  0.34688931302E+02  0.76027801888E+02 -0.16115737205E+02  0.85107376886E+02  0.00000000000E+00 0. -1.
        -13    1    3    3    0    0  0.29686389495E+03  0.24328515658E+03 -0.16493077474E+03  0.41775351583E+03  0.00000000000E+00 0.  1.
         22    1    1    2    0    0 -0.33155282625E+03 -0.31931295846E+03  0.17743520261E+04  0.18330884198E+04  0.00000000000E+00 0.  1.
<mgrwt>
<rscale>  0 0.17082262E+04</rscale>
<asrwt>0</asrwt>
<pdfrwt beam="1">  1        2 0.30225037E+00 0.17082262E+04</pdfrwt>
<pdfrwt beam="2">  1       -2 0.57126447E-01 0.17082262E+04</pdfrwt>
<totfact> 0.19094074E+01</totfact>
</mgrwt>
</event>
<event>
 6    1  0.5026615E-004  0.1389466E+04  0.7818608E-02  0.8961479E-01
          2   -1    0    0  501    0  0.00000000000E+00  0.00000000000E+00  0.22151019478E+03  0.22151019478E+03  0.00000000000E+00 0.  1.
         -2   -1    0    0    0  501 -0.00000000000E+00 -0.00000000000E+00 -0.21789242048E+04  0.21789242048E+04  0.00000000000E+00 0. -1.
         23    2    1    2    0    0  0.40178630844E+03  0.37098863540E+03 -0.17145078073E+04  0.18020463745E+04  0.93644590401E+02 0.  0.
         13    1    3    3    0    0  0.22139808158E+03  0.14173732228E+03 -0.78657464329E+03  0.82934085183E+03  0.00000000000E+00 0. -1.
        -13    1    3    3    0    0  0.18038822687E+03  0.22925131311E+03 -0.92793316400E+03  0.97270552265E+03  0.00000000000E+00 0.  1.
         22    1    1    2    0    0 -0.40178630844E+03 -0.37098863540E+03 -0.24290620272E+03  0.59838802509E+03  0.00000000000E+00 0.  1.
<mgrwt>
<rscale>  0 0.13894660E+04</rscale>
<asrwt>0</asrwt>
<pdfrwt beam="1">  1        2 0.34078492E-01 0.13894660E+04</pdfrwt>
<pdfrwt beam="2">  1       -2 0.33521910E+00 0.13894660E+04</pdfrwt>
<totfact> 0.29160682E+00</totfact>
</mgrwt>
</event>
<event>
 6    1  0.5026615E-004  0.5736645E+03  0.7818608E-02  0.9961602E-01
         -2   -1    0    0    0  501 -0.00000000000E+00  0.00000000000E+00  0.23065464361E+03  0.23065464361E+03  0.00000000000E+00 0. -1.
          2   -1    0    0  501    0  0.00000000000E+00 -0.00000000000E+00 -0.35669226296E+03  0.35669226296E+03  0.00000000000E+00 0.  1.
         23    2    1    2    0    0  0.27626610536E+03  0.30893106243E+02 -0.92724843614E+02  0.30736996821E+03  0.92741876992E+02 0.  0.
         13    1    3    3    0    0  0.59994660791E+02 -0.66257027866E+01 -0.60597396673E+02  0.85529548954E+02  0.00000000000E+00 0.  1.
        -13    1    3    3    0    0  0.21627144457E+03  0.37518809029E+02 -0.32127446941E+02  0.22184041926E+03  0.00000000000E+00 0. -1.
         22    1    1    2    0    0 -0.27626610536E+03 -0.30893106243E+02 -0.33312775735E+02  0.27997693836E+03  0.00000000000E+00 0. -1.
<mgrwt>
<rscale>  0 0.57366446E+03</rscale>
<asrwt>0</asrwt>
<pdfrwt beam="1">  1        2 0.54875732E-01 0.57366446E+03</pdfrwt>
<pdfrwt beam="2">  1       -2 0.35485330E-01 0.57366446E+03</pdfrwt>
<totfact> 0.67899781E+02</totfact>
</mgrwt>
</event>
<event>
 6    1  0.5026615E-004  0.3210979E+04  0.7818608E-02  0.8185924E-01
          2   -1    0    0  501    0  0.00000000000E+00  0.00000000000E+00  0.14922691017E+04  0.14922691017E+04  0.00000000000E+00 0.  1.
         -2   -1    0    0    0  501 -0.00000000000E+00 -0.00000000000E+00 -0.17273000213E+04  0.17273000213E+04  0.00000000000E+00 0. -1.
         23    2    1    2    0    0  0.11369325289E+04 -0.11139779842E+04  0.82473660142E+02  0.15964943612E+04  0.91814030130E+02 0.  0.
         11    1    3    3    0    0  0.72403126736E+03 -0.76997129337E+03  0.58132514038E+02  0.10585161585E+04  0.00000000000E+00 0.  1.
        -11    1    3    3    0    0  0.41290126150E+03 -0.34400669083E+03  0.24341146104E+02  0.53797820261E+03  0.00000000000E+00 0. -1.
         22    1    1    2    0    0 -0.11369325289E+04  0.11139779842E+04 -0.31750457974E+03  0.16230747619E+04  0.00000000000E+00 0. -1.
<mgrwt>
<rscale>  0 0.32109789E+04</rscale>
<asrwt>0</asrwt>
<pdfrwt beam="1">  1        2 0.22957986E+00 0.32109789E+04</pdfrwt>
<pdfrwt beam="2">  1       -2 0.26573846E+00 0.32109789E+04</pdfrwt>
<totfact> 0.55514175E-01</totfact>
</mgrwt>
</event>
<event>
 6    1  0.5026615E-004  0.3440021E+04  0.7818608E-02  0.8128153E-01
          2   -1    0    0  501    0  0.00000000000E+00  0.00000000000E+00  0.11434450815E+04  0.11434450815E+04  0.00000000000E+00 0.  1.
         -2   -1    0    0    0  501 -0.00000000000E+00 -0.00000000000E+00 -0.25873011872E+04  0.25873011872E+04  0.00000000000E+00 0. -1.
         23    2    1    2    0    0  0.13092267883E+04 -0.10993790831E+04 -0.52987692454E+03  0.17921727996E+04  0.91676808198E+02 0.  0.
         11    1    3    3    0    0  0.68659709024E+03 -0.59561521641E+03 -0.23625297385E+03  0.93914243755E+03  0.00000000000E+00 0.  1.
        -11    1    3    3    0    0  0.62262969802E+03 -0.50376386666E+03 -0.29362395069E+03  0.85303036208E+03  0.00000000000E+00 0. -1.
         22    1    1    2    0    0 -0.13092267883E+04  0.10993790831E+04 -0.91397918122E+03  0.19385734691E+04  0.00000000000E+00 0.  1.
<mgrwt>
<rscale>  0 0.34400214E+04</rscale>
<asrwt>0</asrwt>
<pdfrwt beam="1">  1        2 0.17591463E+00 0.34400214E+04</pdfrwt>
<pdfrwt beam="2">  1       -2 0.39804633E+00 0.34400214E+04</pdfrwt>
<totfact> 0.12921684E-01</totfact>
</mgrwt>
</event>
<event>
 6    1  0.5026615E-004  0.2162071E+04  0.7818608E-02  0.8534383E-01
         -2   -1    0    0    0  501 -0.00000000000E+00  0.00000000000E+00  0.67605044953E+03  0.67605044953E+03  0.00000000000E+00 0. -1.
          2   -1    0    0  501    0  0.00000000000E+00 -0.00000000000E+00 -0.17286256078E+04  0.17286256078E+04  0.00000000000E+00 0.  1.
         23    2    1    2    0    0 -0.29422094299E+01  0.10472632964E+04 -0.23825688723E+03  0.10780701192E+04  0.93272552208E+02 0.  0.
         13    1    3    3    0    0  0.44763571099E+02  0.57187050429E+03 -0.13261133261E+03  0.58874902676E+03  0.00000000000E+00 0. -1.
        -13    1    3    3    0    0 -0.47705780529E+02  0.47539279210E+03 -0.10564555461E+03  0.48932109242E+03  0.00000000000E+00 0.  1.
         22    1    1    2    0    0  0.29422094299E+01 -0.10472632964E+04 -0.81431827105E+03  0.13266059382E+04  0.00000000000E+00 0.  1.
<mgrwt>
<rscale>  0 0.21620713E+04</rscale>
<asrwt>0</asrwt>
<pdfrwt beam="1">  1        2 0.26594240E+00 0.21620713E+04</pdfrwt>
<pdfrwt beam="2">  1       -2 0.10400776E+00 0.21620713E+04</pdfrwt>
<totfact> 0.65189293E+00</totfact>
</mgrwt>
</event>
<event>
 6    1  0.5026615E-004  0.6726966E+04  0.7818608E-02  0.7606268E-01
         -2   -1    0    0    0  501 -0.00000000000E+00  0.00000000000E+00  0.20736346700E+04  0.20736346700E+04  0.00000000000E+00 0. -1.
          2   -1    0    0  501    0  0.00000000000E+00 -0.00000000000E+00 -0.54556465128E+04  0.54556465128E+04  0.00000000000E+00 0.  1.
         23    2    1    2    0    0  0.60525596852E+03  0.21968257436E+04  0.10768128731E+04  0.25219369783E+04  0.90895676419E+02 0.  0.
         11    1    3    3    0    0  0.46705858265E+03  0.16402136097E+04  0.84598443871E+03  0.19037158600E+04  0.00000000000E+00 0. -1.
        -11    1    3    3    0    0  0.13819738588E+03  0.55661213390E+03  0.23082843435E+03  0.61822111834E+03  0.00000000000E+00 0.  1.
         22    1    1    2    0    0 -0.60525596852E+03 -0.21968257436E+04 -0.44588247159E+04  0.50073442045E+04  0.00000000000E+00 0.  1.
<mgrwt>
<rscale>  0 0.67269660E+04</rscale>
<asrwt>0</asrwt>
<pdfrwt beam="1">  1        2 0.83933022E+00 0.67269660E+04</pdfrwt>
<pdfrwt beam="2">  1       -2 0.31902072E+00 0.67269660E+04</pdfrwt>
<totfact> 0.10695433E-04</totfact>
</mgrwt>
</event>
<event>
 6    1  0.5026615E-004  0.9121448E+03  0.7818608E-02  0.9410526E-01
         -2   -1    0    0    0  501 -0.00000000000E+00  0.00000000000E+00  0.86612314092E+02  0.86612314092E+02  0.00000000000E+00 0. -1.
          2   -1    0    0  501    0  0.00000000000E+00 -0.00000000000E+00 -0.24015294224E+04  0.24015294224E+04  0.00000000000E+00 0.  1.
         23    2    1    2    0    0  0.44800733572E+03 -0.51641269442E+02 -0.12313193387E+04  0.13144460690E+04  0.90795159106E+02 0.  0.
         11    1    3    3    0    0  0.15585129092E+03  0.94160662793E-01 -0.31792254205E+03  0.35406832178E+03  0.00000000000E+00 0. -1.
        -11    1    3    3    0    0  0.29215604480E+03 -0.51735430105E+02 -0.91339679660E+03  0.96037774718E+03  0.00000000000E+00 0.  1.
         22    1    1    2    0    0 -0.44800733572E+03  0.51641269442E+02 -0.10835977697E+04  0.11736956675E+04  0.00000000000E+00 0. -1.
<mgrwt>
<rscale>  0 0.91214477E+03</rscale>
<asrwt>0</asrwt>
<pdfrwt beam="1">  1        2 0.36946606E+00 0.91214477E+03</pdfrwt>
<pdfrwt beam="2">  1       -2 0.13324972E-01 0.91214477E+03</pdfrwt>
<totfact> 0.17293683E+02</totfact>
</mgrwt>
</event>
<event>
 6    1  0.5026615E-004  0.3626650E+04  0.7818608E-02  0.8084414E-01
         -2   -1    0    0    0  501 -0.00000000000E+00  0.00000000000E+00  0.13167878294E+04  0.13167878294E+04  0.00000000000E+00 0. -1.
          2   -1    0    0  501    0  0.00000000000E+00 -0.00000000000E+00 -0.24970969449E+04  0.24970969449E+04  0.00000000000E+00 0.  1.
         23    2    1    2    0    0  0.88023542972E+02 -0.42500967670E+03  0.12599515436E+04  0.13353260290E+04  0.85066692539E+02 0.  0.
         13    1    3    3    0    0  0.86612509686E+02 -0.26240776957E+03  0.86995575872E+03  0.91278835799E+03  0.00000000000E+00 0.  1.
        -13    1    3    3    0    0  0.14110332853E+01 -0.16260190713E+03  0.38999578485E+03  0.42253767100E+03  0.00000000000E+00 0. -1.
         22    1    1    2    0    0 -0.88023542972E+02  0.42500967670E+03 -0.24402606591E+04  0.24785587453E+04  0.00000000000E+00 0.  1.
<mgrwt>
<rscale>  0 0.36266496E+04</rscale>
<asrwt>0</asrwt>
<pdfrwt beam="1">  1        2 0.38416876E+00 0.36266496E+04</pdfrwt>
<pdfrwt beam="2">  1       -2 0.20258274E+00 0.36266496E+04</pdfrwt>
<totfact> 0.36351640E-01</totfact>
</mgrwt>
</event>
<event>
 6    1  0.5026615E-004  0.1968972E+04  0.7818608E-02  0.8621266E-01
         -2   -1    0    0    0  501 -0.00000000000E+00  0.00000000000E+00  0.12926390954E+04  0.12926390954E+04  0.00000000000E+00 0. -1.
          2   -1    0    0  501    0  0.00000000000E+00 -0.00000000000E+00 -0.74979393513E+03  0.74979393513E+03  0.00000000000E+00 0.  1.
         23    2    1    2    0    0 -0.31352106984E+03  0.59771848200E+03 -0.46841560096E+03  0.82661595048E+03  0.91202573510E+02 0.  0.
         11    1    3    3    0    0 -0.92098129594E+02  0.10412842069E+03 -0.11511104270E+03  0.18048641395E+03  0.00000000000E+00 0.  1.
        -11    1    3    3    0    0 -0.22142294024E+03  0.49359006131E+03 -0.35330455826E+03  0.64612953653E+03  0.00000000000E+00 0. -1.
         22    1    1    2    0    0  0.31352106984E+03 -0.59771848200E+03  0.10112607613E+04  0.12158170801E+04  0.00000000000E+00 0. -1.
<mgrwt>
<rscale>  0 0.19689723E+04</rscale>
<asrwt>0</asrwt>
<pdfrwt beam="1">  1        2 0.11535291E+00 0.19689723E+04</pdfrwt>
<pdfrwt beam="2">  1       -2 0.19886755E+00 0.19689723E+04</pdfrwt>
<totfact> 0.47245805E+00</totfact>
</mgrwt>
</event>
<event>
 6    1  0.5026615E-004  0.2406498E+04  0.7818608E-02  0.8437075E-01
          2   -1    0    0  501    0  0.00000000000E+00  0.00000000000E+00  0.18655754716E+04  0.18655754716E+04  0.00000000000E+00 0.  1.
         -2   -1    0    0    0  501 -0.00000000000E+00 -0.00000000000E+00 -0.77606498145E+03  0.77606498145E+03  0.00000000000E+00 0. -1.
         23    2    1    2    0    0  0.53491988310E+03  0.64327791036E+03 -0.40130213017E+03  0.93211770674E+03  0.88624309515E+02 0.  0.
         13    1    3    3    0    0  0.17986751299E+03  0.18443619010E+03 -0.84732700560E+02  0.27119856377E+03  0.00000000000E+00 0. -1.
        -13    1    3    3    0    0  0.35505237011E+03  0.45884172026E+03 -0.31656942961E+03  0.66091914296E+03  0.00000000000E+00 0.  1.
         22    1    1    2    0    0 -0.53491988310E+03 -0.64327791036E+03  0.14908126203E+04  0.17095227463E+04  0.00000000000E+00 0.  1.
<mgrwt>
<rscale>  0 0.24064977E+04</rscale>
<asrwt>0</asrwt>
<pdfrwt beam="1">  1        2 0.28701161E+00 0.24064977E+04</pdfrwt>
<pdfrwt beam="2">  1       -2 0.11939461E+00 0.24064977E+04</pdfrwt>
<totfact> 0.38350532E+00</totfact>
</mgrwt>
</event>
<event>
 6    1  0.5026615E-004  0.5007199E+04  0.7818608E-02  0.7827398E-01
         -3   -1    0    0    0  501 -0.00000000000E+00  0.00000000000E+00  0.15733562865E+04  0.15733562865E+04  0.00000000000E+00 0. -1.
          3   -1    0    0  501    0  0.00000000000E+00 -0.00000000000E+00 -0.39838465158E+04  0.39838465158E+04  0.00000000000E+00 0.  1.
         23    2    1    2    0    0  0.20617859127E+04  0.17368353553E+03  0.35716583014E+03  0.21016207698E+04  0.90085013383E+02 0.  0.
         11    1    3    3    0    0  0.16287070483E+04  0.17246430750E+03  0.27198978398E+03  0.16602436655E+04  0.00000000000E+00 0.  1.
        -11    1    3    3    0    0  0.43307886442E+03  0.12192280312E+01  0.85176046163E+02  0.44137710426E+03  0.00000000000E+00 0. -1.
         22    1    1    2    0    0 -0.20617859127E+04 -0.17368353553E+03 -0.27676560594E+04  0.34555820325E+04  0.00000000000E+00 0.  1.
<mgrwt>
<rscale>  0 0.50071988E+04</rscale>
<asrwt>0</asrwt>
<pdfrwt beam="1">  1        3 0.61289945E+00 0.50071988E+04</pdfrwt>
<pdfrwt beam="2">  1       -3 0.24205482E+00 0.50071988E+04</pdfrwt>
<totfact> 0.14809797E-04</totfact>
</mgrwt>
</event>
<event>
 6    1  0.5026615E-004  0.2830471E+04  0.7818608E-02  0.8293870E-01
          2   -1    0    0  501    0  0.00000000000E+00  0.00000000000E+00  0.12753334581E+04  0.12753334581E+04  0.00000000000E+00 0.  1.
         -2   -1    0    0    0  501 -0.00000000000E+00 -0.00000000000E+00 -0.15704843742E+04  0.15704843742E+04  0.00000000000E+00 0. -1.
         23    2    1    2    0    0  0.62477271438E+03  0.11969757719E+04  0.27383875738E+03  0.13806075430E+04  0.89429188163E+02 0.  0.
         13    1    3    3    0    0  0.23119767289E+03  0.39516878956E+03  0.56101645046E+02  0.46125712002E+03  0.00000000000E+00 0.  1.
        -13    1    3    3    0    0  0.39357504149E+03  0.80180698234E+03  0.21773711233E+03  0.91935042301E+03  0.00000000000E+00 0. -1.
         22    1    1    2    0    0 -0.62477271438E+03 -0.11969757719E+04 -0.56898967349E+03  0.14652102892E+04  0.00000000000E+00 0. -1.
<mgrwt>
<rscale>  0 0.28304708E+04</rscale>
<asrwt>0</asrwt>
<pdfrwt beam="1">  1        2 0.19620515E+00 0.28304708E+04</pdfrwt>
<pdfrwt beam="2">  1       -2 0.24161298E+00 0.28304708E+04</pdfrwt>
<totfact> 0.10738819E+00</totfact>
</mgrwt>
</event>
<event>
 6    1  0.5026615E-004  0.7575169E+03  0.7818608E-02  0.9623631E-01
         -2   -1    0    0    0  501 -0.00000000000E+00  0.00000000000E+00  0.20770998019E+03  0.20770998019E+03  0.00000000000E+00 0. -1.
          2   -1    0    0  501    0  0.00000000000E+00 -0.00000000000E+00 -0.69066481539E+03  0.69066481539E+03  0.00000000000E+00 0.  1.
         23    2    1    2    0    0  0.38180187215E+02  0.97259590557E+02 -0.67015864334E+03  0.68398631540E+03  0.88360159292E+02 0.  0.
         13    1    3    3    0    0  0.64015801812E+02  0.45448541196E+02 -0.35848072729E+03  0.36697687204E+03  0.00000000000E+00 0.  1.
        -13    1    3    3    0    0 -0.25835614597E+02  0.51811049362E+02 -0.31167791606E+03  0.31700944335E+03  0.00000000000E+00 0. -1.
         22    1    1    2    0    0 -0.38180187215E+02 -0.97259590557E+02  0.18720380814E+03  0.21438848018E+03  0.00000000000E+00 0. -1.
<mgrwt>
<rscale>  0 0.75751693E+03</rscale>
<asrwt>0</asrwt>
<pdfrwt beam="1">  1        2 0.10625613E+00 0.75751693E+03</pdfrwt>
<pdfrwt beam="2">  1       -2 0.31955381E-01 0.75751693E+03</pdfrwt>
<totfact> 0.38170687E+02</totfact>
</mgrwt>
</event>
<event>
 6    1  0.5026615E-004  0.1480423E+04  0.7818608E-02  0.8897577E-01
          1   -1    0    0  501    0  0.00000000000E+00  0.00000000000E+00  0.13860870450E+04  0.13860870450E+04  0.00000000000E+00 0.  1.
         -1   -1    0    0    0  501 -0.00000000000E+00 -0.00000000000E+00 -0.39529472316E+03  0.39529472316E+03  0.00000000000E+00 0. -1.
         23    2    1    2    0    0  0.10307299446E+03  0.42763612519E+03 -0.21461577543E+03  0.49821951081E+03  0.93091632961E+02 0.  0.
         11    1    3    3    0    0  0.36949976917E+02  0.16371063332E+03 -0.13306184833E+03  0.21417732779E+03  0.00000000000E+00 0.  1.
        -11    1    3    3    0    0  0.66123017548E+02  0.26392549187E+03 -0.81553927095E+02  0.28404218302E+03  0.00000000000E+00 0. -1.
         22    1    1    2    0    0 -0.10307299446E+03 -0.42763612519E+03  0.12054080972E+04  0.12831622573E+04  0.00000000000E+00 0.  1.
<mgrwt>
<rscale>  0 0.14804228E+04</rscale>
<asrwt>0</asrwt>
<pdfrwt beam="1">  1        1 0.21324416E+00 0.14804228E+04</pdfrwt>
<pdfrwt beam="2">  1       -1 0.60814573E-01 0.14804228E+04</pdfrwt>
<totfact> 0.20875930E+01</totfact>
</mgrwt>
</event>
<event>
 6    1  0.5026615E-004  0.9575979E+03  0.7818608E-02  0.9356314E-01
          2   -1    0    0  501    0  0.00000000000E+00  0.00000000000E+00  0.68564180507E+03  0.68564180507E+03  0.00000000000E+00 0.  1.
         -2   -1    0    0    0  501 -0.00000000000E+00 -0.00000000000E+00 -0.33435594194E+03  0.33435594194E+03  0.00000000000E+00 0. -1.
         23    2    1    2    0    0  0.41431507104E+03  0.29216481114E+02 -0.66654000329E+02  0.43077426621E+03  0.92806959921E+02 0.  0.
         13    1    3    3    0    0  0.20968530986E+03 -0.15348073777E+02  0.23913622174E+01  0.21025986577E+03  0.00000000000E+00 0.  1.
        -13    1    3    3    0    0  0.20462976118E+03  0.44564554891E+02 -0.69045362546E+02  0.22051440045E+03  0.00000000000E+00 0. -1.
         22    1    1    2    0    0 -0.41431507104E+03 -0.29216481114E+02  0.41793986346E+03  0.58922348080E+03  0.00000000000E+00 0.  1.
<mgrwt>
<rscale>  0 0.95759785E+03</rscale>
<asrwt>0</asrwt>
<pdfrwt beam="1">  1        2 0.10548335E+00 0.95759785E+03</pdfrwt>
<pdfrwt beam="2">  1       -2 0.51439376E-01 0.95759785E+03</pdfrwt>
<totfact> 0.15028463E+02</totfact>
</mgrwt>
</event>
<event>
 6    1  0.5026615E-004  0.1542404E+04  0.7818608E-02  0.8856734E-01
          2   -1    0    0  501    0  0.00000000000E+00  0.00000000000E+00  0.13528498967E+04  0.13528498967E+04  0.00000000000E+00 0.  1.
         -2   -1    0    0    0  501 -0.00000000000E+00 -0.00000000000E+00 -0.43962922425E+03  0.43962922425E+03  0.00000000000E+00 0. -1.
         23    2    1    2    0    0  0.71887007966E+03 -0.26336940662E+03  0.38270341296E+03  0.86103604787E+03  0.93720529565E+02 0.  0.
         13    1    3    3    0    0  0.32275738791E+03 -0.15183142668E+03  0.21631782593E+03  0.41715526533E+03  0.00000000000E+00 0. -1.
        -13    1    3    3    0    0  0.39611269175E+03 -0.11153797994E+03  0.16638558704E+03  0.44388078254E+03  0.00000000000E+00 0.  1.
         22    1    1    2    0    0 -0.71887007966E+03  0.26336940662E+03  0.53051725949E+03  0.93144307308E+03  0.00000000000E+00 0.  1.
<mgrwt>
<rscale>  0 0.15424038E+04</rscale>
<asrwt>0</asrwt>
<pdfrwt beam="1">  1        2 0.20813075E+00 0.15424038E+04</pdfrwt>
<pdfrwt beam="2">  1       -2 0.67635266E-01 0.15424038E+04</pdfrwt>
<totfact> 0.29721054E+01</totfact>
</mgrwt>
</event>
<event>
 6    1  0.5026615E-004  0.1655782E+04  0.7818608E-02  0.8786993E-01
         -2   -1    0    0    0  501 -0.00000000000E+00  0.00000000000E+00  0.36332610968E+03  0.36332610968E+03  0.00000000000E+00 0. -1.
          2   -1    0    0  501    0  0.00000000000E+00 -0.00000000000E+00 -0.18864688734E+04  0.18864688734E+04  0.00000000000E+00 0.  1.
         23    2    1    2    0    0 -0.49101862834E+03 -0.10913083988E+03 -0.16530794601E+04  0.17302833098E+04  0.90552732596E+02 0.  0.
         13    1    3    3    0    0 -0.19099578843E+03 -0.88005881327E+02 -0.68849839332E+03  0.71989892621E+03  0.00000000000E+00 0. -1.
        -13    1    3    3    0    0 -0.30002283991E+03 -0.21124958556E+02 -0.96458106675E+03  0.10103843836E+04  0.00000000000E+00 0.  1.
         22    1    1    2    0    0  0.49101862834E+03  0.10913083988E+03  0.12993669634E+03  0.51951167325E+03  0.00000000000E+00 0. -1.
<mgrwt>
<rscale>  0 0.16557819E+04</rscale>
<asrwt>0</asrwt>
<pdfrwt beam="1">  1        2 0.29022598E+00 0.16557819E+04</pdfrwt>
<pdfrwt beam="2">  1       -2 0.55896325E-01 0.16557819E+04</pdfrwt>
<totfact> 0.22174601E+01</totfact>
</mgrwt>
</event>
<event>
 6    1  0.5026615E-004  0.2341792E+04  0.7818608E-02  0.8461623E-01
         -2   -1    0    0    0  501 -0.00000000000E+00  0.00000000000E+00  0.41413526854E+03  0.41413526854E+03  0.00000000000E+00 0. -1.
          2   -1    0    0  501    0  0.00000000000E+00 -0.00000000000E+00 -0.33105061719E+04  0.33105061719E+04  0.00000000000E+00 0.  1.
         23    2    1    2    0    0 -0.64488067348E+03  0.54450050476E+03 -0.16279597470E+03  0.86373532990E+03  0.84760297399E+02 0.  0.
         11    1    3    3    0    0 -0.29450997993E+03  0.23113635975E+03 -0.31607110834E+02  0.37571153101E+03  0.00000000000E+00 0. -1.
        -11    1    3    3    0    0 -0.35037069355E+03  0.31336414501E+03 -0.13118886386E+03  0.48802379889E+03  0.00000000000E+00 0.  1.
         22    1    1    2    0    0  0.64488067348E+03 -0.54450050476E+03 -0.27335749286E+04  0.28609061105E+04  0.00000000000E+00 0.  1.
<mgrwt>
<rscale>  0 0.23417919E+04</rscale>
<asrwt>0</asrwt>
<pdfrwt beam="1">  1        2 0.50930865E+00 0.23417919E+04</pdfrwt>
<pdfrwt beam="2">  1       -2 0.63713117E-01 0.23417919E+04</pdfrwt>
<totfact> 0.22603506E+00</totfact>
</mgrwt>
</event>
<event>
 6    1  0.5026615E-004  0.5308462E+04  0.7818608E-02  0.7782609E-01
          2   -1    0    0  501    0  0.00000000000E+00  0.00000000000E+00  0.42603978047E+04  0.42603978047E+04  0.00000000000E+00 0.  1.
         -2   -1    0    0    0  501 -0.00000000000E+00 -0.00000000000E+00 -0.16535878150E+04  0.16535878150E+04  0.00000000000E+00 0. -1.
         23    2    1    2    0    0 -0.21753387406E+04 -0.89870682011E+03  0.26684865508E+04  0.35595055108E+04  0.97398280727E+02 0.  0.
         13    1    3    3    0    0 -0.70691124410E+03 -0.33712692952E+03  0.91649097422E+03  0.12055429397E+04  0.00000000000E+00 0.  1.
        -13    1    3    3    0    0 -0.14684274965E+04 -0.56157989059E+03  0.17519955765E+04  0.23539625711E+04  0.00000000000E+00 0. -1.
         22    1    1    2    0    0  0.21753387406E+04  0.89870682011E+03 -0.61676561013E+02  0.23544801089E+04  0.00000000000E+00 0. -1.
<mgrwt>
<rscale>  0 0.53084619E+04</rscale>
<asrwt>0</asrwt>
<pdfrwt beam="1">  1        2 0.65544581E+00 0.53084619E+04</pdfrwt>
<pdfrwt beam="2">  1       -2 0.25439813E+00 0.53084619E+04</pdfrwt>
<totfact> 0.87639874E-03</totfact>
</mgrwt>
</event>
<event>
 6    1  0.5026615E-004  0.1333639E+04  0.7818608E-02  0.9003307E-01
          2   -1    0    0  501    0  0.00000000000E+00  0.00000000000E+00  0.18620329015E+04  0.18620329015E+04  0.00000000000E+00 0.  1.
         -2   -1    0    0    0  501 -0.00000000000E+00 -0.00000000000E+00 -0.23879714137E+03  0.23879714137E+03  0.00000000000E+00 0. -1.
         23    2    1    2    0    0 -0.10453682427E+03  0.61966479367E+03  0.48027398367E+03  0.79650108643E+03  0.94013175389E+02 0.  0.
         13    1    3    3    0    0 -0.15888301731E+02  0.16316019049E+03  0.77658645080E+02  0.18139611641E+03  0.00000000000E+00 0. -1.
        -13    1    3    3    0    0 -0.88648522543E+02  0.45650460318E+03  0.40261533859E+03  0.61510497002E+03  0.00000000000E+00 0.  1.
         22    1    1    2    0    0  0.10453682427E+03 -0.61966479367E+03  0.11429617765E+04  0.13043289565E+04  0.00000000000E+00 0.  1.
<mgrwt>
<rscale>  0 0.13336388E+04</rscale>
<asrwt>0</asrwt>
<pdfrwt beam="1">  1        2 0.28646659E+00 0.13336388E+04</pdfrwt>
<pdfrwt beam="2">  1       -2 0.36738023E-01 0.13336388E+04</pdfrwt>
<totfact> 0.54413479E+01</totfact>
</mgrwt>
</event>
<event>
 6    1  0.5026615E-004  0.2855985E+04  0.7818608E-02  0.8286095E-01
         -2   -1    0    0    0  501 -0.00000000000E+00  0.00000000000E+00  0.63580946480E+03  0.63580946480E+03  0.00000000000E+00 0.  1.
          2   -1    0    0  501    0  0.00000000000E+00 -0.00000000000E+00 -0.32071919103E+04  0.32071919103E+04  0.00000000000E+00 0. -1.
         23    2    1    2    0    0 -0.85630615749E+03 -0.18659430661E+03  0.22756297844E+03  0.91005521863E+03  0.91312218155E+02 0.  0.
         11    1    3    3    0    0 -0.24856310720E+03 -0.87863036974E+02  0.41772149917E+02  0.26692404169E+03  0.00000000000E+00 0. -1.
        -11    1    3    3    0    0 -0.60774305029E+03 -0.98731269638E+02  0.18579082852E+03  0.64313117693E+03  0.00000000000E+00 0.  1.
         22    1    1    2    0    0  0.85630615749E+03  0.18659430661E+03 -0.27989454240E+04  0.29329461565E+04  0.00000000000E+00 0. -1.
<mgrwt>
<rscale>  0 0.28559853E+04</rscale>
<asrwt>0</asrwt>
<pdfrwt beam="1">  1        2 0.49341414E+00 0.28559853E+04</pdfrwt>
<pdfrwt beam="2">  1       -2 0.97816841E-01 0.28559853E+04</pdfrwt>
<totfact> 0.96647511E-01</totfact>
</mgrwt>
</event>
<event>
 6    1  0.5026615E-004  0.1912535E+04  0.7818608E-02  0.8648642E-01
          2   -1    0    0  501    0  0.00000000000E+00  0.00000000000E+00  0.17871925508E+04  0.17871925508E+04  0.00000000000E+00 0.  1.
         -2   -1    0    0    0  501 -0.00000000000E+00 -0.00000000000E+00 -0.51166720358E+03  0.51166720358E+03  0.00000000000E+00 0. -1.
         23    2    1    2    0    0 -0.92452988553E+03  0.78677879782E+02  0.36897212150E+03  0.10016379271E+04  0.78691757245E+02 0.  0.
         11    1    3    3    0    0 -0.44805084843E+03  0.77061406881E+02  0.17315069067E+03  0.48648657216E+03  0.00000000000E+00 0. -1.
        -11    1    3    3    0    0 -0.47647903710E+03  0.16164729012E+01  0.19582143083E+03  0.51515135499E+03  0.00000000000E+00 0.  1.
         22    1    1    2    0    0  0.92452988553E+03 -0.78677879782E+02  0.90655322577E+03  0.12972218273E+04  0.00000000000E+00 0.  1.
<mgrwt>
<rscale>  0 0.19125353E+04</rscale>
<asrwt>0</asrwt>
<pdfrwt beam="1">  1        2 0.27495270E+00 0.19125353E+04</pdfrwt>
<pdfrwt beam="2">  1       -2 0.78718033E-01 0.19125353E+04</pdfrwt>
<totfact> 0.11762349E+01</totfact>
</mgrwt>
</event>
<event>
 6    1  0.5026615E-004  0.1202527E+04  0.7818608E-02  0.9110648E-01
          2   -1    0    0  501    0  0.00000000000E+00  0.00000000000E+00  0.40909825371E+03  0.40909825371E+03  0.00000000000E+00 0.  1.
         -2   -1    0    0    0  501 -0.00000000000E+00 -0.00000000000E+00 -0.88369379290E+03  0.88369379290E+03  0.00000000000E+00 0. -1.
         23    2    1    2    0    0  0.14487320788E+03 -0.57165548632E+03 -0.13109960536E+03  0.61032029044E+03  0.86749691619E+02 0.  0.
         13    1    3    3    0    0  0.93400598544E+02 -0.25580441263E+03 -0.26346405145E+02  0.27359404671E+03  0.00000000000E+00 0. -1.
        -13    1    3    3    0    0  0.51472609334E+02 -0.31585107369E+03 -0.10475320022E+03  0.33672624373E+03  0.00000000000E+00 0.  1.
         22    1    1    2    0    0 -0.14487320788E+03  0.57165548632E+03 -0.34349593383E+03  0.68247175616E+03  0.00000000000E+00 0.  1.
<mgrwt>
<rscale>  0 0.12025267E+04</rscale>
<asrwt>0</asrwt>
<pdfrwt beam="1">  1        2 0.62938194E-01 0.12025267E+04</pdfrwt>
<pdfrwt beam="2">  1       -2 0.13595289E+00 0.12025267E+04</pdfrwt>
<totfact> 0.29610879E+01</totfact>
</mgrwt>
</event>
<event>
 6    1  0.5026615E-004  0.3395862E+04  0.7818608E-02  0.8138923E-01
          2   -1    0    0  501    0  0.00000000000E+00  0.00000000000E+00  0.22724440193E+04  0.22724440193E+04  0.00000000000E+00 0.  1.
         -2   -1    0    0    0  501 -0.00000000000E+00 -0.00000000000E+00 -0.12686647192E+04  0.12686647192E+04  0.00000000000E+00 0. -1.
         23    2    1    2    0    0 -0.39082862261E+03  0.11339977001E+04 -0.74914336707E+03  0.14170946912E+04  0.90795281995E+02 0.  0.
         13    1    3    3    0    0 -0.85271373486E+02  0.20399341282E+03 -0.17718561985E+03  0.28333595517E+03  0.00000000000E+00 0. -1.
        -13    1    3    3    0    0 -0.30555724912E+03  0.93000428731E+03 -0.57195774722E+03  0.11337587360E+04  0.00000000000E+00 0.  1.
         22    1    1    2    0    0  0.39082862261E+03 -0.11339977001E+04  0.17529226671E+04  0.21240140473E+04  0.00000000000E+00 0.  1.
<mgrwt>
<rscale>  0 0.33958619E+04</rscale>
<asrwt>0</asrwt>
<pdfrwt beam="1">  1        2 0.34960677E+00 0.33958619E+04</pdfrwt>
<pdfrwt beam="2">  1       -2 0.19517919E+00 0.33958619E+04</pdfrwt>
<totfact> 0.55742602E-01</totfact>
</mgrwt>
</event>
<event>
 6    1  0.5026615E-004  0.1512999E+04  0.7818608E-02  0.8875855E-01
         -2   -1    0    0    0  501 -0.00000000000E+00  0.00000000000E+00  0.48916844373E+03  0.48916844373E+03  0.00000000000E+00 0. -1.
          2   -1    0    0  501    0  0.00000000000E+00 -0.00000000000E+00 -0.11699266918E+04  0.11699266918E+04  0.00000000000E+00 0.  1.
         23    2    1    2    0    0 -0.94867941921E+02 -0.60812395411E+03  0.13619506588E+03  0.63624256203E+03  0.86260256247E+02 0.  0.
         11    1    3    3    0    0 -0.26865829290E+02 -0.41621437134E+03  0.10673018585E+03  0.43052004397E+03  0.00000000000E+00 0. -1.
        -11    1    3    3    0    0 -0.68002112631E+02 -0.19190958277E+03  0.29464880026E+02  0.20572251806E+03  0.00000000000E+00 0.  1.
         22    1    1    2    0    0  0.94867941921E+02  0.60812395411E+03 -0.81695331397E+03  0.10228525735E+04  0.00000000000E+00 0.  1.
<mgrwt>
<rscale>  0 0.15129986E+04</rscale>
<asrwt>0</asrwt>
<pdfrwt beam="1">  1        2 0.17998872E+00 0.15129986E+04</pdfrwt>
<pdfrwt beam="2">  1       -2 0.75256684E-01 0.15129986E+04</pdfrwt>
<totfact> 0.30208937E+01</totfact>
</mgrwt>
</event>
<event>
 6    1  0.5026615E-004  0.4037973E+04  0.7818608E-02  0.7996930E-01
         -2   -1    0    0    0  501 -0.00000000000E+00  0.00000000000E+00  0.10182052005E+04  0.10182052005E+04  0.00000000000E+00 0. -1.
          2   -1    0    0  501    0  0.00000000000E+00 -0.00000000000E+00 -0.40034240951E+04  0.40034240951E+04  0.00000000000E+00 0.  1.
         23    2    1    2    0    0 -0.12429633244E+04  0.13830654592E+04 -0.24682286742E+04  0.30915757268E+04  0.88655490090E+02 0.  0.
         13    1    3    3    0    0 -0.19608435442E+03  0.19999359917E+03 -0.32469880188E+03  0.42880744594E+03  0.00000000000E+00 0. -1.
        -13    1    3    3    0    0 -0.10468789699E+04  0.11830718600E+04 -0.21435298724E+04  0.26627682808E+04  0.00000000000E+00 0.  1.
         22    1    1    2    0    0  0.12429633244E+04 -0.13830654592E+04 -0.51699022037E+03  0.19300535687E+04  0.00000000000E+00 0. -1.
<mgrwt>
<rscale>  0 0.40379734E+04</rscale>
<asrwt>0</asrwt>
<pdfrwt beam="1">  1        2 0.61591141E+00 0.40379734E+04</pdfrwt>
<pdfrwt beam="2">  1       -2 0.15664695E+00 0.40379734E+04</pdfrwt>
<totfact> 0.71064831E-02</totfact>
</mgrwt>
</event>
<event>
 6    1  0.5026615E-004  0.2130737E+04  0.7818608E-02  0.8547823E-01
         -2   -1    0    0    0  501 -0.00000000000E+00  0.00000000000E+00  0.46798971807E+03  0.46798971807E+03  0.00000000000E+00 0. -1.
          2   -1    0    0  501    0  0.00000000000E+00 -0.00000000000E+00 -0.24252891100E+04  0.24252891100E+04  0.00000000000E+00 0.  1.
         23    2    1    2    0    0 -0.20885423427E+03  0.90463462304E+03 -0.27635233681E+03  0.97297497335E+03  0.91245779786E+02 0.  0.
         13    1    3    3    0    0 -0.19671853066E+03  0.68117176330E+03 -0.20385589270E+03  0.73773326915E+03  0.00000000000E+00 0. -1.
        -13    1    3    3    0    0 -0.12135703601E+02  0.22346285974E+03 -0.72496444104E+02  0.23524170420E+03  0.00000000000E+00 0.  1.
         22    1    1    2    0    0  0.20885423427E+03 -0.90463462304E+03 -0.16809470551E+04  0.19203038548E+04  0.00000000000E+00 0.  1.
<mgrwt>
<rscale>  0 0.21307373E+04</rscale>
<asrwt>0</asrwt>
<pdfrwt beam="1">  1        2 0.37312140E+00 0.21307373E+04</pdfrwt>
<pdfrwt beam="2">  1       -2 0.71998418E-01 0.21307373E+04</pdfrwt>
<totfact> 0.61773211E+00</totfact>
</mgrwt>
</event>
<event>
 6    1  0.5026615E-004  0.1412752E+04  0.7818608E-02  0.8944640E-01
         -2   -1    0    0    0  501 -0.00000000000E+00  0.00000000000E+00  0.58306095074E+03  0.58306095074E+03  0.00000000000E+00 0. -1.
          2   -1    0    0  501    0  0.00000000000E+00 -0.00000000000E+00 -0.85577140280E+03  0.85577140280E+03  0.00000000000E+00 0.  1.
         23    2    1    2    0    0 -0.11411849937E+02 -0.19385981491E+03 -0.82382694488E+03  0.85450261203E+03  0.11735425302E+03 0.  0.
         13    1    3    3    0    0  0.39229632194E+02 -0.11731552512E+03 -0.59945051602E+03  0.61208072804E+03  0.00000000000E+00 0. -1.
        -13    1    3    3    0    0 -0.50641482131E+02 -0.76544289791E+02 -0.22437642886E+03  0.24242188399E+03  0.00000000000E+00 0.  1.
         22    1    1    2    0    0  0.11411849937E+02  0.19385981491E+03  0.55111649282E+03  0.58432974151E+03  0.00000000000E+00 0. -1.
<mgrwt>
<rscale>  0 0.14127518E+04</rscale>
<asrwt>0</asrwt>
<pdfrwt beam="1">  1        2 0.13165714E+00 0.14127518E+04</pdfrwt>
<pdfrwt beam="2">  1       -2 0.89701685E-01 0.14127518E+04</pdfrwt>
<totfact> 0.32574245E+01</totfact>
</mgrwt>
</event>
<event>
 6    1  0.5026615E-004  0.2917871E+03  0.7818608E-02  0.1089420E+00
          2   -1    0    0  501    0  0.00000000000E+00  0.00000000000E+00  0.17573234814E+04  0.17573234814E+04  0.00000000000E+00 0.  1.
         -2   -1    0    0    0  501 -0.00000000000E+00 -0.00000000000E+00 -0.12112124868E+02  0.12112124868E+02  0.00000000000E+00 0. -1.
         23    2    1    2    0    0  0.12834824917E+03 -0.26691734020E+02  0.99737004169E+03  0.10101910120E+04  0.92483290120E+02 0.  0.
         13    1    3    3    0    0  0.30515403090E+02 -0.32975823033E+02  0.56787670289E+03  0.56965124806E+03  0.00000000000E+00 0.  1.
        -13    1    3    3    0    0  0.97832846075E+02  0.62840890131E+01  0.42949333880E+03  0.44053976395E+03  0.00000000000E+00 0. -1.
         22    1    1    2    0    0 -0.12834824917E+03  0.26691734020E+02  0.74784131483E+03  0.75924459425E+03  0.00000000000E+00 0.  1.
<mgrwt>
<rscale>  0 0.29178706E+03</rscale>
<asrwt>0</asrwt>
<pdfrwt beam="1">  1        2 0.27035726E+00 0.29178706E+03</pdfrwt>
<pdfrwt beam="2">  1       -2 0.18634052E-02 0.29178706E+03</pdfrwt>
<totfact> 0.85585943E+03</totfact>
</mgrwt>
</event>
<event>
 6    1  0.5026615E-004  0.2488279E+04  0.7818608E-02  0.8407173E-01
         -2   -1    0    0    0  501 -0.00000000000E+00  0.00000000000E+00  0.10807543300E+04  0.10807543300E+04  0.00000000000E+00 0. -1.
          2   -1    0    0  501    0  0.00000000000E+00 -0.00000000000E+00 -0.14322250107E+04  0.14322250107E+04  0.00000000000E+00 0.  1.
         23    2    1    2    0    0  0.14430382387E+03  0.88485025099E+03  0.69250872394E+03  0.11368701309E+04  0.95508122364E+02 0.  0.
         11    1    3    3    0    0  0.10705861057E+03  0.58018587952E+03  0.50942075445E+03  0.77947848332E+03  0.00000000000E+00 0. -1.
        -11    1    3    3    0    0  0.37245213300E+02  0.30466437147E+03  0.18308796949E+03  0.35739164754E+03  0.00000000000E+00 0.  1.
         22    1    1    2    0    0 -0.14430382387E+03 -0.88485025099E+03 -0.10439794046E+04  0.13761092099E+04  0.00000000000E+00 0.  1.
<mgrwt>
<rscale>  0 0.24882792E+04</rscale>
<asrwt>0</asrwt>
<pdfrwt beam="1">  1        2 0.22034231E+00 0.24882792E+04</pdfrwt>
<pdfrwt beam="2">  1       -2 0.16626990E+00 0.24882792E+04</pdfrwt>
<totfact> 0.28070283E+00</totfact>
</mgrwt>
</event>
<event>
 6    1  0.5026615E-004  0.6351660E+03  0.7818608E-02  0.9835019E-01
          2   -1    0    0  501    0  0.00000000000E+00  0.00000000000E+00  0.39718390871E+03  0.39718390871E+03  0.00000000000E+00 0.  1.
         -2   -1    0    0    0  501 -0.00000000000E+00 -0.00000000000E+00 -0.25393515139E+03  0.25393515139E+03  0.00000000000E+00 0. -1.
         23    2    1    2    0    0  0.72637846724E+02 -0.30019586408E+03  0.11149815160E+03  0.34063248301E+03  0.90580555774E+02 0.  0.
         11    1    3    3    0    0  0.62361567008E+00 -0.11698989178E+03  0.78873517478E+02  0.14109590864E+03  0.00000000000E+00 0.  1.
        -11    1    3    3    0    0  0.72014231054E+02 -0.18320597230E+03  0.32624634122E+02  0.19953657437E+03  0.00000000000E+00 0. -1.
         22    1    1    2    0    0 -0.72637846724E+02  0.30019586408E+03  0.31750605723E+02  0.31048657709E+03  0.00000000000E+00 0.  1.
<mgrwt>
<rscale>  0 0.63516598E+03</rscale>
<asrwt>0</asrwt>
<pdfrwt beam="1">  1        2 0.61105217E-01 0.63516598E+03</pdfrwt>
<pdfrwt beam="2">  1       -2 0.39066946E-01 0.63516598E+03</pdfrwt>
<totfact> 0.50037717E+02</totfact>
</mgrwt>
</event>
<event>
 6    1  0.5026615E-004  0.1815463E+04  0.7818608E-02  0.8698119E-01
         -2   -1    0    0    0  501 -0.00000000000E+00  0.00000000000E+00  0.61343982191E+03  0.61343982191E+03  0.00000000000E+00 0. -1.
          2   -1    0    0  501    0  0.00000000000E+00 -0.00000000000E+00 -0.13432066699E+04  0.13432066699E+04  0.00000000000E+00 0.  1.
         23    2    1    2    0    0  0.52230976824E+03 -0.70886116088E+03 -0.13786711246E+03  0.89568610785E+03  0.89188697094E+02 0.  0.
         11    1    3    3    0    0  0.28985185477E+03 -0.32157558879E+03 -0.80809504171E+02  0.44040337530E+03  0.00000000000E+00 0. -1.
        -11    1    3    3    0    0  0.23245791348E+03 -0.38728557210E+03 -0.57057608290E+02  0.45528273255E+03  0.00000000000E+00 0.  1.
         22    1    1    2    0    0 -0.52230976824E+03  0.70886116088E+03 -0.59189973550E+03  0.10609603839E+04  0.00000000000E+00 0. -1.
<mgrwt>
<rscale>  0 0.18154630E+04</rscale>
<asrwt>0</asrwt>
<pdfrwt beam="1">  1        2 0.20664718E+00 0.18154630E+04</pdfrwt>
<pdfrwt beam="2">  1       -2 0.94375358E-01 0.18154630E+04</pdfrwt>
<totfact> 0.13926176E+01</totfact>
</mgrwt>
</event>
<event>
 6    1  0.5026615E-004  0.1694764E+04  0.7818608E-02  0.8764356E-01
         -2   -1    0    0    0  501 -0.00000000000E+00  0.00000000000E+00  0.67514980271E+03  0.67514980271E+03  0.00000000000E+00 0.  1.
          2   -1    0    0  501    0  0.00000000000E+00 -0.00000000000E+00 -0.10635509842E+04  0.10635509842E+04  0.00000000000E+00 0. -1.
         23    2    1    2    0    0  0.51189595525E+03 -0.20473062918E+03  0.46177138745E+03  0.72541627775E+03  0.95099223043E+02 0.  0.
         13    1    3    3    0    0  0.30817975131E+03 -0.14870319158E+03  0.23282150841E+03  0.41387589092E+03  0.00000000000E+00 0. -1.
        -13    1    3    3    0    0  0.20371620394E+03 -0.56027437597E+02  0.22894987904E+03  0.31154038683E+03  0.00000000000E+00 0.  1.
         22    1    1    2    0    0 -0.51189595525E+03  0.20473062918E+03 -0.85017256893E+03  0.10132845092E+04  0.00000000000E+00 0. -1.
<mgrwt>
<rscale>  0 0.16947640E+04</rscale>
<asrwt>0</asrwt>
<pdfrwt beam="1">  1        2 0.16362323E+00 0.16947640E+04</pdfrwt>
<pdfrwt beam="2">  1       -2 0.10386920E+00 0.16947640E+04</pdfrwt>
<totfact> 0.16487931E+01</totfact>
</mgrwt>
</event>
<event>
 6    1  0.5026615E-004  0.2183028E+04  0.7818608E-02  0.8525526E-01
         -1   -1    0    0    0  501 -0.00000000000E+00  0.00000000000E+00  0.22375816058E+04  0.22375816058E+04  0.00000000000E+00 0.  1.
          1   -1    0    0  501    0  0.00000000000E+00 -0.00000000000E+00 -0.53245105186E+03  0.53245105186E+03  0.00000000000E+00 0. -1.
         23    2    1    2    0    0  0.56075230448E+03 -0.44997176627E+03  0.18929009173E+04  0.20269475705E+04  0.92330024605E+02 0.  0.
         13    1    3    3    0    0  0.52294143626E+03 -0.38916742120E+03  0.16646752991E+04  0.17877535845E+04  0.00000000000E+00 0.  1.
        -13    1    3    3    0    0  0.37810868219E+02 -0.60804345066E+02  0.22822561825E+03  0.23919398605E+03  0.00000000000E+00 0. -1.
         22    1    1    2    0    0 -0.56075230448E+03  0.44997176627E+03 -0.18777036335E+03  0.74308508717E+03  0.00000000000E+00 0. -1.
<mgrwt>
<rscale>  0 0.21830279E+04</rscale>
<asrwt>0</asrwt>
<pdfrwt beam="1">  1        1 0.81915548E-01 0.21830279E+04</pdfrwt>
<pdfrwt beam="2">  1       -1 0.34424332E+00 0.21830279E+04</pdfrwt>
<totfact> 0.62947896E-01</totfact>
</mgrwt>
</event>
<event>
 6    1  0.5026615E-004  0.3663192E+04  0.7818608E-02  0.8076168E-01
          2   -1    0    0  501    0  0.00000000000E+00  0.00000000000E+00  0.15304447594E+04  0.15304447594E+04  0.00000000000E+00 0.  1.
         -2   -1    0    0    0  501 -0.00000000000E+00 -0.00000000000E+00 -0.21920062949E+04  0.21920062949E+04  0.00000000000E+00 0. -1.
         23    2    1    2    0    0 -0.31059559020E+03  0.62627909694E+03  0.13882017349E+04  0.15567584185E+04  0.87735903416E+02 0.  0.
         13    1    3    3    0    0 -0.20206307035E+03  0.38755962845E+03  0.95690916897E+03  0.10520014770E+04  0.00000000000E+00 0. -1.
        -13    1    3    3    0    0 -0.10853251985E+03  0.23871946849E+03  0.43129256597E+03  0.50475694147E+03  0.00000000000E+00 0.  1.
         22    1    1    2    0    0  0.31059559020E+03 -0.62627909694E+03 -0.20497632705E+04  0.21656926358E+04  0.00000000000E+00 0. -1.
<mgrwt>
<rscale>  0 0.36631923E+04</rscale>
<asrwt>0</asrwt>
<pdfrwt beam="1">  1        2 0.23545304E+00 0.36631923E+04</pdfrwt>
<pdfrwt beam="2">  1       -2 0.33723174E+00 0.36631923E+04</pdfrwt>
<totfact> 0.18507250E-01</totfact>
</mgrwt>
</event>
<event>
 6    1  0.5026615E-004  0.2885116E+04  0.7818608E-02  0.8277320E-01
         -1   -1    0    0    0  501 -0.00000000000E+00  0.00000000000E+00  0.92391648497E+03  0.92391648497E+03  0.00000000000E+00 0. -1.
          1   -1    0    0  501    0  0.00000000000E+00 -0.00000000000E+00 -0.22523398528E+04  0.22523398528E+04  0.00000000000E+00 0.  1.
         23    2    1    2    0    0 -0.10273023886E+04 -0.60827308109E+03  0.22384075407E+03  0.12179738651E+04  0.89494771557E+02 0.  0.
         11    1    3    3    0    0 -0.35488023258E+03 -0.16428565543E+03  0.87727876071E+02  0.40078165663E+03  0.00000000000E+00 0. -1.
        -11    1    3    3    0    0 -0.67242215598E+03 -0.44398742567E+03  0.13611287800E+03  0.81719220846E+03  0.00000000000E+00 0.  1.
         22    1    1    2    0    0  0.10273023886E+04  0.60827308109E+03 -0.15522641219E+04  0.19582824727E+04  0.00000000000E+00 0.  1.
<mgrwt>
<rscale>  0 0.28851162E+04</rscale>
<asrwt>0</asrwt>
<pdfrwt beam="1">  1        1 0.34651382E+00 0.28851162E+04</pdfrwt>
<pdfrwt beam="2">  1       -1 0.14214100E+00 0.28851162E+04</pdfrwt>
<totfact> 0.69436881E-01</totfact>
</mgrwt>
</event>
<event>
 6    1  0.5026615E-004  0.2567650E+04  0.7818608E-02  0.8379274E-01
         -2   -1    0    0    0  501 -0.00000000000E+00  0.00000000000E+00  0.11050280610E+04  0.11050280610E+04  0.00000000000E+00 0. -1.
          2   -1    0    0  501    0  0.00000000000E+00 -0.00000000000E+00 -0.14915512671E+04  0.14915512671E+04  0.00000000000E+00 0.  1.
         23    2    1    2    0    0 -0.42972152057E+03  0.44288519527E+03  0.94313384591E+03  0.11307021991E+04  0.90433016107E+02 0.  0.
         13    1    3    3    0    0 -0.25341827771E+03  0.25855850183E+03  0.47090407222E+03  0.59398987161E+03  0.00000000000E+00 0.  1.
        -13    1    3    3    0    0 -0.17630324286E+03  0.18432669345E+03  0.47222977369E+03  0.53671232752E+03  0.00000000000E+00 0. -1.
         22    1    1    2    0    0  0.42972152057E+03 -0.44288519527E+03 -0.13296570519E+04  0.14658771290E+04  0.00000000000E+00 0.  1.
<mgrwt>
<rscale>  0 0.25676495E+04</rscale>
<asrwt>0</asrwt>
<pdfrwt beam="1">  1        2 0.22946943E+00 0.25676495E+04</pdfrwt>
<pdfrwt beam="2">  1       -2 0.17000432E+00 0.25676495E+04</pdfrwt>
<totfact> 0.24262898E+00</totfact>
</mgrwt>
</event>
<event>
 6    1  0.5026615E-004  0.9587378E+03  0.7818608E-02  0.9354995E-01
          2   -1    0    0  501    0  0.00000000000E+00  0.00000000000E+00  0.23702771693E+04  0.23702771693E+04  0.00000000000E+00 0.  1.
         -2   -1    0    0    0  501 -0.00000000000E+00 -0.00000000000E+00 -0.96948377852E+02  0.96948377852E+02  0.00000000000E+00 0. -1.
         23    2    1    2    0    0  0.12497477977E+03 -0.18599497843E+03  0.22247497112E+04  0.22379380538E+04  0.92965733534E+02 0.  0.
         13    1    3    3    0    0  0.87186760021E+02 -0.86220633718E+02  0.81690526477E+03  0.82605674164E+03  0.00000000000E+00 0.  1.
        -13    1    3    3    0    0  0.37788019752E+02 -0.99774344717E+02  0.14078444464E+04  0.14118813121E+04  0.00000000000E+00 0. -1.
         22    1    1    2    0    0 -0.12497477977E+03  0.18599497843E+03  0.48579080291E+02  0.22928749339E+03  0.00000000000E+00 0. -1.
<mgrwt>
<rscale>  0 0.95873777E+03</rscale>
<asrwt>0</asrwt>
<pdfrwt beam="1">  1        2 0.36465798E+00 0.95873777E+03</pdfrwt>
<pdfrwt beam="2">  1       -2 0.14915137E-01 0.95873777E+03</pdfrwt>
<totfact> 0.14832821E+02</totfact>
</mgrwt>
</event>
<event>
 6    1  0.5026615E-004  0.3193385E+04  0.7818608E-02  0.8190566E-01
         -2   -1    0    0    0  501 -0.00000000000E+00  0.00000000000E+00  0.75817067452E+03  0.75817067452E+03  0.00000000000E+00 0. -1.
          2   -1    0    0  501    0  0.00000000000E+00 -0.00000000000E+00 -0.33626039398E+04  0.33626039398E+04  0.00000000000E+00 0.  1.
         23    2    1    2    0    0  0.11433977257E+04  0.10173514007E+04 -0.72399289092E+03  0.16962296605E+04  0.10328176623E+03 0.  0.
         13    1    3    3    0    0  0.48915940569E+03  0.38619417559E+03 -0.25581158400E+03  0.67369312891E+03  0.00000000000E+00 0.  1.
        -13    1    3    3    0    0  0.65423832006E+03  0.63115722509E+03 -0.46818130693E+03  0.10225365316E+04  0.00000000000E+00 0. -1.
         22    1    1    2    0    0 -0.11433977257E+04 -0.10173514007E+04 -0.18804403743E+04  0.24245449538E+04  0.00000000000E+00 0.  1.
<mgrwt>
<rscale>  0 0.31933855E+04</rscale>
<asrwt>0</asrwt>
<pdfrwt beam="1">  1        2 0.51732369E+00 0.31933855E+04</pdfrwt>
<pdfrwt beam="2">  1       -2 0.11664164E+00 0.31933855E+04</pdfrwt>
<totfact> 0.48456010E-01</totfact>
</mgrwt>
</event>
<event>
 6    1  0.5026615E-004  0.1884594E+04  0.7818608E-02  0.8662563E-01
         -2   -1    0    0    0  501 -0.00000000000E+00  0.00000000000E+00  0.40334007735E+03  0.40334007735E+03  0.00000000000E+00 0. -1.
          2   -1    0    0  501    0  0.00000000000E+00 -0.00000000000E+00 -0.22014264755E+04  0.22014264755E+04  0.00000000000E+00 0.  1.
         23    2    1    2    0    0 -0.19370428315E+03  0.28784859293E+03 -0.21087987233E+04  0.21390195069E+04  0.89410478666E+02 0.  0.
         11    1    3    3    0    0 -0.13437739345E+03  0.25958561593E+03 -0.17529454778E+04  0.17771493533E+04  0.00000000000E+00 0.  1.
        -11    1    3    3    0    0 -0.59326889700E+02  0.28262976999E+02 -0.35585324552E+03  0.36187015359E+03  0.00000000000E+00 0. -1.
         22    1    1    2    0    0  0.19370428315E+03 -0.28784859293E+03  0.31071232519E+03  0.46574704592E+03  0.00000000000E+00 0. -1.
<mgrwt>
<rscale>  0 0.18845939E+04</rscale>
<asrwt>0</asrwt>
<pdfrwt beam="1">  1        2 0.33868100E+00 0.18845939E+04</pdfrwt>
<pdfrwt beam="2">  1       -2 0.62052319E-01 0.18845939E+04</pdfrwt>
<totfact> 0.11656449E+01</totfact>
</mgrwt>
</event>
<event>
 6    1  0.5026615E-004  0.3642244E+04  0.7818608E-02  0.8080883E-01
         -2   -1    0    0    0  501 -0.00000000000E+00  0.00000000000E+00  0.14433444418E+04  0.14433444418E+04  0.00000000000E+00 0. -1.
          2   -1    0    0  501    0  0.00000000000E+00 -0.00000000000E+00 -0.22977783936E+04  0.22977783936E+04  0.00000000000E+00 0.  1.
         23    2    1    2    0    0 -0.16118518035E+04 -0.70359597869E+03  0.53363382637E+02  0.17619286716E+04  0.91822956843E+02 0.  0.
         11    1    3    3    0    0 -0.66887885375E+03 -0.32377796268E+03  0.57305880722E+02  0.74532882279E+03  0.00000000000E+00 0. -1.
        -11    1    3    3    0    0 -0.94297294975E+03 -0.37981801601E+03 -0.39424980849E+01  0.10165998488E+04  0.00000000000E+00 0.  1.
         22    1    1    2    0    0  0.16118518035E+04  0.70359597869E+03 -0.90779733441E+03  0.19791941638E+04  0.00000000000E+00 0.  1.
<mgrwt>
<rscale>  0 0.36422442E+04</rscale>
<asrwt>0</asrwt>
<pdfrwt beam="1">  1        2 0.35350437E+00 0.36422442E+04</pdfrwt>
<pdfrwt beam="2">  1       -2 0.22205299E+00 0.36422442E+04</pdfrwt>
<totfact> 0.35424883E-01</totfact>
</mgrwt>
</event>
<event>
 6    1  0.5026615E-004  0.1100986E+04  0.7818608E-02  0.9204232E-01
          2   -1    0    0  501    0  0.00000000000E+00  0.00000000000E+00  0.15464945869E+04  0.15464945869E+04  0.00000000000E+00 0.  1.
         -2   -1    0    0    0  501 -0.00000000000E+00 -0.00000000000E+00 -0.19595441207E+03  0.19595441207E+03  0.00000000000E+00 0. -1.
         23    2    1    2    0    0  0.42640147405E+03 -0.27926723612E+03  0.99267022490E+03  0.11196494266E+04  0.91718356442E+02 0.  0.
         11    1    3    3    0    0  0.10658249779E+03 -0.53556907480E+02  0.16012022570E+03  0.19966636635E+03  0.00000000000E+00 0. -1.
        -11    1    3    3    0    0  0.31981897626E+03 -0.22571032864E+03  0.83254999920E+03  0.91998306028E+03  0.00000000000E+00 0.  1.
         22    1    1    2    0    0 -0.42640147405E+03  0.27926723612E+03  0.35786994992E+03  0.62279957233E+03  0.00000000000E+00 0. -1.
<mgrwt>
<rscale>  0 0.11009858E+04</rscale>
<asrwt>0</asrwt>
<pdfrwt beam="1">  1        2 0.23792224E+00 0.11009858E+04</pdfrwt>
<pdfrwt beam="2">  1       -2 0.30146834E-01 0.11009858E+04</pdfrwt>
<totfact> 0.12047905E+02</totfact>
</mgrwt>
</event>
<event>
 6    1  0.5026615E-004  0.2840828E+04  0.7818608E-02  0.8290704E-01
          2   -1    0    0  501    0  0.00000000000E+00  0.00000000000E+00  0.14853361818E+04  0.14853361818E+04  0.00000000000E+00 0.  1.
         -2   -1    0    0    0  501 -0.00000000000E+00 -0.00000000000E+00 -0.13583297847E+04  0.13583297847E+04  0.00000000000E+00 0. -1.
         23    2    1    2    0    0  0.17002756198E+03  0.17369266443E+03  0.14629504919E+04  0.14857907372E+04  0.90947564459E+02 0.  0.
         13    1    3    3    0    0  0.11695943668E+03  0.59088027517E+02  0.84093133542E+03  0.85107955898E+03  0.00000000000E+00 0. -1.
        -13    1    3    3    0    0  0.53068125305E+02  0.11460463691E+03  0.62201915653E+03  0.63471117827E+03  0.00000000000E+00 0.  1.
         22    1    1    2    0    0 -0.17002756198E+03 -0.17369266443E+03 -0.13359440948E+04  0.13578752292E+04  0.00000000000E+00 0. -1.
<mgrwt>
<rscale>  0 0.28408283E+04</rscale>
<asrwt>0</asrwt>
<pdfrwt beam="1">  1        2 0.22851326E+00 0.28408283E+04</pdfrwt>
<pdfrwt beam="2">  1       -2 0.20897381E+00 0.28408283E+04</pdfrwt>
<totfact> 0.13047402E+00</totfact>
</mgrwt>
</event>
<event>
 6    1  0.5026615E-004  0.2437505E+04  0.7818608E-02  0.8425594E-01
          2   -1    0    0  501    0  0.00000000000E+00  0.00000000000E+00  0.98743857693E+03  0.98743857693E+03  0.00000000000E+00 0.  1.
         -2   -1    0    0    0  501 -0.00000000000E+00 -0.00000000000E+00 -0.15042527983E+04  0.15042527983E+04  0.00000000000E+00 0. -1.
         23    2    1    2    0    0 -0.40810329024E+03 -0.51371342394E+03  0.78913403806E+03  0.10302021916E+04  0.90190066903E+02 0.  0.
         13    1    3    3    0    0 -0.54468986209E+02 -0.29646232857E+02  0.89138070160E+02  0.10858805244E+03  0.00000000000E+00 0. -1.
        -13    1    3    3    0    0 -0.35363430404E+03 -0.48406719109E+03  0.69999596790E+03  0.92161413919E+03  0.00000000000E+00 0.  1.
         22    1    1    2    0    0  0.40810329024E+03  0.51371342394E+03 -0.13059482594E+04  0.14614891836E+04  0.00000000000E+00 0. -1.
<mgrwt>
<rscale>  0 0.24375047E+04</rscale>
<asrwt>0</asrwt>
<pdfrwt beam="1">  1        2 0.15191363E+00 0.24375047E+04</pdfrwt>
<pdfrwt beam="2">  1       -2 0.23142351E+00 0.24375047E+04</pdfrwt>
<totfact> 0.19267220E+00</totfact>
</mgrwt>
</event>
<event>
 6    1  0.5026615E-004  0.4059606E+04  0.7818608E-02  0.7992629E-01
         -2   -1    0    0    0  501 -0.00000000000E+00  0.00000000000E+00  0.16428550235E+04  0.16428550235E+04  0.00000000000E+00 0. -1.
          2   -1    0    0  501    0  0.00000000000E+00 -0.00000000000E+00 -0.25078898773E+04  0.25078898773E+04  0.00000000000E+00 0.  1.
         23    2    1    2    0    0 -0.11416598654E+04  0.99206725040E+03 -0.18152884902E+04  0.23645291660E+04  0.90228578449E+02 0.  0.
         11    1    3    3    0    0 -0.44208850508E+03  0.39917656106E+03 -0.78193400977E+03  0.98295725688E+03  0.00000000000E+00 0.  1.
        -11    1    3    3    0    0 -0.69957136032E+03  0.59289068934E+03 -0.10333544805E+04  0.13815719091E+04  0.00000000000E+00 0. -1.
         22    1    1    2    0    0  0.11416598654E+04 -0.99206725040E+03  0.95025363643E+03  0.17862157348E+04  0.00000000000E+00 0. -1.
<mgrwt>
<rscale>  0 0.40596056E+04</rscale>
<asrwt>0</asrwt>
<pdfrwt beam="1">  1        2 0.38582921E+00 0.40596056E+04</pdfrwt>
<pdfrwt beam="2">  1       -2 0.25274693E+00 0.40596056E+04</pdfrwt>
<totfact> 0.16715668E-01</totfact>
</mgrwt>
</event>
<event>
 6    1  0.5026615E-004  0.1534343E+04  0.7818608E-02  0.8861931E-01
          2   -1    0    0  501    0  0.00000000000E+00  0.00000000000E+00  0.37746037673E+03  0.37746037673E+03  0.00000000000E+00 0.  1.
         -2   -1    0    0    0  501 -0.00000000000E+00 -0.00000000000E+00 -0.15592411593E+04  0.15592411593E+04  0.00000000000E+00 0. -1.
         23    2    1    2    0    0  0.59645004059E+02 -0.66019850489E+03 -0.10735718772E+04  0.12650403420E+04  0.91383254018E+02 0.  0.
         13    1    3    3    0    0  0.61914998715E+02 -0.49050140293E+03 -0.72744966568E+03  0.87954994710E+03  0.00000000000E+00 0.  1.
        -13    1    3    3    0    0 -0.22699946553E+01 -0.16969710196E+03 -0.34612221147E+03  0.38549039490E+03  0.00000000000E+00 0. -1.
         22    1    1    2    0    0 -0.59645004059E+02  0.66019850489E+03 -0.10820890544E+03  0.67166119404E+03  0.00000000000E+00 0.  1.
<mgrwt>
<rscale>  0 0.15343425E+04</rscale>
<asrwt>0</asrwt>
<pdfrwt beam="1">  1        2 0.58070827E-01 0.15343425E+04</pdfrwt>
<pdfrwt beam="2">  1       -2 0.23988326E+00 0.15343425E+04</pdfrwt>
<totfact> 0.60706000E+00</totfact>
</mgrwt>
</event>
<event>
 6    1  0.5026615E-004  0.2010160E+04  0.7818608E-02  0.8601885E-01
         -2   -1    0    0    0  501 -0.00000000000E+00  0.00000000000E+00  0.70200741583E+03  0.70200741583E+03  0.00000000000E+00 0. -1.
          2   -1    0    0  501    0  0.00000000000E+00 -0.00000000000E+00 -0.14389953791E+04  0.14389953791E+04  0.00000000000E+00 0.  1.
         23    2    1    2    0    0 -0.92681615055E+03 -0.22975935700E+03 -0.69626959059E+03  0.11852645855E+04  0.91012394156E+02 0.  0.
         11    1    3    3    0    0 -0.76921441153E+03 -0.22413510658E+03 -0.57077078083E+03  0.98372081464E+03  0.00000000000E+00 0. -1.
        -11    1    3    3    0    0 -0.15760173902E+03 -0.56242504222E+01 -0.12549880976E+03  0.20154377089E+03  0.00000000000E+00 0.  1.
         22    1    1    2    0    0  0.92681615055E+03  0.22975935700E+03 -0.40718372701E+02  0.95573820941E+03  0.00000000000E+00 0. -1.
<mgrwt>
<rscale>  0 0.20101596E+04</rscale>
<asrwt>0</asrwt>
<pdfrwt beam="1">  1        2 0.22138390E+00 0.20101596E+04</pdfrwt>
<pdfrwt beam="2">  1       -2 0.10800114E+00 0.20101596E+04</pdfrwt>
<totfact> 0.87661830E+00</totfact>
</mgrwt>
</event>
<event>
 6    1  0.5026615E-004  0.1169847E+04  0.7818608E-02  0.9139667E-01
          2   -1    0    0  501    0  0.00000000000E+00  0.00000000000E+00  0.10037618977E+03  0.10037618977E+03  0.00000000000E+00 0.  1.
         -2   -1    0    0    0  501 -0.00000000000E+00 -0.00000000000E+00 -0.34085312392E+04  0.34085312392E+04  0.00000000000E+00 0. -1.
         23    2    1    2    0    0  0.50086179782E+03 -0.12056049824E+03 -0.85752563553E+03  0.10047145653E+04  0.93293986074E+02 0.  0.
         11    1    3    3    0    0  0.50033201787E+03 -0.12747519636E+03 -0.84959033598E+03  0.99417593653E+03  0.00000000000E+00 0. -1.
        -11    1    3    3    0    0  0.52977995552E+00  0.69146981199E+01 -0.79352995483E+01  0.10538628744E+02  0.00000000000E+00 0.  1.
         22    1    1    2    0    0 -0.50086179782E+03  0.12056049824E+03 -0.24506294139E+04  0.25041928637E+04  0.00000000000E+00 0. -1.
<mgrwt>
<rscale>  0 0.11698468E+04</rscale>
<asrwt>0</asrwt>
<pdfrwt beam="1">  1        2 0.15442490E-01 0.11698468E+04</pdfrwt>
<pdfrwt beam="2">  1       -2 0.52438944E+00 0.11698468E+04</pdfrwt>
<totfact> 0.45549167E-01</totfact>
</mgrwt>
</event>
<event>
 6    1  0.5026615E-004  0.2043993E+04  0.7818608E-02  0.8586324E-01
          2   -1    0    0  501    0  0.00000000000E+00  0.00000000000E+00  0.11076537939E+04  0.11076537939E+04  0.00000000000E+00 0. -1.
         -2   -1    0    0    0  501 -0.00000000000E+00 -0.00000000000E+00 -0.94296310823E+03  0.94296310823E+03  0.00000000000E+00 0.  1.
         23    2    1    2    0    0  0.49738546157E+03 -0.56163955273E+03  0.77577162427E+03  0.10830161589E+04  0.90945604260E+02 0.  0.
         13    1    3    3    0    0  0.23392943526E+03 -0.29658897145E+03  0.33252515380E+03  0.50325041140E+03  0.00000000000E+00 0. -1.
        -13    1    3    3    0    0  0.26345602630E+03 -0.26505058129E+03  0.44324647048E+03  0.57976574754E+03  0.00000000000E+00 0.  1.
         22    1    1    2    0    0 -0.49738546157E+03  0.56163955273E+03 -0.61108093865E+03  0.96760074315E+03  0.00000000000E+00 0.  1.
<mgrwt>
<rscale>  0 0.20439928E+04</rscale>
<asrwt>0</asrwt>
<pdfrwt beam="1">  1        2 0.17040828E+00 0.20439928E+04</pdfrwt>
<pdfrwt beam="2">  1       -2 0.14507125E+00 0.20439928E+04</pdfrwt>
<totfact> 0.65290662E+00</totfact>
</mgrwt>
</event>
<event>
 6    1  0.5026615E-004  0.1911465E+04  0.7818608E-02  0.8649170E-01
          2   -1    0    0  501    0  0.00000000000E+00  0.00000000000E+00  0.25013653520E+04  0.25013653520E+04  0.00000000000E+00 0.  1.
         -2   -1    0    0    0  501 -0.00000000000E+00 -0.00000000000E+00 -0.36517049765E+03  0.36517049765E+03  0.00000000000E+00 0. -1.
         23    2    1    2    0    0 -0.26381937088E+03 -0.58234061889E+03  0.94687379261E+01  0.64579605600E+03  0.90783435101E+02 0.  0.
         11    1    3    3    0    0 -0.20337004482E+03 -0.43438847526E+03 -0.31920237289E+02  0.48069909935E+03  0.00000000000E+00 0. -1.
        -11    1    3    3    0    0 -0.60449326064E+02 -0.14795214363E+03  0.41388975216E+02  0.16509695665E+03  0.00000000000E+00 0.  1.
         22    1    1    2    0    0  0.26381937088E+03  0.58234061889E+03  0.21267261164E+04  0.22207397937E+04  0.00000000000E+00 0.  1.
<mgrwt>
<rscale>  0 0.19114652E+04</rscale>
<asrwt>0</asrwt>
<pdfrwt beam="1">  1        2 0.38482543E+00 0.19114652E+04</pdfrwt>
<pdfrwt beam="2">  1       -2 0.56180078E-01 0.19114652E+04</pdfrwt>
<totfact> 0.96782790E+00</totfact>
</mgrwt>
</event>
<event>
 6    1  0.5026615E-004  0.1884437E+04  0.7818608E-02  0.8662642E-01
          2   -1    0    0  501    0  0.00000000000E+00  0.00000000000E+00  0.34779045274E+04  0.34779045274E+04  0.00000000000E+00 0.  1.
         -2   -1    0    0    0  501 -0.00000000000E+00 -0.00000000000E+00 -0.25526177027E+03  0.25526177027E+03  0.00000000000E+00 0. -1.
         23    2    1    2    0    0  0.54838255769E+01  0.22793161872E+03  0.34217432812E+04  0.34304718744E+04  0.88472052381E+02 0.  0.
         11    1    3    3    0    0 -0.31628163872E+02  0.12337338709E+03  0.22071597915E+04  0.22108314451E+04  0.00000000000E+00 0.  1.
        -11    1    3    3    0    0  0.37111989449E+02  0.10455823164E+03  0.12145834896E+04  0.12196404293E+04  0.00000000000E+00 0. -1.
         22    1    1    2    0    0 -0.54838255769E+01 -0.22793161872E+03 -0.19910052406E+03  0.30269442320E+03  0.00000000000E+00 0. -1.
<mgrwt>
<rscale>  0 0.18844374E+04</rscale>
<asrwt>0</asrwt>
<pdfrwt beam="1">  1        2 0.53506220E+00 0.18844374E+04</pdfrwt>
<pdfrwt beam="2">  1       -2 0.39271044E-01 0.18844374E+04</pdfrwt>
<totfact> 0.48763742E+00</totfact>
</mgrwt>
</event>
<event>
 6    1  0.5026615E-004  0.1232663E+04  0.7818608E-02  0.9084738E-01
          2   -1    0    0  501    0  0.00000000000E+00  0.00000000000E+00  0.19029137849E+04  0.19029137849E+04  0.00000000000E+00 0.  1.
         -2   -1    0    0    0  501 -0.00000000000E+00 -0.00000000000E+00 -0.19962242681E+03  0.19962242681E+03  0.00000000000E+00 0. -1.
         23    2    1    2    0    0  0.60998087644E+03 -0.51759152137E+02  0.90846849555E+03  0.10992919432E+04  0.91499123217E+02 0.  0.
         11    1    3    3    0    0  0.82462793056E+02  0.16776670017E+02  0.90643459470E+02  0.12368429828E+03  0.00000000000E+00 0.  1.
        -11    1    3    3    0    0  0.52751808339E+03 -0.68535822154E+02  0.81782503607E+03  0.97560764493E+03  0.00000000000E+00 0. -1.
         22    1    1    2    0    0 -0.60998087644E+03  0.51759152137E+02  0.79482286250E+03  0.10032442685E+04  0.00000000000E+00 0.  1.
<mgrwt>
<rscale>  0 0.12326626E+04</rscale>
<asrwt>0</asrwt>
<pdfrwt beam="1">  1        2 0.29275595E+00 0.12326626E+04</pdfrwt>
<pdfrwt beam="2">  1       -2 0.30711144E-01 0.12326626E+04</pdfrwt>
<totfact> 0.73154237E+01</totfact>
</mgrwt>
</event>
<event>
 6    1  0.5026615E-004  0.2927430E+04  0.7818608E-02  0.8264763E-01
         -2   -1    0    0    0  501 -0.00000000000E+00  0.00000000000E+00  0.16878913889E+04  0.16878913889E+04  0.00000000000E+00 0. -1.
          2   -1    0    0  501    0  0.00000000000E+00 -0.00000000000E+00 -0.12693122396E+04  0.12693122396E+04  0.00000000000E+00 0.  1.
         23    2    1    2    0    0 -0.54792586247E+03 -0.93652659008E+03  0.11996959468E+04  0.16202487841E+04  0.92902922544E+02 0.  0.
         13    1    3    3    0    0 -0.33449889996E+03 -0.52197042907E+03  0.62698431251E+03  0.88173236928E+03  0.00000000000E+00 0.  1.
        -13    1    3    3    0    0 -0.21342696251E+03 -0.41455616100E+03  0.57271163425E+03  0.73851641482E+03  0.00000000000E+00 0. -1.
         22    1    1    2    0    0  0.54792586247E+03  0.93652659008E+03 -0.78111679741E+03  0.13369548444E+04  0.00000000000E+00 0.  1.
<mgrwt>
<rscale>  0 0.29274297E+04</rscale>
<asrwt>0</asrwt>
<pdfrwt beam="1">  1        2 0.19527881E+00 0.29274297E+04</pdfrwt>
<pdfrwt beam="2">  1       -2 0.25967560E+00 0.29274297E+04</pdfrwt>
<totfact> 0.83160559E-01</totfact>
</mgrwt>
</event>
<event>
 6    1  0.5026615E-004  0.2661524E+04  0.7818608E-02  0.8347598E-01
          1   -1    0    0  501    0  0.00000000000E+00  0.00000000000E+00  0.17879158478E+04  0.17879158478E+04  0.00000000000E+00 0. -1.
         -1   -1    0    0    0  501 -0.00000000000E+00 -0.00000000000E+00 -0.99049803052E+03  0.99049803052E+03  0.00000000000E+00 0.  1.
         23    2    1    2    0    0 -0.34374494004E+03 -0.20922769691E+03  0.17216746017E+04  0.17703526616E+04  0.89712314298E+02 0.  0.
         13    1    3    3    0    0 -0.10281467817E+03 -0.71728533418E+02  0.37488241129E+03  0.39528807577E+03  0.00000000000E+00 0.  1.
        -13    1    3    3    0    0 -0.24093026187E+03 -0.13749916349E+03  0.13467921904E+04  0.13750645858E+04  0.00000000000E+00 0. -1.
         22    1    1    2    0    0  0.34374494004E+03  0.20922769691E+03 -0.92425678446E+03  0.10080612167E+04  0.00000000000E+00 0.  1.
<mgrwt>
<rscale>  0 0.26615237E+04</rscale>
<asrwt>0</asrwt>
<pdfrwt beam="1">  1        1 0.27506398E+00 0.26615237E+04</pdfrwt>
<pdfrwt beam="2">  1       -1 0.15238431E+00 0.26615237E+04</pdfrwt>
<totfact> 0.12159253E+00</totfact>
</mgrwt>
</event>
<event>
 6    1  0.5026615E-004  0.8930379E+03  0.7818608E-02  0.9434326E-01
         -2   -1    0    0    0  501 -0.00000000000E+00  0.00000000000E+00  0.38783482797E+03  0.38783482797E+03  0.00000000000E+00 0. -1.
          2   -1    0    0  501    0  0.00000000000E+00 -0.00000000000E+00 -0.51408268700E+03  0.51408268700E+03  0.00000000000E+00 0.  1.
         23    2    1    2    0    0  0.42340429330E+02 -0.28403115419E+03 -0.40292157241E+03  0.50315097653E+03  0.91371238134E+02 0.  0.
         11    1    3    3    0    0 -0.44720564224E+01 -0.21369376139E+03 -0.25433328027E+03  0.33222046957E+03  0.00000000000E+00 0.  1.
        -11    1    3    3    0    0  0.46812485753E+02 -0.70337392799E+02 -0.14858829214E+03  0.17093050696E+03  0.00000000000E+00 0. -1.
         22    1    1    2    0    0 -0.42340429330E+02  0.28403115419E+03  0.27667371339E+03  0.39876653845E+03  0.00000000000E+00 0. -1.
<mgrwt>
<rscale>  0 0.89303790E+03</rscale>
<asrwt>0</asrwt>
<pdfrwt beam="1">  1        2 0.79089644E-01 0.89303790E+03</pdfrwt>
<pdfrwt beam="2">  1       -2 0.59666897E-01 0.89303790E+03</pdfrwt>
<totfact> 0.15687810E+02</totfact>
</mgrwt>
</event>
<event>
 6    1  0.5026615E-004  0.1801455E+04  0.7818608E-02  0.8705526E-01
         -2   -1    0    0    0  501 -0.00000000000E+00  0.00000000000E+00  0.73290508579E+03  0.73290508579E+03  0.00000000000E+00 0. -1.
          2   -1    0    0  501    0  0.00000000000E+00 -0.00000000000E+00 -0.11069787343E+04  0.11069787343E+04  0.00000000000E+00 0.  1.
         23    2    1    2    0    0 -0.75310086124E+03  0.43720906714E+03 -0.41328389041E+03  0.96818999851E+03  0.90970454333E+02 0.  0.
         11    1    3    3    0    0 -0.22439274468E+03  0.15741165979E+03 -0.16927805396E+03  0.32215771612E+03  0.00000000000E+00 0. -1.
        -11    1    3    3    0    0 -0.52870811656E+03  0.27979740735E+03 -0.24400583645E+03  0.64603228239E+03  0.00000000000E+00 0.  1.
         22    1    1    2    0    0  0.75310086124E+03 -0.43720906714E+03  0.39210241865E+02  0.87169382162E+03  0.00000000000E+00 0. -1.
<mgrwt>
<rscale>  0 0.18014553E+04</rscale>
<asrwt>0</asrwt>
<pdfrwt beam="1">  1        2 0.17030442E+00 0.18014553E+04</pdfrwt>
<pdfrwt beam="2">  1       -2 0.11275463E+00 0.18014553E+04</pdfrwt>
<totfact> 0.12600129E+01</totfact>
</mgrwt>
</event>
<event>
 6    1  0.5026615E-004  0.2964495E+04  0.7818608E-02  0.8253943E-01
         -2   -1    0    0    0  501 -0.00000000000E+00  0.00000000000E+00  0.12260154186E+04  0.12260154186E+04  0.00000000000E+00 0. -1.
          2   -1    0    0  501    0  0.00000000000E+00 -0.00000000000E+00 -0.17920308325E+04  0.17920308325E+04  0.00000000000E+00 0.  1.
         23    2    1    2    0    0 -0.26231183607E+03  0.13264544860E+04  0.33150867064E+03  0.13951357528E+04  0.90646385554E+02 0.  0.
         13    1    3    3    0    0 -0.19387313653E+03  0.87251760449E+03  0.25742155174E+03  0.93012881823E+03  0.00000000000E+00 0. -1.
        -13    1    3    3    0    0 -0.68438699545E+02  0.45393688156E+03  0.74087118902E+02  0.46500693459E+03  0.00000000000E+00 0.  1.
         22    1    1    2    0    0  0.26231183607E+03 -0.13264544860E+04 -0.89752408458E+03  0.16229104982E+04  0.00000000000E+00 0.  1.
<mgrwt>
<rscale>  0 0.29644949E+04</rscale>
<asrwt>0</asrwt>
<pdfrwt beam="1">  1        2 0.27569705E+00 0.29644949E+04</pdfrwt>
<pdfrwt beam="2">  1       -2 0.18861776E+00 0.29644949E+04</pdfrwt>
<totfact> 0.11852536E+00</totfact>
</mgrwt>
</event>
<event>
 6    1  0.5026615E-004  0.3769824E+04  0.7818608E-02  0.8052662E-01
         -2   -1    0    0    0  501 -0.00000000000E+00  0.00000000000E+00  0.11995706574E+04  0.11995706574E+04  0.00000000000E+00 0. -1.
          2   -1    0    0  501    0  0.00000000000E+00 -0.00000000000E+00 -0.29618047753E+04  0.29618047753E+04  0.00000000000E+00 0.  1.
         23    2    1    2    0    0 -0.20604192318E+03  0.15881316353E+04 -0.19766696449E+04  0.25456409370E+04  0.91921322556E+02 0.  0.
         13    1    3    3    0    0 -0.86588765023E+02  0.97143004946E+03 -0.11672382834E+04  0.15210585674E+04  0.00000000000E+00 0. -1.
        -13    1    3    3    0    0 -0.11945315816E+03  0.61670158588E+03 -0.80943136147E+03  0.10245823695E+04  0.00000000000E+00 0.  1.
         22    1    1    2    0    0  0.20604192318E+03 -0.15881316353E+04  0.21443552702E+03  0.16157344957E+04  0.00000000000E+00 0. -1.
<mgrwt>
<rscale>  0 0.37698245E+04</rscale>
<asrwt>0</asrwt>
<pdfrwt beam="1">  1        2 0.45566227E+00 0.37698245E+04</pdfrwt>
<pdfrwt beam="2">  1       -2 0.18454933E+00 0.37698245E+04</pdfrwt>
<totfact> 0.24935829E-01</totfact>
</mgrwt>
</event>
<event>
 6    1  0.5026615E-004  0.6024019E+04  0.7818608E-02  0.7687431E-01
         -2   -1    0    0    0  501 -0.00000000000E+00  0.00000000000E+00  0.47506297746E+04  0.47506297746E+04  0.00000000000E+00 0.  1.
          2   -1    0    0  501    0  0.00000000000E+00 -0.00000000000E+00 -0.19096842094E+04  0.19096842094E+04  0.00000000000E+00 0. -1.
         23    2    1    2    0    0 -0.25964211464E+04 -0.40633281268E+03 -0.20478790002E+03  0.26375038386E+04  0.89326876716E+02 0.  0.
         11    1    3    3    0    0 -0.15690342019E+04 -0.21474038169E+03 -0.91886161382E+02  0.15863243127E+04  0.00000000000E+00 0.  1.
        -11    1    3    3    0    0 -0.10273869444E+04 -0.19159243099E+03 -0.11290173864E+03  0.10511795260E+04  0.00000000000E+00 0. -1.
         22    1    1    2    0    0  0.25964211464E+04  0.40633281268E+03  0.30457334653E+04  0.40228101453E+04  0.00000000000E+00 0.  1.
<mgrwt>
<rscale>  0 0.60240195E+04</rscale>
<asrwt>0</asrwt>
<pdfrwt beam="1">  1        2 0.29379757E+00 0.60240195E+04</pdfrwt>
<pdfrwt beam="2">  1       -2 0.73086611E+00 0.60240195E+04</pdfrwt>
<totfact> 0.88682289E-04</totfact>
</mgrwt>
</event>
<event>
 6    1  0.5026615E-004  0.1423389E+04  0.7818608E-02  0.8937061E-01
         -2   -1    0    0    0  501 -0.00000000000E+00  0.00000000000E+00  0.71119869831E+03  0.71119869831E+03  0.00000000000E+00 0. -1.
          2   -1    0    0  501    0  0.00000000000E+00 -0.00000000000E+00 -0.71219029164E+03  0.71219029164E+03  0.00000000000E+00 0.  1.
         23    2    1    2    0    0 -0.44443633755E+03 -0.23314346200E+03  0.49984602378E+03  0.71436300260E+03  0.92676426300E+02 0.  0.
         13    1    3    3    0    0 -0.54094806393E+02 -0.26039345226E+02  0.10896024808E+03  0.12440510938E+03  0.00000000000E+00 0. -1.
        -13    1    3    3    0    0 -0.39034153116E+03 -0.20710411678E+03  0.39088577570E+03  0.58995789323E+03  0.00000000000E+00 0.  1.
         22    1    1    2    0    0  0.44443633755E+03  0.23314346200E+03 -0.50083761711E+03  0.70902598734E+03  0.00000000000E+00 0.  1.
<mgrwt>
<rscale>  0 0.14233886E+04</rscale>
<asrwt>0</asrwt>
<pdfrwt beam="1">  1        2 0.10956774E+00 0.14233886E+04</pdfrwt>
<pdfrwt beam="2">  1       -2 0.10941519E+00 0.14233886E+04</pdfrwt>
<totfact> 0.25923506E+01</totfact>
</mgrwt>
</event>
<event>
 6    1  0.5026615E-004  0.2022119E+04  0.7818608E-02  0.8596349E-01
          2   -1    0    0  501    0  0.00000000000E+00  0.00000000000E+00  0.26254083731E+04  0.26254083731E+04  0.00000000000E+00 0.  1.
         -2   -1    0    0    0  501 -0.00000000000E+00 -0.00000000000E+00 -0.38936473127E+03  0.38936473127E+03  0.00000000000E+00 0. -1.
         23    2    1    2    0    0  0.88404681364E+03 -0.48548699280E+03  0.11616880005E+04  0.15411800693E+04  0.92090209597E+02 0.  0.
         13    1    3    3    0    0  0.41150604619E+03 -0.21963131400E+03  0.60693728484E+03  0.76547240830E+03  0.00000000000E+00 0.  1.
        -13    1    3    3    0    0  0.47254076745E+03 -0.26585567880E+03  0.55475071567E+03  0.77570766104E+03  0.00000000000E+00 0. -1.
         22    1    1    2    0    0 -0.88404681364E+03  0.48548699280E+03  0.10743556413E+04  0.14735930350E+04  0.00000000000E+00 0. -1.
<mgrwt>
<rscale>  0 0.20221191E+04</rscale>
<asrwt>0</asrwt>
<pdfrwt beam="1">  1        2 0.40390897E+00 0.20221191E+04</pdfrwt>
<pdfrwt beam="2">  1       -2 0.59902268E-01 0.20221191E+04</pdfrwt>
<totfact> 0.70923296E+00</totfact>
</mgrwt>
</event>
<event>
 6    1  0.5026615E-004  0.3101019E+04  0.7818608E-02  0.8215458E-01
         -2   -1    0    0    0  501 -0.00000000000E+00  0.00000000000E+00  0.10840897676E+04  0.10840897676E+04  0.00000000000E+00 0.  1.
          2   -1    0    0  501    0  0.00000000000E+00 -0.00000000000E+00 -0.22176019604E+04  0.22176019604E+04  0.00000000000E+00 0. -1.
         23    2    1    2    0    0 -0.97462737460E+01  0.10269637832E+04 -0.18020140541E+04  0.20762757412E+04  0.94428281936E+02 0.  0.
         13    1    3    3    0    0  0.10497751077E+02  0.75168860464E+03 -0.12387115925E+04  0.14489832195E+04  0.00000000000E+00 0. -1.
        -13    1    3    3    0    0 -0.20244024823E+02  0.27527517860E+03 -0.56330246164E+03  0.62729252171E+03  0.00000000000E+00 0.  1.
         22    1    1    2    0    0  0.97462737460E+01 -0.10269637832E+04  0.66850186137E+03  0.12254159868E+04  0.00000000000E+00 0.  1.
<mgrwt>
<rscale>  0 0.31010189E+04</rscale>
<asrwt>0</asrwt>
<pdfrwt beam="1">  1        2 0.34116953E+00 0.31010189E+04</pdfrwt>
<pdfrwt beam="2">  1       -2 0.16678304E+00 0.31010189E+04</pdfrwt>
<totfact> 0.96298772E-01</totfact>
</mgrwt>
</event>
<event>
 6    1  0.5026615E-004  0.1775670E+04  0.7818608E-02  0.8719346E-01
         -2   -1    0    0    0  501 -0.00000000000E+00  0.00000000000E+00  0.54969553353E+03  0.54969553353E+03  0.00000000000E+00 0. -1.
          2   -1    0    0  501    0  0.00000000000E+00 -0.00000000000E+00 -0.14339778025E+04  0.14339778025E+04  0.00000000000E+00 0.  1.
         23    2    1    2    0    0 -0.77359603532E+03 -0.30509007248E+03 -0.78327986860E+03  0.11459787240E+04  0.90604111939E+02 0.  0.
         13    1    3    3    0    0 -0.43493351843E+03 -0.12555189433E+03 -0.40431490673E+03  0.60696044964E+03  0.00000000000E+00 0.  1.
        -13    1    3    3    0    0 -0.33866251689E+03 -0.17953817815E+03 -0.37896496187E+03  0.53901827436E+03  0.00000000000E+00 0. -1.
         22    1    1    2    0    0  0.77359603532E+03  0.30509007248E+03 -0.10100240040E+03  0.83769461207E+03  0.00000000000E+00 0. -1.
<mgrwt>
<rscale>  0 0.17756702E+04</rscale>
<asrwt>0</asrwt>
<pdfrwt beam="1">  1        2 0.22061197E+00 0.17756702E+04</pdfrwt>
<pdfrwt beam="2">  1       -2 0.84568543E-01 0.17756702E+04</pdfrwt>
<totfact> 0.15955782E+01</totfact>
</mgrwt>
</event>
<event>
 6    1  0.5026615E-004  0.9613435E+03  0.7818608E-02  0.9351989E-01
          2   -1    0    0  501    0  0.00000000000E+00  0.00000000000E+00  0.37214746878E+04  0.37214746878E+04  0.00000000000E+00 0.  1.
         -2   -1    0    0    0  501 -0.00000000000E+00 -0.00000000000E+00 -0.62084351279E+02  0.62084351279E+02  0.00000000000E+00 0. -1.
         23    2    1    2    0    0  0.44397194574E+03  0.24697656306E+02  0.25179881373E+04  0.25586018793E+04  0.91968769319E+02 0.  0.
         11    1    3    3    0    0  0.28233506126E+03 -0.81574520182E+01  0.17911232162E+04  0.18132572919E+04  0.00000000000E+00 0.  1.
        -11    1    3    3    0    0  0.16163688447E+03  0.32855108324E+02  0.72686492101E+03  0.74534458740E+03  0.00000000000E+00 0. -1.
         22    1    1    2    0    0 -0.44397194574E+03 -0.24697656306E+02  0.11414021993E+04  0.12249571598E+04  0.00000000000E+00 0. -1.
<mgrwt>
<rscale>  0 0.96134352E+03</rscale>
<asrwt>0</asrwt>
<pdfrwt beam="1">  1        2 0.57253439E+00 0.96134352E+03</pdfrwt>
<pdfrwt beam="2">  1       -2 0.95514416E-02 0.96134352E+03</pdfrwt>
<totfact> 0.43878877E+01</totfact>
</mgrwt>
</event>
<event>
 6    1  0.5026615E-004  0.3863850E+04  0.7818608E-02  0.8032590E-01
          2   -1    0    0  501    0  0.00000000000E+00  0.00000000000E+00  0.29129689650E+04  0.29129689650E+04  0.00000000000E+00 0.  1.
         -2   -1    0    0    0  501 -0.00000000000E+00 -0.00000000000E+00 -0.12812815670E+04  0.12812815670E+04  0.00000000000E+00 0. -1.
         23    2    1    2    0    0  0.15832201614E+04  0.10837245621E+03 -0.37765796025E+03  0.16338209903E+04  0.91732354181E+02 0.  0.
         13    1    3    3    0    0  0.32622395623E+03  0.85703929078E+01 -0.42541819585E+02  0.32909774789E+03  0.00000000000E+00 0. -1.
        -13    1    3    3    0    0  0.12569962052E+04  0.99802063307E+02 -0.33511614067E+03  0.13047232425E+04  0.00000000000E+00 0.  1.
         22    1    1    2    0    0 -0.15832201614E+04 -0.10837245621E+03  0.20093453583E+04  0.25604295416E+04  0.00000000000E+00 0.  1.
<mgrwt>
<rscale>  0 0.38638496E+04</rscale>
<asrwt>0</asrwt>
<pdfrwt beam="1">  1        2 0.44814907E+00 0.38638496E+04</pdfrwt>
<pdfrwt beam="2">  1       -2 0.19712024E+00 0.38638496E+04</pdfrwt>
<totfact> 0.21848974E-01</totfact>
</mgrwt>
</event>
<event>
 6    1  0.5026615E-004  0.1928964E+04  0.7818608E-02  0.8640572E-01
         -2   -1    0    0    0  501 -0.00000000000E+00  0.00000000000E+00  0.65080399249E+03  0.65080399249E+03  0.00000000000E+00 0. -1.
          2   -1    0    0  501    0  0.00000000000E+00 -0.00000000000E+00 -0.14293481490E+04  0.14293481490E+04  0.00000000000E+00 0.  1.
         23    2    1    2    0    0  0.58355563052E+03 -0.30122389056E+03 -0.11484436566E+04  0.13264289521E+04  0.96010031861E+02 0.  0.
         11    1    3    3    0    0  0.35014858994E+03 -0.20535120333E+03 -0.78847687143E+03  0.88683083422E+03  0.00000000000E+00 0.  1.
        -11    1    3    3    0    0  0.23340704057E+03 -0.95872687230E+02 -0.35996678521E+03  0.43959811783E+03  0.00000000000E+00 0. -1.
         22    1    1    2    0    0 -0.58355563052E+03  0.30122389056E+03  0.36989950011E+03  0.75372318946E+03  0.00000000000E+00 0. -1.
<mgrwt>
<rscale>  0 0.19289640E+04</rscale>
<asrwt>0</asrwt>
<pdfrwt beam="1">  1        2 0.21989971E+00 0.19289640E+04</pdfrwt>
<pdfrwt beam="2">  1       -2 0.10012369E+00 0.19289640E+04</pdfrwt>
<totfact> 0.10715328E+01</totfact>
</mgrwt>
</event>
<event>
 6    1  0.5026615E-004  0.3306474E+03  0.7818608E-02  0.1070851E+00
          2   -1    0    0  501    0  0.00000000000E+00  0.00000000000E+00  0.88051172734E+03  0.88051172734E+03  0.00000000000E+00 0.  1.
         -2   -1    0    0    0  501 -0.00000000000E+00 -0.00000000000E+00 -0.31040956341E+02  0.31040956341E+02  0.00000000000E+00 0. -1.
         23    2    1    2    0    0 -0.46294286210E+01 -0.96458840576E+02  0.78307955314E+03  0.79436252478E+03  0.92046155226E+02 0.  0.
         13    1    3    3    0    0  0.23531476372E+02  0.15529110916E+01  0.66386880646E+02  0.70451116634E+02  0.00000000000E+00 0. -1.
        -13    1    3    3    0    0 -0.28160904993E+02 -0.98011751668E+02  0.71669267250E+03  0.72391140815E+03  0.00000000000E+00 0.  1.
         22    1    1    2    0    0  0.46294286210E+01  0.96458840576E+02  0.66391217857E+02  0.11719015890E+03  0.00000000000E+00 0. -1.
<mgrwt>
<rscale>  0 0.33064740E+03</rscale>
<asrwt>0</asrwt>
<pdfrwt beam="1">  1        2 0.13546332E+00 0.33064740E+03</pdfrwt>
<pdfrwt beam="2">  1       -2 0.47755324E-02 0.33064740E+03</pdfrwt>
<totfact> 0.65922749E+03</totfact>
</mgrwt>
</event>
<event>
 6    1  0.5026615E-004  0.4767167E+04  0.7818608E-02  0.7865463E-01
          2   -1    0    0  501    0  0.00000000000E+00  0.00000000000E+00  0.25790980016E+04  0.25790980016E+04  0.00000000000E+00 0.  1.
         -2   -1    0    0    0  501 -0.00000000000E+00 -0.00000000000E+00 -0.22028904232E+04  0.22028904232E+04  0.00000000000E+00 0. -1.
         23    2    1    2    0    0 -0.13882321328E+04 -0.19279661304E+04  0.37087553899E+03  0.24062211203E+04  0.90053093767E+02 0.  0.
         11    1    3    3    0    0 -0.11415312005E+04 -0.16131535886E+04  0.33820005028E+03  0.20049282422E+04  0.00000000000E+00 0.  1.
        -11    1    3    3    0    0 -0.24670093230E+03 -0.31481254176E+03  0.32675488706E+02  0.40129287809E+03  0.00000000000E+00 0. -1.
         22    1    1    2    0    0  0.13882321328E+04  0.19279661304E+04  0.53320393725E+01  0.23757673045E+04  0.00000000000E+00 0.  1.
<mgrwt>
<rscale>  0 0.47671670E+04</rscale>
<asrwt>0</asrwt>
<pdfrwt beam="1">  1        2 0.39678431E+00 0.47671670E+04</pdfrwt>
<pdfrwt beam="2">  1       -2 0.33890622E+00 0.47671670E+04</pdfrwt>
<totfact> 0.42406065E-02</totfact>
</mgrwt>
</event>
<event>
 6    1  0.5026615E-004  0.1615954E+04  0.7818608E-02  0.8810806E-01
          2   -1    0    0  501    0  0.00000000000E+00  0.00000000000E+00  0.10491336593E+04  0.10491336593E+04  0.00000000000E+00 0.  1.
         -2   -1    0    0    0  501 -0.00000000000E+00 -0.00000000000E+00 -0.62225348843E+03  0.62225348843E+03  0.00000000000E+00 0. -1.
         23    2    1    2    0    0  0.37481842531E+03  0.57788889908E+03  0.64580836647E+03  0.94863270365E+03  0.91603103673E+02 0.  0.
         11    1    3    3    0    0  0.33004347955E+03  0.48559476639E+03  0.50512142396E+03  0.77451832030E+03  0.00000000000E+00 0. -1.
        -11    1    3    3    0    0  0.44774945758E+02  0.92294132693E+02  0.14068694251E+03  0.17411438335E+03  0.00000000000E+00 0.  1.
         22    1    1    2    0    0 -0.37481842531E+03 -0.57788889908E+03 -0.21892819559E+03  0.72275444409E+03  0.00000000000E+00 0. -1.
<mgrwt>
<rscale>  0 0.16159543E+04</rscale>
<asrwt>0</asrwt>
<pdfrwt beam="1">  1        2 0.16140518E+00 0.16159543E+04</pdfrwt>
<pdfrwt beam="2">  1       -2 0.95731306E-01 0.16159543E+04</pdfrwt>
<totfact> 0.20553417E+01</totfact>
</mgrwt>
</event>
<event>
 6    1  0.5026615E-004  0.1439142E+04  0.7818608E-02  0.8925963E-01
         -2   -1    0    0    0  501 -0.00000000000E+00  0.00000000000E+00  0.41931618094E+03  0.41931618094E+03  0.00000000000E+00 0. -1.
          2   -1    0    0  501    0  0.00000000000E+00 -0.00000000000E+00 -0.12348253969E+04  0.12348253969E+04  0.00000000000E+00 0.  1.
         23    2    1    2    0    0  0.35202966004E+03 -0.13902709610E+03  0.28994610381E+03  0.48568752268E+03  0.92575437218E+02 0.  0.
         13    1    3    3    0    0  0.28181870697E+03 -0.11813916575E+03  0.18340302580E+03  0.35639208178E+03  0.00000000000E+00 0. -1.
        -13    1    3    3    0    0  0.70210953065E+02 -0.20887930344E+02  0.10654307802E+03  0.12929544090E+03  0.00000000000E+00 0.  1.
         22    1    1    2    0    0 -0.35202966004E+03  0.13902709610E+03 -0.11054553198E+04  0.11684540552E+04  0.00000000000E+00 0.  1.
<mgrwt>
<rscale>  0 0.14391418E+04</rscale>
<asrwt>0</asrwt>
<pdfrwt beam="1">  1        2 0.18997314E+00 0.14391418E+04</pdfrwt>
<pdfrwt beam="2">  1       -2 0.64510182E-01 0.14391418E+04</pdfrwt>
<totfact> 0.38889102E+01</totfact>
</mgrwt>
</event>
<event>
 6    1  0.5026615E-004  0.2508977E+04  0.7818608E-02  0.8399795E-01
         -2   -1    0    0    0  501 -0.00000000000E+00  0.00000000000E+00  0.10005606824E+04  0.10005606824E+04  0.00000000000E+00 0. -1.
          2   -1    0    0  501    0  0.00000000000E+00 -0.00000000000E+00 -0.15728590793E+04  0.15728590793E+04  0.00000000000E+00 0.  1.
         23    2    1    2    0    0  0.41213319649E+03  0.10269955047E+04 -0.88887590528E+03  0.14224224302E+04  0.92799012404E+02 0.  0.
         13    1    3    3    0    0  0.14911298133E+03  0.49207371550E+03 -0.39721694361E+03  0.64973265500E+03  0.00000000000E+00 0. -1.
        -13    1    3    3    0    0  0.26302021516E+03  0.53492178917E+03 -0.49165896167E+03  0.77268977520E+03  0.00000000000E+00 0.  1.
         22    1    1    2    0    0 -0.41213319649E+03 -0.10269955047E+04  0.31657750835E+03  0.11509973315E+04  0.00000000000E+00 0. -1.
<mgrwt>
<rscale>  0 0.25089766E+04</rscale>
<asrwt>0</asrwt>
<pdfrwt beam="1">  1        2 0.24197832E+00 0.25089766E+04</pdfrwt>
<pdfrwt beam="2">  1       -2 0.15393241E+00 0.25089766E+04</pdfrwt>
<totfact> 0.28790131E+00</totfact>
</mgrwt>
</event>
<event>
 6    1  0.5026615E-004  0.1750158E+04  0.7818608E-02  0.8733263E-01
         -2   -1    0    0    0  501 -0.00000000000E+00  0.00000000000E+00  0.62310615162E+03  0.62310615162E+03  0.00000000000E+00 0. -1.
          2   -1    0    0  501    0  0.00000000000E+00 -0.00000000000E+00 -0.12289448974E+04  0.12289448974E+04  0.00000000000E+00 0.  1.
         23    2    1    2    0    0  0.51349168906E+03  0.27945333115E+03 -0.98910810667E+03  0.11530064996E+04  0.96546685506E+02 0.  0.
         13    1    3    3    0    0  0.25364193308E+03  0.19203446613E+03 -0.54725573976E+03  0.63300893445E+03  0.00000000000E+00 0.  1.
        -13    1    3    3    0    0  0.25984975598E+03  0.87418865022E+02 -0.44185236691E+03  0.51999756518E+03  0.00000000000E+00 0. -1.
         22    1    1    2    0    0 -0.51349168906E+03 -0.27945333115E+03  0.38326936090E+03  0.69904454939E+03  0.00000000000E+00 0. -1.
<mgrwt>
<rscale>  0 0.17501579E+04</rscale>
<asrwt>0</asrwt>
<pdfrwt beam="1">  1        2 0.18906845E+00 0.17501579E+04</pdfrwt>
<pdfrwt beam="2">  1       -2 0.95862485E-01 0.17501579E+04</pdfrwt>
<totfact> 0.15745684E+01</totfact>
</mgrwt>
</event>
<event>
 6    1  0.5026615E-004  0.6179533E+04  0.7818608E-02  0.7668532E-01
         -2   -1    0    0    0  501 -0.00000000000E+00  0.00000000000E+00  0.27024138354E+04  0.27024138354E+04  0.00000000000E+00 0. -1.
          2   -1    0    0  501    0  0.00000000000E+00 -0.00000000000E+00 -0.35326402413E+04  0.35326402413E+04  0.00000000000E+00 0.  1.
         23    2    1    2    0    0 -0.20434952228E+04 -0.15356384443E+04  0.13350550950E+04  0.28850537579E+04  0.84290699607E+02 0.  0.
         11    1    3    3    0    0 -0.18535521183E+03 -0.15157169893E+03  0.10012421780E+03  0.25952917650E+03  0.00000000000E+00 0. -1.
        -11    1    3    3    0    0 -0.18581400110E+04 -0.13840667454E+04  0.12349308772E+04  0.26255245814E+04  0.00000000000E+00 0.  1.
         22    1    1    2    0    0  0.20434952228E+04  0.15356384443E+04 -0.21652815009E+04  0.33500003187E+04  0.00000000000E+00 0.  1.
<mgrwt>
<rscale>  0 0.61795326E+04</rscale>
<asrwt>0</asrwt>
<pdfrwt beam="1">  1        2 0.54348311E+00 0.61795326E+04</pdfrwt>
<pdfrwt beam="2">  1       -2 0.41575598E+00 0.61795326E+04</pdfrwt>
<totfact> 0.29934967E-03</totfact>
</mgrwt>
</event>
<event>
 6    1  0.5026615E-004  0.2489615E+04  0.7818608E-02  0.8406694E-01
         -1   -1    0    0    0  501 -0.00000000000E+00  0.00000000000E+00  0.11605128470E+04  0.11605128470E+04  0.00000000000E+00 0. -1.
          1   -1    0    0  501    0  0.00000000000E+00 -0.00000000000E+00 -0.13352253750E+04  0.13352253750E+04  0.00000000000E+00 0.  1.
         23    2    1    2    0    0  0.99135398613E+03  0.56891431463E+03  0.40251396898E+03  0.12152552459E+04  0.91551047548E+02 0.  0.
         13    1    3    3    0    0  0.78097882848E+03  0.47939454940E+03  0.29569907406E+03  0.96290446407E+03  0.00000000000E+00 0.  1.
        -13    1    3    3    0    0  0.21037515765E+03  0.89519765228E+02  0.10681489492E+03  0.25235078185E+03  0.00000000000E+00 0. -1.
         22    1    1    2    0    0 -0.99135398613E+03 -0.56891431463E+03 -0.57722649702E+03  0.12804829761E+04  0.00000000000E+00 0.  1.
<mgrwt>
<rscale>  0 0.24896154E+04</rscale>
<asrwt>0</asrwt>
<pdfrwt beam="1">  1        1 0.20541929E+00 0.24896154E+04</pdfrwt>
<pdfrwt beam="2">  1       -1 0.17854044E+00 0.24896154E+04</pdfrwt>
<totfact> 0.16186321E+00</totfact>
</mgrwt>
</event>
<event>
 6    1  0.5026615E-004  0.3672276E+04  0.7818608E-02  0.8074134E-01
          2   -1    0    0  501    0  0.00000000000E+00  0.00000000000E+00  0.12683216325E+04  0.12683216325E+04  0.00000000000E+00 0.  1.
         -2   -1    0    0    0  501 -0.00000000000E+00 -0.00000000000E+00 -0.26581607115E+04  0.26581607115E+04  0.00000000000E+00 0. -1.
         23    2    1    2    0    0 -0.10894275190E+04  0.73549500968E+03 -0.20644760784E+04  0.24490046592E+04  0.88074479729E+02 0.  0.
         13    1    3    3    0    0 -0.92741831679E+03  0.65106173539E+03 -0.17344602289E+04  0.20717959367E+04  0.00000000000E+00 0. -1.
        -13    1    3    3    0    0 -0.16200920217E+03  0.84433274288E+02 -0.33001584951E+03  0.37720872248E+03  0.00000000000E+00 0.  1.
         22    1    1    2    0    0  0.10894275190E+04 -0.73549500968E+03  0.67463699932E+03  0.14774776848E+04  0.00000000000E+00 0.  1.
<mgrwt>
<rscale>  0 0.36722760E+04</rscale>
<asrwt>0</asrwt>
<pdfrwt beam="1">  1        2 0.19512641E+00 0.36722760E+04</pdfrwt>
<pdfrwt beam="2">  1       -2 0.40894780E+00 0.36722760E+04</pdfrwt>
<totfact> 0.90572123E-02</totfact>
</mgrwt>
</event>
<event>
 6    1  0.5026615E-004  0.3045881E+04  0.7818608E-02  0.8230749E-01
          2   -1    0    0  501    0  0.00000000000E+00  0.00000000000E+00  0.26003987343E+04  0.26003987343E+04  0.00000000000E+00 0.  1.
         -2   -1    0    0    0  501 -0.00000000000E+00 -0.00000000000E+00 -0.89192007597E+03  0.89192007597E+03  0.00000000000E+00 0. -1.
         23    2    1    2    0    0  0.79819125428E+03 -0.92890661343E+03  0.18902540466E+04  0.22541673387E+04  0.90737287514E+02 0.  0.
         13    1    3    3    0    0  0.49001217653E+03 -0.60038369786E+03  0.12661012606E+04  0.14844476818E+04  0.00000000000E+00 0.  1.
        -13    1    3    3    0    0  0.30817907775E+03 -0.32852291558E+03  0.62415278596E+03  0.76971965692E+03  0.00000000000E+00 0. -1.
         22    1    1    2    0    0 -0.79819125428E+03  0.92890661343E+03 -0.18177538822E+03  0.12381514716E+04  0.00000000000E+00 0. -1.
<mgrwt>
<rscale>  0 0.30458810E+04</rscale>
<asrwt>0</asrwt>
<pdfrwt beam="1">  1        2 0.40006134E+00 0.30458810E+04</pdfrwt>
<pdfrwt beam="2">  1       -2 0.13721847E+00 0.30458810E+04</pdfrwt>
<totfact> 0.98110561E-01</totfact>
</mgrwt>
</event>
<event>
 6    1  0.5026615E-004  0.2227586E+04  0.7818608E-02  0.8507033E-01
         -2   -1    0    0    0  501 -0.00000000000E+00  0.00000000000E+00  0.54968267796E+03  0.54968267796E+03  0.00000000000E+00 0. -1.
          2   -1    0    0  501    0  0.00000000000E+00 -0.00000000000E+00 -0.22568199177E+04  0.22568199177E+04  0.00000000000E+00 0.  1.
         23    2    1    2    0    0 -0.88462451621E+03  0.17920967763E+03 -0.36019255176E+02  0.90721010592E+03  0.84000870835E+02 0.  0.
         13    1    3    3    0    0 -0.31967672451E+03  0.90351273266E+02 -0.45085335409E+02  0.33524505700E+03  0.00000000000E+00 0. -1.
        -13    1    3    3    0    0 -0.56494779170E+03  0.88858404363E+02  0.90660802331E+01  0.57196504892E+03  0.00000000000E+00 0.  1.
         22    1    1    2    0    0  0.88462451621E+03 -0.17920967763E+03 -0.16711179845E+04  0.18992924897E+04  0.00000000000E+00 0.  1.
<mgrwt>
<rscale>  0 0.22275860E+04</rscale>
<asrwt>0</asrwt>
<pdfrwt beam="1">  1        2 0.34720307E+00 0.22275860E+04</pdfrwt>
<pdfrwt beam="2">  1       -2 0.84566563E-01 0.22275860E+04</pdfrwt>
<totfact> 0.53315847E+00</totfact>
</mgrwt>
</event>
<event>
 6    1  0.5026615E-004  0.2341795E+04  0.7818608E-02  0.8461622E-01
         -2   -1    0    0    0  501 -0.00000000000E+00  0.00000000000E+00  0.14818680124E+04  0.14818680124E+04  0.00000000000E+00 0. -1.
          2   -1    0    0  501    0  0.00000000000E+00 -0.00000000000E+00 -0.92518457554E+03  0.92518457554E+03  0.00000000000E+00 0.  1.
         23    2    1    2    0    0  0.38996232385E+03  0.22444258389E+03  0.13876267242E+04  0.14621124658E+04  0.99095154043E+02 0.  0.
         13    1    3    3    0    0  0.10555475631E+03  0.10381469136E+03  0.36641021964E+03  0.39519077137E+03  0.00000000000E+00 0. -1.
        -13    1    3    3    0    0  0.28440756755E+03  0.12062789253E+03  0.10212165046E+04  0.10669216945E+04  0.00000000000E+00 0.  1.
         22    1    1    2    0    0 -0.38996232385E+03 -0.22444258389E+03 -0.83094328737E+03  0.94494012207E+03  0.00000000000E+00 0.  1.
<mgrwt>
<rscale>  0 0.23417954E+04</rscale>
<asrwt>0</asrwt>
<pdfrwt beam="1">  1        2 0.14233609E+00 0.23417954E+04</pdfrwt>
<pdfrwt beam="2">  1       -2 0.22797969E+00 0.23417954E+04</pdfrwt>
<totfact> 0.22423160E+00</totfact>
</mgrwt>
</event>
<event>
 6    1  0.5026615E-004  0.3216780E+04  0.7818608E-02  0.8184400E-01
         -2   -1    0    0    0  501 -0.00000000000E+00  0.00000000000E+00  0.10085013866E+04  0.10085013866E+04  0.00000000000E+00 0. -1.
          2   -1    0    0  501    0  0.00000000000E+00 -0.00000000000E+00 -0.25651111497E+04  0.25651111497E+04  0.00000000000E+00 0.  1.
         23    2    1    2    0    0 -0.14680904043E+04  0.64751126661E+03 -0.88126007517E+03  0.18327341728E+04  0.87948578400E+02 0.  0.
         11    1    3    3    0    0 -0.58775140259E+03  0.29860140398E+03 -0.33444997365E+03  0.73923696781E+03  0.00000000000E+00 0. -1.
        -11    1    3    3    0    0 -0.88033900170E+03  0.34890986263E+03 -0.54681010153E+03  0.10934972050E+04  0.00000000000E+00 0.  1.
         22    1    1    2    0    0  0.14680904043E+04 -0.64751126661E+03 -0.67534968797E+03  0.17408783635E+04  0.00000000000E+00 0. -1.
<mgrwt>
<rscale>  0 0.32167799E+04</rscale>
<asrwt>0</asrwt>
<pdfrwt beam="1">  1        2 0.39463248E+00 0.32167799E+04</pdfrwt>
<pdfrwt beam="2">  1       -2 0.15515406E+00 0.32167799E+04</pdfrwt>
<totfact> 0.73425998E-01</totfact>
</mgrwt>
</event>
<event>
 6    1  0.5026615E-004  0.3799041E+04  0.7818608E-02  0.8046361E-01
         -2   -1    0    0    0  501 -0.00000000000E+00  0.00000000000E+00  0.10309465246E+04  0.10309465246E+04  0.00000000000E+00 0. -1.
          2   -1    0    0  501    0  0.00000000000E+00 -0.00000000000E+00 -0.34998691487E+04  0.34998691487E+04  0.00000000000E+00 0.  1.
         23    2    1    2    0    0 -0.78551328054E+03  0.16697997931E+04 -0.17664945374E+04  0.25563112596E+04  0.94667007035E+02 0.  0.
         13    1    3    3    0    0 -0.43050753206E+03  0.80716823189E+03 -0.89025327126E+03  0.12764827366E+04  0.00000000000E+00 0.  1.
        -13    1    3    3    0    0 -0.35500574847E+03  0.86263156118E+03 -0.87624126618E+03  0.12798285230E+04  0.00000000000E+00 0. -1.
         22    1    1    2    0    0  0.78551328054E+03 -0.16697997931E+04 -0.70242808663E+03  0.19745044137E+04  0.00000000000E+00 0. -1.
<mgrwt>
<rscale>  0 0.37990409E+04</rscale>
<asrwt>0</asrwt>
<pdfrwt beam="1">  1        2 0.53844141E+00 0.37990409E+04</pdfrwt>
<pdfrwt beam="2">  1       -2 0.15860716E+00 0.37990409E+04</pdfrwt>
<totfact> 0.16790174E-01</totfact>
</mgrwt>
</event>
<event>
 6    1  0.5026615E-004  0.1733090E+04  0.7818608E-02  0.8742714E-01
          2   -1    0    0  501    0  0.00000000000E+00  0.00000000000E+00  0.22656992988E+04  0.22656992988E+04  0.00000000000E+00 0.  1.
         -2   -1    0    0    0  501 -0.00000000000E+00 -0.00000000000E+00 -0.33142101014E+03  0.33142101014E+03  0.00000000000E+00 0. -1.
         23    2    1    2    0    0 -0.81683949143E+03  0.12232909914E+03  0.13500821118E+04  0.15854502361E+04  0.93485716582E+02 0.  0.
         13    1    3    3    0    0 -0.35086758819E+03  0.40686431883E+02  0.49294633258E+03  0.60643180736E+03  0.00000000000E+00 0. -1.
        -13    1    3    3    0    0 -0.46597190324E+03  0.81642667260E+02  0.85713577925E+03  0.97901842873E+03  0.00000000000E+00 0.  1.
         22    1    1    2    0    0  0.81683949143E+03 -0.12232909914E+03  0.58419617681E+03  0.10116700728E+04  0.00000000000E+00 0. -1.
<mgrwt>
<rscale>  0 0.17330901E+04</rscale>
<asrwt>0</asrwt>
<pdfrwt beam="1">  1        2 0.34856911E+00 0.17330901E+04</pdfrwt>
<pdfrwt beam="2">  1       -2 0.50987849E-01 0.17330901E+04</pdfrwt>
<totfact> 0.16369936E+01</totfact>
</mgrwt>
</event>
<event>
 6    1  0.5026615E-004  0.1535585E+04  0.7818608E-02  0.8861128E-01
         -2   -1    0    0    0  501 -0.00000000000E+00  0.00000000000E+00  0.36305301451E+03  0.36305301451E+03  0.00000000000E+00 0. -1.
          2   -1    0    0  501    0  0.00000000000E+00 -0.00000000000E+00 -0.16237445104E+04  0.16237445104E+04  0.00000000000E+00 0.  1.
         23    2    1    2    0    0  0.18060262370E+03  0.80578195823E+02 -0.15888182469E+04  0.16036822445E+04  0.91340935572E+02 0.  0.
         13    1    3    3    0    0  0.15151067425E+03  0.71662225927E+02 -0.98966139064E+03  0.10037532701E+04  0.00000000000E+00 0.  1.
        -13    1    3    3    0    0  0.29091949456E+02  0.89159698957E+01 -0.59915685622E+03  0.59992897447E+03  0.00000000000E+00 0. -1.
         22    1    1    2    0    0 -0.18060262370E+03 -0.80578195823E+02  0.32812675100E+03  0.38311528037E+03  0.00000000000E+00 0. -1.
<mgrwt>
<rscale>  0 0.15355850E+04</rscale>
<asrwt>0</asrwt>
<pdfrwt beam="1">  1        2 0.24980685E+00 0.15355850E+04</pdfrwt>
<pdfrwt beam="2">  1       -2 0.55854310E-01 0.15355850E+04</pdfrwt>
<totfact> 0.31373671E+01</totfact>
</mgrwt>
</event>
<event>
 6    1  0.5026615E-004  0.3349998E+04  0.7818608E-02  0.8150289E-01
         -1   -1    0    0    0  501 -0.00000000000E+00  0.00000000000E+00  0.17460496311E+04  0.17460496311E+04  0.00000000000E+00 0. -1.
          1   -1    0    0  501    0  0.00000000000E+00 -0.00000000000E+00 -0.16068394348E+04  0.16068394348E+04  0.00000000000E+00 0.  1.
         23    2    1    2    0    0  0.42600615178E+03  0.66900739261E+03  0.15448864909E+04  0.17388946489E+04  0.89600209220E+02 0.  0.
         11    1    3    3    0    0  0.25369952359E+03  0.46228885449E+03  0.96762500913E+03  0.11019857492E+04  0.00000000000E+00 0.  1.
        -11    1    3    3    0    0  0.17230662819E+03  0.20671853812E+03  0.57726148179E+03  0.63690889967E+03  0.00000000000E+00 0. -1.
         22    1    1    2    0    0 -0.42600615178E+03 -0.66900739261E+03 -0.14056762947E+04  0.16139944170E+04  0.00000000000E+00 0.  1.
<mgrwt>
<rscale>  0 0.33499979E+04</rscale>
<asrwt>0</asrwt>
<pdfrwt beam="1">  1        1 0.24720607E+00 0.33499979E+04</pdfrwt>
<pdfrwt beam="2">  1       -1 0.26862302E+00 0.33499979E+04</pdfrwt>
<totfact> 0.24052294E-01</totfact>
</mgrwt>
</event>
<event>
 6    1  0.5026615E-004  0.5084139E+04  0.7818608E-02  0.7815657E-01
         -2   -1    0    0    0  501 -0.00000000000E+00  0.00000000000E+00  0.21395538466E+04  0.21395538466E+04  0.00000000000E+00 0. -1.
          2   -1    0    0  501    0  0.00000000000E+00 -0.00000000000E+00 -0.30203109483E+04  0.30203109483E+04  0.00000000000E+00 0.  1.
         23    2    1    2    0    0 -0.75252740314E+03  0.10446112116E+04 -0.26641312350E+04  0.29603345325E+04  0.92061020594E+02 0.  0.
         13    1    3    3    0    0 -0.37258852701E+03  0.54438055812E+03 -0.14635718091E+04  0.16053706248E+04  0.00000000000E+00 0. -1.
        -13    1    3    3    0    0 -0.37993887613E+03  0.50023065347E+03 -0.12005594259E+04  0.13549639077E+04  0.00000000000E+00 0.  1.
         22    1    1    2    0    0  0.75252740314E+03 -0.10446112116E+04  0.17833741332E+04  0.21995302623E+04  0.00000000000E+00 0. -1.
<mgrwt>
<rscale>  0 0.50841392E+04</rscale>
<asrwt>0</asrwt>
<pdfrwt beam="1">  1        2 0.46466322E+00 0.50841392E+04</pdfrwt>
<pdfrwt beam="2">  1       -2 0.32916213E+00 0.50841392E+04</pdfrwt>
<totfact> 0.25674946E-02</totfact>
</mgrwt>
</event>
<event>
 6    1  0.5026615E-004  0.1449290E+04  0.7818608E-02  0.8918893E-01
         -2   -1    0    0    0  501 -0.00000000000E+00  0.00000000000E+00  0.28550057939E+03  0.28550057939E+03  0.00000000000E+00 0. -1.
          2   -1    0    0  501    0  0.00000000000E+00 -0.00000000000E+00 -0.18392617766E+04  0.18392617766E+04  0.00000000000E+00 0.  1.
         23    2    1    2    0    0 -0.56155957760E+02  0.41931177104E+03  0.77906552271E+02  0.43914214443E+03  0.88320661258E+02 0.  0.
         13    1    3    3    0    0 -0.59104244909E+02  0.13019154885E+03  0.22294705535E+02  0.14470730823E+03  0.00000000000E+00 0. -1.
        -13    1    3    3    0    0  0.29482871489E+01  0.28912022219E+03  0.55611846737E+02  0.29443483621E+03  0.00000000000E+00 0.  1.
         22    1    1    2    0    0  0.56155957760E+02 -0.41931177104E+03 -0.16316677494E+04  0.16856202115E+04  0.00000000000E+00 0.  1.
<mgrwt>
<rscale>  0 0.14492899E+04</rscale>
<asrwt>0</asrwt>
<pdfrwt beam="1">  1        2 0.28296335E+00 0.14492899E+04</pdfrwt>
<pdfrwt beam="2">  1       -2 0.43923166E-01 0.14492899E+04</pdfrwt>
<totfact> 0.39124168E+01</totfact>
</mgrwt>
</event>
<event>
 6    1  0.5026615E-004  0.2074734E+04  0.7818608E-02  0.8572456E-01
          2   -1    0    0  501    0  0.00000000000E+00  0.00000000000E+00  0.20321167725E+04  0.20321167725E+04  0.00000000000E+00 0.  1.
         -2   -1    0    0    0  501 -0.00000000000E+00 -0.00000000000E+00 -0.52956136080E+03  0.52956136080E+03  0.00000000000E+00 0. -1.
         23    2    1    2    0    0  0.10299467209E+04  0.10535012810E+03  0.74397582068E+03  0.12781938548E+04  0.91600279457E+02 0.  0.
         13    1    3    3    0    0  0.72943480836E+03  0.44908588013E+02  0.55989274458E+03  0.92063663101E+03  0.00000000000E+00 0. -1.
        -13    1    3    3    0    0  0.30051191254E+03  0.60441540087E+02  0.18408307610E+03  0.35755722375E+03  0.00000000000E+00 0.  1.
         22    1    1    2    0    0 -0.10299467209E+04 -0.10535012810E+03  0.75857959100E+03  0.12834842785E+04  0.00000000000E+00 0.  1.
<mgrwt>
<rscale>  0 0.20747342E+04</rscale>
<asrwt>0</asrwt>
<pdfrwt beam="1">  1        2 0.31263335E+00 0.20747342E+04</pdfrwt>
<pdfrwt beam="2">  1       -2 0.81470979E-01 0.20747342E+04</pdfrwt>
<totfact> 0.78540354E+00</totfact>
</mgrwt>
</event>
<event>
 6    1  0.5026615E-004  0.3385595E+04  0.7818608E-02  0.8141451E-01
          2   -1    0    0  501    0  0.00000000000E+00  0.00000000000E+00  0.16110193431E+04  0.16110193431E+04  0.00000000000E+00 0.  1.
         -2   -1    0    0    0  501 -0.00000000000E+00 -0.00000000000E+00 -0.17787269753E+04  0.17787269753E+04  0.00000000000E+00 0. -1.
         23    2    1    2    0    0  0.49290790483E+03 -0.13483329186E+04  0.81190257354E+03  0.16517601225E+04  0.90365100036E+02 0.  0.
         11    1    3    3    0    0  0.39775000344E+03 -0.11296409609E+04  0.71119348327E+03  0.13928711126E+04  0.00000000000E+00 0. -1.
        -11    1    3    3    0    0  0.95157901386E+02 -0.21869195767E+03  0.10070909028E+03  0.25888900983E+03  0.00000000000E+00 0.  1.
         22    1    1    2    0    0 -0.49290790483E+03  0.13483329186E+04 -0.97961020573E+03  0.17379861959E+04  0.00000000000E+00 0. -1.
<mgrwt>
<rscale>  0 0.33855951E+04</rscale>
<asrwt>0</asrwt>
<pdfrwt beam="1">  1        2 0.24784913E+00 0.33855951E+04</pdfrwt>
<pdfrwt beam="2">  1       -2 0.27365030E+00 0.33855951E+04</pdfrwt>
<totfact> 0.41985627E-01</totfact>
</mgrwt>
</event>
<event>
 6    1  0.5026615E-004  0.4179192E+04  0.7818608E-02  0.7969342E-01
         -2   -1    0    0    0  501 -0.00000000000E+00  0.00000000000E+00  0.13355118278E+04  0.13355118278E+04  0.00000000000E+00 0. -1.
          2   -1    0    0  501    0  0.00000000000E+00 -0.00000000000E+00 -0.32694667805E+04  0.32694667805E+04  0.00000000000E+00 0.  1.
         23    2    1    2    0    0  0.12706816479E+04  0.46129416491E+03  0.78690437542E+03  0.15668048738E+04  0.90746127243E+02 0.  0.
         13    1    3    3    0    0  0.91807300949E+03  0.37301128617E+03  0.59281019442E+03  0.11547378044E+04  0.00000000000E+00 0. -1.
        -13    1    3    3    0    0  0.35260863844E+03  0.88282878737E+02  0.19409418100E+03  0.41206706939E+03  0.00000000000E+00 0.  1.
         22    1    1    2    0    0 -0.12706816479E+04 -0.46129416491E+03 -0.27208593281E+04  0.30381737344E+04  0.00000000000E+00 0.  1.
<mgrwt>
<rscale>  0 0.41791921E+04</rscale>
<asrwt>0</asrwt>
<pdfrwt beam="1">  1        2 0.50299489E+00 0.41791921E+04</pdfrwt>
<pdfrwt beam="2">  1       -2 0.20546336E+00 0.41791921E+04</pdfrwt>
<totfact> 0.11105550E-01</totfact>
</mgrwt>
</event>
<event>
 6    1  0.5026615E-004  0.1524856E+04  0.7818608E-02  0.8868090E-01
         -2   -1    0    0    0  501 -0.00000000000E+00  0.00000000000E+00  0.21926152233E+03  0.21926152233E+03  0.00000000000E+00 0. -1.
          2   -1    0    0  501    0  0.00000000000E+00 -0.00000000000E+00 -0.26511564225E+04  0.26511564225E+04  0.00000000000E+00 0.  1.
         23    2    1    2    0    0 -0.62383139955E+02 -0.52646872995E+03 -0.22446154753E+04  0.23081594965E+04  0.90778021792E+02 0.  0.
         13    1    3    3    0    0 -0.31324842787E+02 -0.33942658245E+03 -0.12505737439E+04  0.12961968753E+04  0.00000000000E+00 0.  1.
        -13    1    3    3    0    0 -0.31058297168E+02 -0.18704214749E+03 -0.99404173145E+03  0.10119626212E+04  0.00000000000E+00 0. -1.
         22    1    1    2    0    0  0.62383139955E+02  0.52646872995E+03 -0.18727942479E+03  0.56225844832E+03  0.00000000000E+00 0. -1.
<mgrwt>
<rscale>  0 0.15248562E+04</rscale>
<asrwt>0</asrwt>
<pdfrwt beam="1">  1        2 0.40787021E+00 0.15248562E+04</pdfrwt>
<pdfrwt beam="2">  1       -2 0.33732543E-01 0.15248562E+04</pdfrwt>
<totfact> 0.22588586E+01</totfact>
</mgrwt>
</event>
<event>
 6    1  0.5026615E-004  0.2748060E+04  0.7818608E-02  0.8319578E-01
         -2   -1    0    0    0  501 -0.00000000000E+00  0.00000000000E+00  0.10135185142E+04  0.10135185142E+04  0.00000000000E+00 0. -1.
          2   -1    0    0  501    0  0.00000000000E+00 -0.00000000000E+00 -0.18627763953E+04  0.18627763953E+04  0.00000000000E+00 0.  1.
         23    2    1    2    0    0  0.11648581986E+04  0.70416449294E+03 -0.60951530925E+03  0.14941882723E+04  0.91364242891E+02 0.  0.
         11    1    3    3    0    0  0.64008714634E+03  0.42059797939E+03 -0.38088603446E+03  0.85538785730E+03  0.00000000000E+00 0. -1.
        -11    1    3    3    0    0  0.52477105225E+03  0.28356651355E+03 -0.22862927479E+03  0.63880041498E+03  0.00000000000E+00 0.  1.
         22    1    1    2    0    0 -0.11648581986E+04 -0.70416449294E+03 -0.23974257180E+03  0.13821066372E+04  0.00000000000E+00 0. -1.
<mgrwt>
<rscale>  0 0.27480599E+04</rscale>
<asrwt>0</asrwt>
<pdfrwt beam="1">  1        2 0.28658098E+00 0.27480599E+04</pdfrwt>
<pdfrwt beam="2">  1       -2 0.15592593E+00 0.27480599E+04</pdfrwt>
<totfact> 0.18802108E+00</totfact>
</mgrwt>
</event>
<event>
 6    1  0.5026615E-004  0.7118382E+03  0.7818608E-02  0.9697199E-01
         -2   -1    0    0    0  501 -0.00000000000E+00  0.00000000000E+00  0.10059977597E+03  0.10059977597E+03  0.00000000000E+00 0. -1.
          2   -1    0    0  501    0  0.00000000000E+00 -0.00000000000E+00 -0.12592316303E+04  0.12592316303E+04  0.00000000000E+00 0.  1.
         23    2    1    2    0    0  0.15286631493E+02 -0.28511334128E+03 -0.20236197383E+03  0.36184574363E+03  0.91971056591E+02 0.  0.
         11    1    3    3    0    0  0.17022228277E+02 -0.34944138472E+02  0.18385413295E+01  0.38913099379E+02  0.00000000000E+00 0.  1.
        -11    1    3    3    0    0 -0.17355967845E+01 -0.25016920281E+03 -0.20420051516E+03  0.32293264425E+03  0.00000000000E+00 0. -1.
         22    1    1    2    0    0 -0.15286631493E+02  0.28511334128E+03 -0.95626988050E+03  0.99798566264E+03  0.00000000000E+00 0.  1.
<mgrwt>
<rscale>  0 0.71183824E+03</rscale>
<asrwt>0</asrwt>
<pdfrwt beam="1">  1        2 0.19372794E+00 0.71183824E+03</pdfrwt>
<pdfrwt beam="2">  1       -2 0.15476889E-01 0.71183824E+03</pdfrwt>
<totfact> 0.58611469E+02</totfact>
</mgrwt>
</event>
<event>
 6    1  0.5026615E-004  0.4638328E+04  0.7818608E-02  0.7886857E-01
          2   -1    0    0  501    0  0.00000000000E+00  0.00000000000E+00  0.22527539794E+04  0.22527539794E+04  0.00000000000E+00 0. -1.
         -2   -1    0    0    0  501 -0.00000000000E+00 -0.00000000000E+00 -0.23875313821E+04  0.23875313821E+04  0.00000000000E+00 0.  1.
         23    2    1    2    0    0 -0.14385416862E+04  0.78679351370E+03  0.15721495900E+04  0.22734211967E+04  0.91342148659E+02 0.  0.
         11    1    3    3    0    0 -0.86347089412E+03  0.47785408440E+03  0.88421285711E+03  0.13250505227E+04  0.00000000000E+00 0.  1.
        -11    1    3    3    0    0 -0.57507079206E+03  0.30893942930E+03  0.68793673290E+03  0.94837067401E+03  0.00000000000E+00 0. -1.
         22    1    1    2    0    0  0.14385416862E+04 -0.78679351370E+03 -0.17069269927E+04  0.23668641648E+04  0.00000000000E+00 0.  1.
<mgrwt>
<rscale>  0 0.46383276E+04</rscale>
<asrwt>0</asrwt>
<pdfrwt beam="1">  1        2 0.34657753E+00 0.46383276E+04</pdfrwt>
<pdfrwt beam="2">  1       -2 0.36731252E+00 0.46383276E+04</pdfrwt>
<totfact> 0.43643165E-02</totfact>
</mgrwt>
</event>
<event>
 6    1  0.5026615E-004  0.2212037E+04  0.7818608E-02  0.8513435E-01
         -2   -1    0    0    0  501 -0.00000000000E+00  0.00000000000E+00  0.85040346208E+03  0.85040346208E+03  0.00000000000E+00 0. -1.
          2   -1    0    0  501    0  0.00000000000E+00 -0.00000000000E+00 -0.14384667154E+04  0.14384667154E+04  0.00000000000E+00 0.  1.
         23    2    1    2    0    0 -0.24870330531E+03 -0.98244800734E+03 -0.74806652314E+03  0.12628787216E+04  0.90563354891E+02 0.  0.
         13    1    3    3    0    0 -0.19147073588E+03 -0.75735951563E+03 -0.62234724360E+03  0.99878454645E+03  0.00000000000E+00 0.  1.
        -13    1    3    3    0    0 -0.57232569430E+02 -0.22508849171E+03 -0.12571927954E+03  0.26409417516E+03  0.00000000000E+00 0. -1.
         22    1    1    2    0    0  0.24870330531E+03  0.98244800734E+03  0.16000326982E+03  0.10259914559E+04  0.00000000000E+00 0. -1.
<mgrwt>
<rscale>  0 0.22120371E+04</rscale>
<asrwt>0</asrwt>
<pdfrwt beam="1">  1        2 0.22130257E+00 0.22120371E+04</pdfrwt>
<pdfrwt beam="2">  1       -2 0.13083130E+00 0.22120371E+04</pdfrwt>
<totfact> 0.53690047E+00</totfact>
</mgrwt>
</event>
<event>
 6    1  0.5026615E-004  0.1187337E+04  0.7818608E-02  0.9124013E-01
          2   -1    0    0  501    0  0.00000000000E+00  0.00000000000E+00  0.28246656807E+04  0.28246656807E+04  0.00000000000E+00 0.  1.
         -2   -1    0    0    0  501 -0.00000000000E+00 -0.00000000000E+00 -0.12477308746E+03  0.12477308746E+03  0.00000000000E+00 0. -1.
         23    2    1    2    0    0 -0.10117466835E+03  0.16472807919E+03  0.27430484842E+04  0.27513628118E+04  0.91162940587E+02 0.  0.
         13    1    3    3    0    0 -0.10379961954E+03  0.13644522019E+03  0.18672377568E+04  0.18750915977E+04  0.00000000000E+00 0.  1.
        -13    1    3    3    0    0  0.26249511891E+01  0.28282858996E+02  0.87581072736E+03  0.87627121408E+03  0.00000000000E+00 0. -1.
         22    1    1    2    0    0  0.10117466835E+03 -0.16472807919E+03 -0.43155890930E+02  0.19807595642E+03  0.00000000000E+00 0. -1.
<mgrwt>
<rscale>  0 0.11873369E+04</rscale>
<asrwt>0</asrwt>
<pdfrwt beam="1">  1        2 0.43456390E+00 0.11873369E+04</pdfrwt>
<pdfrwt beam="2">  1       -2 0.19195862E-01 0.11873369E+04</pdfrwt>
<totfact> 0.51277280E+01</totfact>
</mgrwt>
</event>
<event>
 6    1  0.5026615E-004  0.2172841E+04  0.7818608E-02  0.8529818E-01
         -2   -1    0    0    0  501 -0.00000000000E+00  0.00000000000E+00  0.47878451440E+03  0.47878451440E+03  0.00000000000E+00 0. -1.
          2   -1    0    0  501    0  0.00000000000E+00 -0.00000000000E+00 -0.24652207602E+04  0.24652207602E+04  0.00000000000E+00 0.  1.
         23    2    1    2    0    0  0.53562426011E+03  0.25915862758E+03 -0.22234931129E+04  0.23034957114E+04  0.90079560363E+02 0.  0.
         11    1    3    3    0    0  0.42763665639E+03  0.23164710992E+03 -0.19036976570E+04  0.19648405184E+04  0.00000000000E+00 0.  1.
        -11    1    3    3    0    0  0.10798760372E+03  0.27511517655E+02 -0.31979545586E+03  0.33865519301E+03  0.00000000000E+00 0. -1.
         22    1    1    2    0    0 -0.53562426011E+03 -0.25915862758E+03  0.23705686711E+03  0.64050956317E+03  0.00000000000E+00 0. -1.
<mgrwt>
<rscale>  0 0.21728410E+04</rscale>
<asrwt>0</asrwt>
<pdfrwt beam="1">  1        2 0.37926473E+00 0.21728410E+04</pdfrwt>
<pdfrwt beam="2">  1       -2 0.73659157E-01 0.21728410E+04</pdfrwt>
<totfact> 0.55518606E+00</totfact>
</mgrwt>
</event>
<event>
 6    1  0.5026615E-004  0.5398305E+04  0.7818608E-02  0.7769840E-01
          2   -1    0    0  501    0  0.00000000000E+00  0.00000000000E+00  0.28585765365E+04  0.28585765365E+04  0.00000000000E+00 0.  1.
         -2   -1    0    0    0  501 -0.00000000000E+00 -0.00000000000E+00 -0.25486193589E+04  0.25486193589E+04  0.00000000000E+00 0. -1.
         23    2    1    2    0    0  0.73276731064E+03  0.46861248441E+03  0.27135830940E+04  0.28510340972E+04  0.91195522603E+02 0.  0.
         13    1    3    3    0    0  0.39592989826E+03  0.20291242503E+03  0.13265150986E+04  0.13991341048E+04  0.00000000000E+00 0.  1.
        -13    1    3    3    0    0  0.33683741238E+03  0.26570005938E+03  0.13870679954E+04  0.14518999924E+04  0.00000000000E+00 0. -1.
         22    1    1    2    0    0 -0.73276731064E+03 -0.46861248441E+03 -0.24036259165E+04  0.25561617982E+04  0.00000000000E+00 0. -1.
<mgrwt>
<rscale>  0 0.53983047E+04</rscale>
<asrwt>0</asrwt>
<pdfrwt beam="1">  1        2 0.43978101E+00 0.53983047E+04</pdfrwt>
<pdfrwt beam="2">  1       -2 0.39209529E+00 0.53983047E+04</pdfrwt>
<totfact> 0.12567312E-02</totfact>
</mgrwt>
</event>
<event>
 6    1  0.5026615E-004  0.2263800E+04  0.7818608E-02  0.8492333E-01
         -2   -1    0    0    0  501 -0.00000000000E+00  0.00000000000E+00  0.10646294626E+04  0.10646294626E+04  0.00000000000E+00 0. -1.
          2   -1    0    0  501    0  0.00000000000E+00 -0.00000000000E+00 -0.12034211303E+04  0.12034211303E+04  0.00000000000E+00 0.  1.
         23    2    1    2    0    0 -0.10183718828E+04 -0.48271674416E+03  0.13933641919E+02  0.11307635725E+04  0.91298212338E+02 0.  0.
         13    1    3    3    0    0 -0.84445222040E+03 -0.43241385024E+03 -0.48970554455E+01  0.94873877941E+03  0.00000000000E+00 0.  1.
        -13    1    3    3    0    0 -0.17391966243E+03 -0.50302893927E+02  0.18830697365E+02  0.18202479304E+03  0.00000000000E+00 0. -1.
         22    1    1    2    0    0  0.10183718828E+04  0.48271674416E+03 -0.15272530959E+03  0.11372870205E+04  0.00000000000E+00 0. -1.
<mgrwt>
<rscale>  0 0.22638000E+04</rscale>
<asrwt>0</asrwt>
<pdfrwt beam="1">  1        2 0.18514171E+00 0.22638000E+04</pdfrwt>
<pdfrwt beam="2">  1       -2 0.16378915E+00 0.22638000E+04</pdfrwt>
<totfact> 0.40500971E+00</totfact>
</mgrwt>
</event>
<event>
 6    1  0.5026615E-004  0.2366866E+04  0.7818608E-02  0.8452013E-01
         -2   -1    0    0    0  501 -0.00000000000E+00  0.00000000000E+00  0.11069840276E+04  0.11069840276E+04  0.00000000000E+00 0. -1.
          2   -1    0    0  501    0  0.00000000000E+00 -0.00000000000E+00 -0.12651620944E+04  0.12651620944E+04  0.00000000000E+00 0.  1.
         23    2    1    2    0    0  0.34950750235E+02  0.74908570820E+03 -0.99469219602E+03  0.12487108361E+04  0.86690450463E+02 0.  0.
         11    1    3    3    0    0  0.40540712592E+02  0.25736891144E+03 -0.29622286549E+03  0.39450005323E+03  0.00000000000E+00 0. -1.
        -11    1    3    3    0    0 -0.55899623567E+01  0.49171679676E+03 -0.69846933053E+03  0.85421078288E+03  0.00000000000E+00 0.  1.
         22    1    1    2    0    0 -0.34950750235E+02 -0.74908570820E+03  0.83651412918E+03  0.11234352859E+04  0.00000000000E+00 0. -1.
<mgrwt>
<rscale>  0 0.23668665E+04</rscale>
<asrwt>0</asrwt>
<pdfrwt beam="1">  1        2 0.19464032E+00 0.23668665E+04</pdfrwt>
<pdfrwt beam="2">  1       -2 0.17030524E+00 0.23668665E+04</pdfrwt>
<totfact> 0.33135169E+00</totfact>
</mgrwt>
</event>
<event>
 6    1  0.5026615E-004  0.4461193E+04  0.7818608E-02  0.7917466E-01
         -2   -1    0    0    0  501 -0.00000000000E+00  0.00000000000E+00  0.19165280255E+04  0.19165280255E+04  0.00000000000E+00 0. -1.
          2   -1    0    0  501    0  0.00000000000E+00 -0.00000000000E+00 -0.25961322387E+04  0.25961322387E+04  0.00000000000E+00 0.  1.
         23    2    1    2    0    0  0.11945643057E+04  0.18087627254E+04  0.18831764121E+03  0.21777309670E+04  0.91881193050E+02 0.  0.
         13    1    3    3    0    0  0.68001534121E+03  0.10033290732E+04  0.61859610067E+02  0.12136377981E+04  0.00000000000E+00 0. -1.
        -13    1    3    3    0    0  0.51454896445E+03  0.80543365217E+03  0.12645803114E+03  0.96409316899E+03  0.00000000000E+00 0.  1.
         22    1    1    2    0    0 -0.11945643057E+04 -0.18087627254E+04 -0.86792185449E+03  0.23349292972E+04  0.00000000000E+00 0.  1.
<mgrwt>
<rscale>  0 0.44611928E+04</rscale>
<asrwt>0</asrwt>
<pdfrwt beam="1">  1        2 0.39940496E+00 0.44611928E+04</pdfrwt>
<pdfrwt beam="2">  1       -2 0.29485047E+00 0.44611928E+04</pdfrwt>
<totfact> 0.79463095E-02</totfact>
</mgrwt>
</event>
<event>
 6    1  0.5026615E-004  0.3253524E+04  0.7818608E-02  0.8174823E-01
         -2   -1    0    0    0  501 -0.00000000000E+00  0.00000000000E+00  0.16580824856E+04  0.16580824856E+04  0.00000000000E+00 0. -1.
          2   -1    0    0  501    0  0.00000000000E+00 -0.00000000000E+00 -0.15960329098E+04  0.15960329098E+04  0.00000000000E+00 0.  1.
         23    2    1    2    0    0  0.14722243544E+04  0.26403476101E+03 -0.60545805662E+03  0.16162126681E+04  0.91678927456E+02 0.  0.
         13    1    3    3    0    0  0.33372449946E+01  0.31422413000E+01 -0.78580336706E+01  0.90972291227E+01  0.00000000000E+00 0.  1.
        -13    1    3    3    0    0  0.14688871094E+04  0.26089251971E+03 -0.59760002295E+03  0.16071154390E+04  0.00000000000E+00 0. -1.
         22    1    1    2    0    0 -0.14722243544E+04 -0.26403476101E+03  0.66750763237E+03  0.16379027272E+04  0.00000000000E+00 0.  1.
<mgrwt>
<rscale>  0 0.32535238E+04</rscale>
<asrwt>0</asrwt>
<pdfrwt beam="1">  1        2 0.24554353E+00 0.32535238E+04</pdfrwt>
<pdfrwt beam="2">  1       -2 0.25508961E+00 0.32535238E+04</pdfrwt>
<totfact> 0.56193989E-01</totfact>
</mgrwt>
</event>
<event>
 6    1  0.5026615E-004  0.4599467E+04  0.7818608E-02  0.7893451E-01
          2   -1    0    0  501    0  0.00000000000E+00  0.00000000000E+00  0.39049740742E+04  0.39049740742E+04  0.00000000000E+00 0.  1.
         -2   -1    0    0    0  501 -0.00000000000E+00 -0.00000000000E+00 -0.13543688437E+04  0.13543688437E+04  0.00000000000E+00 0. -1.
         23    2    1    2    0    0 -0.18885562499E+03  0.22825305614E+04  0.15018123102E+04  0.27402996867E+04  0.90498326515E+02 0.  0.
         13    1    3    3    0    0 -0.52663576030E+01  0.33869450242E+03  0.24963695562E+03  0.42078534920E+03  0.00000000000E+00 0. -1.
        -13    1    3    3    0    0 -0.18358926739E+03  0.19438360590E+04  0.12521753546E+04  0.23195143375E+04  0.00000000000E+00 0.  1.
         22    1    1    2    0    0  0.18885562499E+03 -0.22825305614E+04  0.10487929202E+04  0.25190432311E+04  0.00000000000E+00 0. -1.
<mgrwt>
<rscale>  0 0.45994675E+04</rscale>
<asrwt>0</asrwt>
<pdfrwt beam="1">  1        2 0.60076524E+00 0.45994675E+04</pdfrwt>
<pdfrwt beam="2">  1       -2 0.20836444E+00 0.45994675E+04</pdfrwt>
<totfact> 0.35790988E-02</totfact>
</mgrwt>
</event>
<event>
 6    1  0.5026615E-004  0.2646012E+04  0.7818608E-02  0.8352738E-01
         -2   -1    0    0    0  501 -0.00000000000E+00  0.00000000000E+00  0.60344801313E+03  0.60344801313E+03  0.00000000000E+00 0. -1.
          2   -1    0    0  501    0  0.00000000000E+00 -0.00000000000E+00 -0.29005719300E+04  0.29005719300E+04  0.00000000000E+00 0.  1.
         23    2    1    2    0    0  0.78795601656E+03 -0.37588830160E+03  0.16355744306E+03  0.89305853889E+03  0.92929098706E+02 0.  0.
         13    1    3    3    0    0  0.67216163888E+03 -0.32712357405E+03  0.10656909321E+03  0.75509474446E+03  0.00000000000E+00 0. -1.
        -13    1    3    3    0    0  0.11579437767E+03 -0.48764727559E+02  0.56988349841E+02  0.13796379443E+03  0.00000000000E+00 0.  1.
         22    1    1    2    0    0 -0.78795601656E+03  0.37588830160E+03 -0.24606813599E+04  0.26109614042E+04  0.00000000000E+00 0.  1.
<mgrwt>
<rscale>  0 0.26460116E+04</rscale>
<asrwt>0</asrwt>
<pdfrwt beam="1">  1        2 0.44624183E+00 0.26460116E+04</pdfrwt>
<pdfrwt beam="2">  1       -2 0.92838157E-01 0.26460116E+04</pdfrwt>
<totfact> 0.17392360E+00</totfact>
</mgrwt>
</event>
<event>
 6    1  0.5026615E-004  0.2998456E+04  0.7818608E-02  0.8244172E-01
          2   -1    0    0  501    0  0.00000000000E+00  0.00000000000E+00  0.20767445391E+04  0.20767445391E+04  0.00000000000E+00 0.  1.
         -2   -1    0    0    0  501 -0.00000000000E+00 -0.00000000000E+00 -0.10823113360E+04  0.10823113360E+04  0.00000000000E+00 0. -1.
         23    2    1    2    0    0  0.71182325573E+03  0.72221415820E+03  0.16590773208E+04  0.19466048694E+04  0.91909323167E+02 0.  0.
         13    1    3    3    0    0  0.42025237117E+03  0.46361482894E+03  0.95197341708E+03  0.11392120750E+04  0.00000000000E+00 0.  1.
        -13    1    3    3    0    0  0.29157088457E+03  0.25859932926E+03  0.70710390372E+03  0.80739279441E+03  0.00000000000E+00 0. -1.
         22    1    1    2    0    0 -0.71182325573E+03 -0.72221415820E+03 -0.66464411771E+03  0.12124510056E+04  0.00000000000E+00 0. -1.
<mgrwt>
<rscale>  0 0.29984557E+04</rscale>
<asrwt>0</asrwt>
<pdfrwt beam="1">  1        2 0.31949916E+00 0.29984557E+04</pdfrwt>
<pdfrwt beam="2">  1       -2 0.16650944E+00 0.29984557E+04</pdfrwt>
<totfact> 0.11702896E+00</totfact>
</mgrwt>
</event>
<event>
 6    1  0.5026615E-004  0.4687879E+04  0.7818608E-02  0.7878546E-01
          2   -1    0    0  501    0  0.00000000000E+00  0.00000000000E+00  0.18520288209E+04  0.18520288209E+04  0.00000000000E+00 0.  1.
         -2   -1    0    0    0  501 -0.00000000000E+00 -0.00000000000E+00 -0.29665043634E+04  0.29665043634E+04  0.00000000000E+00 0. -1.
         23    2    1    2    0    0  0.34122308596E+03 -0.41217206270E+03 -0.29021727438E+04  0.29524730868E+04  0.90397397496E+02 0.  0.
         11    1    3    3    0    0  0.13051883345E+03 -0.19026089617E+03 -0.10363354896E+04  0.10617088214E+04  0.00000000000E+00 0. -1.
        -11    1    3    3    0    0  0.21070425251E+03 -0.22191116653E+03 -0.18658372543E+04  0.18907642654E+04  0.00000000000E+00 0.  1.
         22    1    1    2    0    0 -0.34122308596E+03  0.41217206270E+03  0.17876972014E+04  0.18660600975E+04  0.00000000000E+00 0.  1.
<mgrwt>
<rscale>  0 0.46878787E+04</rscale>
<asrwt>0</asrwt>
<pdfrwt beam="1">  1        2 0.28492751E+00 0.46878787E+04</pdfrwt>
<pdfrwt beam="2">  1       -2 0.45638529E+00 0.46878787E+04</pdfrwt>
<totfact> 0.19019476E-02</totfact>
</mgrwt>
</event>
<event>
 6    1  0.5026615E-004  0.2945811E+04  0.7818608E-02  0.8259376E-01
         -2   -1    0    0    0  501 -0.00000000000E+00  0.00000000000E+00  0.86603066051E+03  0.86603066051E+03  0.00000000000E+00 0. -1.
          2   -1    0    0  501    0  0.00000000000E+00 -0.00000000000E+00 -0.25050500864E+04  0.25050500864E+04  0.00000000000E+00 0.  1.
         23    2    1    2    0    0  0.11495880915E+04 -0.83145439319E+03 -0.12670522338E+04  0.19043739664E+04  0.91376433973E+02 0.  0.
         13    1    3    3    0    0  0.28749507781E+03 -0.19441560260E+03 -0.36169135264E+03  0.50126986831E+03  0.00000000000E+00 0. -1.
        -13    1    3    3    0    0  0.86209301368E+03 -0.63703879059E+03 -0.90536088113E+03  0.14031040981E+04  0.00000000000E+00 0.  1.
         22    1    1    2    0    0 -0.11495880915E+04  0.83145439319E+03 -0.37196719213E+03  0.14667067805E+04  0.00000000000E+00 0.  1.
<mgrwt>
<rscale>  0 0.29458107E+04</rscale>
<asrwt>0</asrwt>
<pdfrwt beam="1">  1        2 0.38539232E+00 0.29458107E+04</pdfrwt>
<pdfrwt beam="2">  1       -2 0.13323549E+00 0.29458107E+04</pdfrwt>
<totfact> 0.12127109E+00</totfact>
</mgrwt>
</event>
<event>
 6    1  0.5026615E-004  0.3638066E+04  0.7818608E-02  0.8081827E-01
          2   -1    0    0  501    0  0.00000000000E+00  0.00000000000E+00  0.20062802867E+04  0.20062802867E+04  0.00000000000E+00 0.  1.
         -2   -1    0    0    0  501 -0.00000000000E+00 -0.00000000000E+00 -0.16492615848E+04  0.16492615848E+04  0.00000000000E+00 0. -1.
         23    2    1    2    0    0 -0.10678683781E+04 -0.14700962488E+04  0.12139434606E+03  0.18233178975E+04  0.90695724644E+02 0.  0.
         11    1    3    3    0    0 -0.64700476417E+03 -0.91671027653E+03  0.33480632497E+02  0.11225390188E+04  0.00000000000E+00 0. -1.
        -11    1    3    3    0    0 -0.42086361397E+03 -0.55338597226E+03  0.87913713568E+02  0.70077887874E+03  0.00000000000E+00 0.  1.
         22    1    1    2    0    0  0.10678683781E+04  0.14700962488E+04  0.23562435591E+03  0.18322239740E+04  0.00000000000E+00 0. -1.
<mgrwt>
<rscale>  0 0.36380660E+04</rscale>
<asrwt>0</asrwt>
<pdfrwt beam="1">  1        2 0.30865851E+00 0.36380660E+04</pdfrwt>
<pdfrwt beam="2">  1       -2 0.25373255E+00 0.36380660E+04</pdfrwt>
<totfact> 0.32825821E-01</totfact>
</mgrwt>
</event>
<event>
 6    1  0.5026615E-004  0.1980944E+04  0.7818608E-02  0.8615582E-01
          2   -1    0    0  501    0  0.00000000000E+00  0.00000000000E+00  0.36477322769E+04  0.36477322769E+04  0.00000000000E+00 0.  1.
         -2   -1    0    0    0  501 -0.00000000000E+00 -0.00000000000E+00 -0.26894379225E+03  0.26894379225E+03  0.00000000000E+00 0. -1.
         23    2    1    2    0    0 -0.91207765309E+03  0.34227665018E+03  0.20229606215E+04  0.22471527405E+04  0.91031930382E+02 0.  0.
         11    1    3    3    0    0 -0.12711153746E+03  0.18313272856E+02  0.23596242180E+03  0.26864657715E+03  0.00000000000E+00 0. -1.
        -11    1    3    3    0    0 -0.78496611563E+03  0.32396337733E+03  0.17869981997E+04  0.19785061633E+04  0.00000000000E+00 0.  1.
         22    1    1    2    0    0  0.91207765309E+03 -0.34227665018E+03  0.13558278631E+04  0.16695233287E+04  0.00000000000E+00 0. -1.
<mgrwt>
<rscale>  0 0.19809442E+04</rscale>
<asrwt>0</asrwt>
<pdfrwt beam="1">  1        2 0.56118954E+00 0.19809442E+04</pdfrwt>
<pdfrwt beam="2">  1       -2 0.41375971E-01 0.19809442E+04</pdfrwt>
<totfact> 0.33066540E+00</totfact>
</mgrwt>
</event>
<event>
 6    1  0.5026615E-004  0.1031658E+04  0.7818608E-02  0.9274489E-01
          4   -1    0    0  501    0  0.00000000000E+00  0.00000000000E+00  0.16447678753E+03  0.16447678753E+03  0.00000000000E+00 0.  1.
         -4   -1    0    0    0  501 -0.00000000000E+00 -0.00000000000E+00 -0.16177322795E+04  0.16177322795E+04  0.00000000000E+00 0. -1.
         23    2    1    2    0    0 -0.21406603207E+02 -0.33194564236E+03 -0.14043051688E+04  0.14459914496E+04  0.90399739820E+02 0.  0.
         11    1    3    3    0    0 -0.44051934723E+02 -0.11932875426E+03 -0.42560424132E+03  0.44420591483E+03  0.00000000000E+00 0.  1.
        -11    1    3    3    0    0  0.22645331516E+02 -0.21261688811E+03 -0.97870092753E+03  0.10017855348E+04  0.00000000000E+00 0. -1.
         22    1    1    2    0    0  0.21406603207E+02  0.33194564236E+03 -0.48950323158E+02  0.33621761745E+03  0.00000000000E+00 0.  1.
<mgrwt>
<rscale>  0 0.10316577E+04</rscale>
<asrwt>0</asrwt>
<pdfrwt beam="1">  1        4 0.25304120E-01 0.10316577E+04</pdfrwt>
<pdfrwt beam="2">  1       -4 0.24888190E+00 0.10316577E+04</pdfrwt>
<totfact> 0.19159750E+00</totfact>
</mgrwt>
</event>
<event>
 6    1  0.5026615E-004  0.1199300E+04  0.7818608E-02  0.9113469E-01
         -2   -1    0    0    0  501 -0.00000000000E+00  0.00000000000E+00  0.20916636845E+03  0.20916636845E+03  0.00000000000E+00 0. -1.
          2   -1    0    0  501    0  0.00000000000E+00 -0.00000000000E+00 -0.17191110412E+04  0.17191110412E+04  0.00000000000E+00 0.  1.
         23    2    1    2    0    0  0.46045312769E+03  0.23184997042E+03 -0.12408255847E+04  0.13467307003E+04  0.90906302896E+02 0.  0.
         13    1    3    3    0    0  0.16741806209E+03  0.13348007941E+03 -0.48693131544E+03  0.53192842100E+03  0.00000000000E+00 0.  1.
        -13    1    3    3    0    0  0.29303506560E+03  0.98369891005E+02 -0.75389426925E+03  0.81480227929E+03  0.00000000000E+00 0. -1.
         22    1    1    2    0    0 -0.46045312769E+03 -0.23184997042E+03 -0.26911908803E+03  0.58154670933E+03  0.00000000000E+00 0. -1.
<mgrwt>
<rscale>  0 0.11993002E+04</rscale>
<asrwt>0</asrwt>
<pdfrwt beam="1">  1        2 0.26447862E+00 0.11993002E+04</pdfrwt>
<pdfrwt beam="2">  1       -2 0.32179441E-01 0.11993002E+04</pdfrwt>
<totfact> 0.84874166E+01</totfact>
</mgrwt>
</event>
<event>
 6    1  0.5026615E-004  0.2865081E+04  0.7818608E-02  0.8283343E-01
          2   -1    0    0  501    0  0.00000000000E+00  0.00000000000E+00  0.39132282690E+04  0.39132282690E+04  0.00000000000E+00 0.  1.
         -2   -1    0    0    0  501 -0.00000000000E+00 -0.00000000000E+00 -0.52441938575E+03  0.52441938575E+03  0.00000000000E+00 0. -1.
         23    2    1    2    0    0 -0.88750442844E+03  0.12484245209E+03 -0.32105981842E+02  0.90127829302E+03  0.89565724763E+02 0.  0.
         13    1    3    3    0    0 -0.25725583896E+03  0.40239533861E+02  0.31139118015E+02  0.26223926371E+03  0.00000000000E+00 0.  1.
        -13    1    3    3    0    0 -0.63024858949E+03  0.84602918233E+02 -0.63245099857E+02  0.63903902931E+03  0.00000000000E+00 0. -1.
         22    1    1    2    0    0  0.88750442844E+03 -0.12484245209E+03  0.34209148651E+04  0.35363693617E+04  0.00000000000E+00 0.  1.
<mgrwt>
<rscale>  0 0.28650813E+04</rscale>
<asrwt>0</asrwt>
<pdfrwt beam="1">  1        2 0.60203510E+00 0.28650813E+04</pdfrwt>
<pdfrwt beam="2">  1       -2 0.80679908E-01 0.28650813E+04</pdfrwt>
<totfact> 0.47116176E-01</totfact>
</mgrwt>
</event>
<event>
 6    1  0.5026615E-004  0.2313461E+04  0.7818608E-02  0.8472632E-01
         -2   -1    0    0    0  501 -0.00000000000E+00  0.00000000000E+00  0.70462262076E+03  0.70462262076E+03  0.00000000000E+00 0. -1.
          2   -1    0    0  501    0  0.00000000000E+00 -0.00000000000E+00 -0.18989253047E+04  0.18989253047E+04  0.00000000000E+00 0.  1.
         23    2    1    2    0    0  0.62097387932E+03 -0.96307166676E+03 -0.43684453523E+03  0.12299182661E+04  0.93542499261E+02 0.  0.
         13    1    3    3    0    0  0.47234620965E+03 -0.72276758135E+03 -0.28561346278E+03  0.90943882067E+03  0.00000000000E+00 0.  1.
        -13    1    3    3    0    0  0.14862766967E+03 -0.24030408541E+03 -0.15123107246E+03  0.32047944541E+03  0.00000000000E+00 0. -1.
         22    1    1    2    0    0 -0.62097387932E+03  0.96307166676E+03 -0.75745814873E+03  0.13736296594E+04  0.00000000000E+00 0. -1.
<mgrwt>
<rscale>  0 0.23134612E+04</rscale>
<asrwt>0</asrwt>
<pdfrwt beam="1">  1        2 0.29214235E+00 0.23134612E+04</pdfrwt>
<pdfrwt beam="2">  1       -2 0.10840348E+00 0.23134612E+04</pdfrwt>
<totfact> 0.46873518E+00</totfact>
</mgrwt>
</event>
<event>
 6    1  0.6158003E-004  0.2760667E+04  0.7818608E-02  0.8315585E-01
         -1   -1    0    0    0  501 -0.00000000000E+00  0.00000000000E+00  0.73945831879E+03  0.73945831879E+03  0.00000000000E+00 0. -1.
          1   -1    0    0  501    0  0.00000000000E+00 -0.00000000000E+00 -0.25766427502E+04  0.25766427502E+04  0.00000000000E+00 0.  1.
         23    2    1    2    0    0  0.40422753182E+03 -0.40688127147E+03  0.58666148544E+03  0.82532181438E+03  0.89622163744E+02 0.  0.
         13    1    3    3    0    0  0.17023611736E+03 -0.16967624155E+03  0.30984766851E+03  0.39214275498E+03  0.00000000000E+00 0. -1.
        -13    1    3    3    0    0  0.23399141446E+03 -0.23720502992E+03  0.27681381694E+03  0.43317905940E+03  0.00000000000E+00 0.  1.
         22    1    1    2    0    0 -0.40422753182E+03  0.40688127147E+03 -0.24238459169E+04  0.24907792546E+04  0.00000000000E+00 0.  1.
<mgrwt>
<rscale>  0 0.27606665E+04</rscale>
<asrwt>0</asrwt>
<pdfrwt beam="1">  1        1 0.39640657E+00 0.27606665E+04</pdfrwt>
<pdfrwt beam="2">  1       -1 0.11376282E+00 0.27606665E+04</pdfrwt>
<totfact> 0.73275657E-01</totfact>
</mgrwt>
</event>
<event>
 6    1  0.5026615E-004  0.2984157E+04  0.7818608E-02  0.8248269E-01
          2   -1    0    0  501    0  0.00000000000E+00  0.00000000000E+00  0.37407525394E+04  0.37407525394E+04  0.00000000000E+00 0.  1.
         -2   -1    0    0    0  501 -0.00000000000E+00 -0.00000000000E+00 -0.59514726165E+03  0.59514726165E+03  0.00000000000E+00 0. -1.
         23    2    1    2    0    0  0.22162527025E+03  0.12675470765E+04  0.48040631095E+03  0.13763256958E+04  0.87686064191E+02 0.  0.
         11    1    3    3    0    0  0.54669845553E+02  0.15299617335E+03  0.70533975696E+02  0.17712047539E+03  0.00000000000E+00 0. -1.
        -11    1    3    3    0    0  0.16695542470E+03  0.11145509032E+04  0.40987233526E+03  0.11992052205E+04  0.00000000000E+00 0.  1.
         22    1    1    2    0    0 -0.22162527025E+03 -0.12675470765E+04  0.26651989668E+04  0.29595741052E+04  0.00000000000E+00 0.  1.
<mgrwt>
<rscale>  0 0.29841573E+04</rscale>
<asrwt>0</asrwt>
<pdfrwt beam="1">  1        2 0.57550038E+00 0.29841573E+04</pdfrwt>
<pdfrwt beam="2">  1       -2 0.91561119E-01 0.29841573E+04</pdfrwt>
<totfact> 0.47353435E-01</totfact>
</mgrwt>
</event>
<event>
 6    1  0.5026615E-004  0.3385483E+04  0.7818608E-02  0.8141478E-01
          1   -1    0    0  501    0  0.00000000000E+00  0.00000000000E+00  0.31322495339E+04  0.31322495339E+04  0.00000000000E+00 0. -1.
         -1   -1    0    0    0  501 -0.00000000000E+00 -0.00000000000E+00 -0.91479764192E+03  0.91479764192E+03  0.00000000000E+00 0.  1.
         23    2    1    2    0    0 -0.53405841565E+02 -0.70098405346E+03  0.29480301504E+04  0.30331559494E+04  0.12215735105E+03 0.  0.
         11    1    3    3    0    0  0.16916912761E+01 -0.18493106080E+03  0.10126360203E+04  0.10293852868E+04  0.00000000000E+00 0.  1.
        -11    1    3    3    0    0 -0.55097532841E+02 -0.51605299266E+03  0.19353941301E+04  0.20037706626E+04  0.00000000000E+00 0. -1.
         22    1    1    2    0    0  0.53405841565E+02  0.70098405346E+03 -0.73057825851E+03  0.10138912264E+04  0.00000000000E+00 0.  1.
<mgrwt>
<rscale>  0 0.33854834E+04</rscale>
<asrwt>0</asrwt>
<pdfrwt beam="1">  1        1 0.48188454E+00 0.33854834E+04</pdfrwt>
<pdfrwt beam="2">  1       -1 0.14073810E+00 0.33854834E+04</pdfrwt>
<totfact> 0.16248630E-01</totfact>
</mgrwt>
</event>
<event>
 6    1  0.5026615E-004  0.1073083E+04  0.7818608E-02  0.9231832E-01
         -2   -1    0    0    0  501 -0.00000000000E+00  0.00000000000E+00  0.31677003049E+03  0.31677003049E+03  0.00000000000E+00 0. -1.
          2   -1    0    0  501    0  0.00000000000E+00 -0.00000000000E+00 -0.90878760851E+03  0.90878760851E+03  0.00000000000E+00 0.  1.
         23    2    1    2    0    0  0.26073958759E+03  0.24430067551E+03  0.15308917882E+03  0.39920902511E+03  0.90904325905E+02 0.  0.
         11    1    3    3    0    0  0.15915777489E+03  0.20322043187E+03  0.93940885212E+02  0.27469006380E+03  0.00000000000E+00 0. -1.
        -11    1    3    3    0    0  0.10158181270E+03  0.41080243640E+02  0.59148293612E+02  0.12451896131E+03  0.00000000000E+00 0.  1.
         22    1    1    2    0    0 -0.26073958759E+03 -0.24430067551E+03 -0.74510675684E+03  0.82634861389E+03  0.00000000000E+00 0.  1.
<mgrwt>
<rscale>  0 0.10730828E+04</rscale>
<asrwt>0</asrwt>
<pdfrwt beam="1">  1        2 0.13981348E+00 0.10730828E+04</pdfrwt>
<pdfrwt beam="2">  1       -2 0.48733851E-01 0.10730828E+04</pdfrwt>
<totfact> 0.11466106E+02</totfact>
</mgrwt>
</event>
<event>
 6    1  0.5026615E-004  0.2180479E+04  0.7818608E-02  0.8526597E-01
         -2   -1    0    0    0  501 -0.00000000000E+00  0.00000000000E+00  0.47531594021E+03  0.47531594021E+03  0.00000000000E+00 0. -1.
          2   -1    0    0  501    0  0.00000000000E+00 -0.00000000000E+00 -0.25007002612E+04  0.25007002612E+04  0.00000000000E+00 0.  1.
         23    2    1    2    0    0  0.69362368548E+03 -0.78008558600E+03 -0.59418548599E+03  0.12045824759E+04  0.91187778375E+02 0.  0.
         11    1    3    3    0    0  0.19854540840E+03 -0.27630067856E+03 -0.22118255568E+03  0.40581284739E+03  0.00000000000E+00 0.  1.
        -11    1    3    3    0    0  0.49507827708E+03 -0.50378490744E+03 -0.37300293031E+03  0.79876962851E+03  0.00000000000E+00 0. -1.
         22    1    1    2    0    0 -0.69362368548E+03  0.78008558600E+03 -0.14311988350E+04  0.17714337255E+04  0.00000000000E+00 0.  1.
<mgrwt>
<rscale>  0 0.21804795E+04</rscale>
<asrwt>0</asrwt>
<pdfrwt beam="1">  1        2 0.38472313E+00 0.21804795E+04</pdfrwt>
<pdfrwt beam="2">  1       -2 0.73125527E-01 0.21804795E+04</pdfrwt>
<totfact> 0.53779491E+00</totfact>
</mgrwt>
</event>
<event>
 6    1  0.5026615E-004  0.7960847E+04  0.7818608E-02  0.7485720E-01
          2   -1    0    0  501    0  0.00000000000E+00  0.00000000000E+00  0.32250366689E+04  0.32250366689E+04  0.00000000000E+00 0.  1.
         -2   -1    0    0    0  501 -0.00000000000E+00 -0.00000000000E+00 -0.49127413727E+04  0.49127413727E+04  0.00000000000E+00 0. -1.
         23    2    1    2    0    0  0.20266844759E+04  0.17069731417E+04 -0.38795641780E+04  0.46989620788E+04  0.89549627517E+02 0.  0.
         13    1    3    3    0    0  0.17778866617E+04  0.14707966707E+04 -0.33373609882E+04  0.40573516232E+04  0.00000000000E+00 0. -1.
        -13    1    3    3    0    0  0.24879781418E+03  0.23617647101E+03 -0.54220318980E+03  0.64161045568E+03  0.00000000000E+00 0.  1.
         22    1    1    2    0    0 -0.20266844759E+04 -0.17069731417E+04  0.21918594741E+04  0.34388159628E+04  0.00000000000E+00 0.  1.
<mgrwt>
<rscale>  0 0.79608470E+04</rscale>
<asrwt>0</asrwt>
<pdfrwt beam="1">  1        2 0.49615949E+00 0.79608470E+04</pdfrwt>
<pdfrwt beam="2">  1       -2 0.75580637E+00 0.79608470E+04</pdfrwt>
<totfact> 0.99818082E-05</totfact>
</mgrwt>
</event>
<event>
 6    1  0.5026615E-004  0.3039889E+04  0.7818608E-02  0.8232431E-01
         -2   -1    0    0    0  501 -0.00000000000E+00  0.00000000000E+00  0.11086364697E+04  0.11086364697E+04  0.00000000000E+00 0. -1.
          2   -1    0    0  501    0  0.00000000000E+00 -0.00000000000E+00 -0.20838495909E+04  0.20838495909E+04  0.00000000000E+00 0.  1.
         23    2    1    2    0    0 -0.64989877927E+03  0.70888044648E+03 -0.17223249248E+04  0.19746782113E+04  0.89838636652E+02 0.  0.
         13    1    3    3    0    0 -0.42278486763E+03  0.41576034460E+03 -0.11224476334E+04  0.12694457051E+04  0.00000000000E+00 0.  1.
        -13    1    3    3    0    0 -0.22711391164E+03  0.29312010188E+03 -0.59987729137E+03  0.70523250613E+03  0.00000000000E+00 0. -1.
         22    1    1    2    0    0  0.64989877927E+03 -0.70888044648E+03  0.74711180367E+03  0.12178078493E+04  0.00000000000E+00 0. -1.
<mgrwt>
<rscale>  0 0.30398892E+04</rscale>
<asrwt>0</asrwt>
<pdfrwt beam="1">  1        2 0.32059224E+00 0.30398892E+04</pdfrwt>
<pdfrwt beam="2">  1       -2 0.17055946E+00 0.30398892E+04</pdfrwt>
<totfact> 0.10810675E+00</totfact>
</mgrwt>
</event>
<event>
 6    1  0.5026615E-004  0.1483219E+04  0.7818608E-02  0.8895690E-01
         -2   -1    0    0    0  501 -0.00000000000E+00  0.00000000000E+00  0.50521768343E+03  0.50521768343E+03  0.00000000000E+00 0. -1.
          2   -1    0    0  501    0  0.00000000000E+00 -0.00000000000E+00 -0.10886087399E+04  0.10886087399E+04  0.00000000000E+00 0.  1.
         23    2    1    2    0    0  0.17879593950E+02 -0.70547638904E+03 -0.52782605853E+03  0.88593936708E+03  0.90948329896E+02 0.  0.
         13    1    3    3    0    0 -0.35751516299E+02 -0.24394149811E+03 -0.16981021362E+03  0.29936789084E+03  0.00000000000E+00 0.  1.
        -13    1    3    3    0    0  0.53631110249E+02 -0.46153489094E+03 -0.35801584491E+03  0.58657147624E+03  0.00000000000E+00 0. -1.
         22    1    1    2    0    0 -0.17879593950E+02  0.70547638904E+03 -0.55564997927E+02  0.70788705623E+03  0.00000000000E+00 0. -1.
<mgrwt>
<rscale>  0 0.14832186E+04</rscale>
<asrwt>0</asrwt>
<pdfrwt beam="1">  1        2 0.16747827E+00 0.14832186E+04</pdfrwt>
<pdfrwt beam="2">  1       -2 0.77725798E-01 0.14832186E+04</pdfrwt>
<totfact> 0.31596104E+01</totfact>
</mgrwt>
</event>
<event>
 6    1  0.5026615E-004  0.6115996E+03  0.7818608E-02  0.9881629E-01
          2   -1    0    0  501    0  0.00000000000E+00  0.00000000000E+00  0.13235611894E+04  0.13235611894E+04  0.00000000000E+00 0.  1.
         -2   -1    0    0    0  501 -0.00000000000E+00 -0.00000000000E+00 -0.70652958154E+02  0.70652958154E+02  0.00000000000E+00 0. -1.
         23    2    1    2    0    0 -0.47693841068E+02 -0.17243550594E+03  0.11866992488E+04  0.12034463947E+04  0.89551167808E+02 0.  0.
         13    1    3    3    0    0 -0.60172807072E+02 -0.15684370950E+03  0.11444650021E+04  0.11567285148E+04  0.00000000000E+00 0.  1.
        -13    1    3    3    0    0  0.12478966004E+02 -0.15591796445E+02  0.42234246676E+02  0.46717879888E+02  0.00000000000E+00 0. -1.
         22    1    1    2    0    0  0.47693841068E+02  0.17243550594E+03  0.66208982513E+02  0.19076775291E+03  0.00000000000E+00 0. -1.
<mgrwt>
<rscale>  0 0.61159959E+03</rscale>
<asrwt>0</asrwt>
<pdfrwt beam="1">  1        2 0.20362478E+00 0.61159959E+03</pdfrwt>
<pdfrwt beam="2">  1       -2 0.10869687E-01 0.61159959E+03</pdfrwt>
<totfact> 0.97302364E+02</totfact>
</mgrwt>
</event>
<event>
 6    1  0.5026615E-004  0.7771869E+03  0.7818608E-02  0.9593638E-01
         -1   -1    0    0    0  501 -0.00000000000E+00  0.00000000000E+00  0.36356021925E+03  0.36356021925E+03  0.00000000000E+00 0. -1.
          1   -1    0    0  501    0  0.00000000000E+00 -0.00000000000E+00 -0.41535039834E+03  0.41535039834E+03  0.00000000000E+00 0.  1.
         23    2    1    2    0    0  0.21821373874E+03 -0.17196207619E+02  0.28893747001E+03  0.37393126479E+03  0.91797515644E+02 0.  0.
         13    1    3    3    0    0  0.94884257056E+02 -0.48016665581E+02  0.16563351342E+03  0.19683262732E+03  0.00000000000E+00 0.  1.
        -13    1    3    3    0    0  0.12332948169E+03  0.30820457962E+02  0.12330395659E+03  0.17709863747E+03  0.00000000000E+00 0. -1.
         22    1    1    2    0    0 -0.21821373874E+03  0.17196207619E+02 -0.34072764910E+03  0.40497935280E+03  0.00000000000E+00 0.  1.
<mgrwt>
<rscale>  0 0.77718693E+03</rscale>
<asrwt>0</asrwt>
<pdfrwt beam="1">  1        1 0.63900061E-01 0.77718693E+03</pdfrwt>
<pdfrwt beam="2">  1       -1 0.55932342E-01 0.77718693E+03</pdfrwt>
<totfact> 0.18678714E+02</totfact>
</mgrwt>
</event>
<event>
 6    1  0.5026615E-004  0.3217785E+04  0.7818608E-02  0.8184136E-01
         -2   -1    0    0    0  501 -0.00000000000E+00  0.00000000000E+00  0.85173310483E+03  0.85173310483E+03  0.00000000000E+00 0. -1.
          2   -1    0    0  501    0  0.00000000000E+00 -0.00000000000E+00 -0.30391379971E+04  0.30391379971E+04  0.00000000000E+00 0.  1.
         23    2    1    2    0    0 -0.14508868882E+04  0.51920354603E+03 -0.16484023968E+04  0.22583366384E+04  0.90602570723E+02 0.  0.
         11    1    3    3    0    0 -0.50250101727E+03  0.19727309222E+03 -0.51955682617E+03  0.74924177733E+03  0.00000000000E+00 0.  1.
        -11    1    3    3    0    0 -0.94838587096E+03  0.32193045381E+03 -0.11288455706E+04  0.15090948610E+04  0.00000000000E+00 0. -1.
         22    1    1    2    0    0  0.14508868882E+04 -0.51920354603E+03 -0.53900249550E+03  0.16325344636E+04  0.00000000000E+00 0. -1.
<mgrwt>
<rscale>  0 0.32177846E+04</rscale>
<asrwt>0</asrwt>
<pdfrwt beam="1">  1        2 0.46755969E+00 0.32177846E+04</pdfrwt>
<pdfrwt beam="2">  1       -2 0.13103586E+00 0.32177846E+04</pdfrwt>
<totfact> 0.58831853E-01</totfact>
</mgrwt>
</event>
<event>
 6    1  0.5026615E-004  0.4418957E+04  0.7818608E-02  0.7924981E-01
          1   -1    0    0  501    0  0.00000000000E+00  0.00000000000E+00  0.33661279748E+04  0.33661279748E+04  0.00000000000E+00 0. -1.
         -1   -1    0    0    0  501 -0.00000000000E+00 -0.00000000000E+00 -0.14502699636E+04  0.14502699636E+04  0.00000000000E+00 0.  1.
         23    2    1    2    0    0 -0.12412338878E+04  0.89037360750E+03  0.26968262412E+04  0.31007819845E+04  0.92468451348E+02 0.  0.
         13    1    3    3    0    0 -0.31020394609E+03  0.17619083836E+03  0.60771773920E+03  0.70469181223E+03  0.00000000000E+00 0.  1.
        -13    1    3    3    0    0 -0.93102994175E+03  0.71418276914E+03  0.20891085020E+04  0.23960901722E+04  0.00000000000E+00 0. -1.
         22    1    1    2    0    0  0.12412338878E+04 -0.89037360750E+03 -0.78096823004E+03  0.17156159540E+04  0.00000000000E+00 0.  1.
<mgrwt>
<rscale>  0 0.44189566E+04</rscale>
<asrwt>0</asrwt>
<pdfrwt beam="1">  1        1 0.51786584E+00 0.44189566E+04</pdfrwt>
<pdfrwt beam="2">  1       -1 0.22311846E+00 0.44189566E+04</pdfrwt>
<totfact> 0.25186245E-02</totfact>
</mgrwt>
</event>
<event>
 6    1  0.5026615E-004  0.4715465E+04  0.7818608E-02  0.7873964E-01
         -2   -1    0    0    0  501 -0.00000000000E+00  0.00000000000E+00  0.20834369519E+04  0.20834369519E+04  0.00000000000E+00 0. -1.
          2   -1    0    0  501    0  0.00000000000E+00 -0.00000000000E+00 -0.26681406848E+04  0.26681406848E+04  0.00000000000E+00 0.  1.
         23    2    1    2    0    0 -0.76464831524E+03 -0.20913906111E+04 -0.10705160248E+04  0.24724077621E+04  0.90519877716E+02 0.  0.
         11    1    3    3    0    0 -0.13394563531E+03 -0.30988625870E+03 -0.13375544573E+03  0.36312731351E+03  0.00000000000E+00 0.  1.
        -11    1    3    3    0    0 -0.63070267992E+03 -0.17815043524E+04 -0.93676057911E+03  0.21092804486E+04  0.00000000000E+00 0. -1.
         22    1    1    2    0    0  0.76464831524E+03  0.20913906111E+04  0.48581229194E+03  0.22791698746E+04  0.00000000000E+00 0. -1.
<mgrwt>
<rscale>  0 0.47154652E+04</rscale>
<asrwt>0</asrwt>
<pdfrwt beam="1">  1        2 0.41048318E+00 0.47154652E+04</pdfrwt>
<pdfrwt beam="2">  1       -2 0.32052876E+00 0.47154652E+04</pdfrwt>
<totfact> 0.49084938E-02</totfact>
</mgrwt>
</event>
<event>
 6    1  0.5026615E-004  0.3046184E+04  0.7818608E-02  0.8230664E-01
         -1   -1    0    0    0  501 -0.00000000000E+00  0.00000000000E+00  0.92816039019E+03  0.92816039019E+03  0.00000000000E+00 0.  1.
          1   -1    0    0  501    0  0.00000000000E+00 -0.00000000000E+00 -0.24993630153E+04  0.24993630153E+04  0.00000000000E+00 0. -1.
         23    2    1    2    0    0  0.68056103418E+02 -0.16997706664E+03 -0.24860647822E+04  0.24945193310E+04  0.92653952441E+02 0.  0.
         13    1    3    3    0    0  0.44869472370E+02 -0.14902521186E+02 -0.69359395397E+03  0.69520351529E+03  0.00000000000E+00 0. -1.
        -13    1    3    3    0    0  0.23186631048E+02 -0.15507454545E+03 -0.17924708282E+04  0.17993158157E+04  0.00000000000E+00 0.  1.
         22    1    1    2    0    0 -0.68056103418E+02  0.16997706664E+03  0.91486215714E+03  0.93300407447E+03  0.00000000000E+00 0.  1.
<mgrwt>
<rscale>  0 0.30461843E+04</rscale>
<asrwt>0</asrwt>
<pdfrwt beam="1">  1        1 0.38451738E+00 0.30461843E+04</pdfrwt>
<pdfrwt beam="2">  1       -1 0.14279391E+00 0.30461843E+04</pdfrwt>
<totfact> 0.45728186E-01</totfact>
</mgrwt>
</event>
<event>
 6    1  0.5026615E-004  0.8602594E+03  0.7818608E-02  0.9476670E-01
          2   -1    0    0  501    0  0.00000000000E+00  0.00000000000E+00  0.90283533634E+03  0.90283533634E+03  0.00000000000E+00 0.  1.
         -2   -1    0    0    0  501 -0.00000000000E+00 -0.00000000000E+00 -0.20492283334E+03  0.20492283334E+03  0.00000000000E+00 0. -1.
         23    2    1    2    0    0 -0.30205628499E+03 -0.15651104238E+03  0.68158918275E+03  0.76717021264E+03  0.90843906987E+02 0.  0.
         13    1    3    3    0    0 -0.25370474116E+03 -0.16297386305E+03  0.55724724221E+03  0.63360166088E+03  0.00000000000E+00 0. -1.
        -13    1    3    3    0    0 -0.48351543838E+02  0.64628206725E+01  0.12434194054E+03  0.13356855176E+03  0.00000000000E+00 0.  1.
         22    1    1    2    0    0  0.30205628499E+03  0.15651104238E+03  0.16323320254E+02  0.34058795703E+03  0.00000000000E+00 0. -1.
<mgrwt>
<rscale>  0 0.86025944E+03</rscale>
<asrwt>0</asrwt>
<pdfrwt beam="1">  1        2 0.13889774E+00 0.86025944E+03</pdfrwt>
<pdfrwt beam="2">  1       -2 0.31526590E-01 0.86025944E+03</pdfrwt>
<totfact> 0.27347579E+02</totfact>
</mgrwt>
</event>
<event>
 6    1  0.5026615E-004  0.7488289E+03  0.7818608E-02  0.9637189E-01
         -2   -1    0    0    0  501 -0.00000000000E+00  0.00000000000E+00  0.35787054622E+03  0.35787054622E+03  0.00000000000E+00 0. -1.
          2   -1    0    0  501    0  0.00000000000E+00 -0.00000000000E+00 -0.39172310822E+03  0.39172310822E+03  0.00000000000E+00 0.  1.
         23    2    1    2    0    0 -0.10987901217E+03 -0.14487324768E+03  0.30324266866E+03  0.36658601778E+03  0.96786037868E+02 0.  0.
         13    1    3    3    0    0 -0.26690997281E+02 -0.10635434327E+03  0.20316760146E+03  0.23086950850E+03  0.00000000000E+00 0. -1.
        -13    1    3    3    0    0 -0.83188014886E+02 -0.38518904411E+02  0.10007506720E+03  0.13571650928E+03  0.00000000000E+00 0.  1.
         22    1    1    2    0    0  0.10987901217E+03  0.14487324768E+03 -0.33709523066E+03  0.38300763666E+03  0.00000000000E+00 0.  1.
<mgrwt>
<rscale>  0 0.74882885E+03</rscale>
<asrwt>0</asrwt>
<pdfrwt beam="1">  1        2 0.60265094E-01 0.74882885E+03</pdfrwt>
<pdfrwt beam="2">  1       -2 0.55057007E-01 0.74882885E+03</pdfrwt>
<totfact> 0.25479513E+02</totfact>
</mgrwt>
</event>
<event>
 6    1  0.5026615E-004  0.1382822E+04  0.7818608E-02  0.8966348E-01
         -2   -1    0    0    0  501 -0.00000000000E+00  0.00000000000E+00  0.64566937235E+03  0.64566937235E+03  0.00000000000E+00 0. -1.
          2   -1    0    0  501    0  0.00000000000E+00 -0.00000000000E+00 -0.74039290538E+03  0.74039290538E+03  0.00000000000E+00 0.  1.
         23    2    1    2    0    0  0.11196068350E+03 -0.58779336528E+03 -0.38869446001E+03  0.71938758883E+03  0.91645429752E+02 0.  0.
         13    1    3    3    0    0  0.36887617334E+02 -0.87343705018E+02 -0.31255234737E+02  0.99832403644E+02  0.00000000000E+00 0. -1.
        -13    1    3    3    0    0  0.75073066169E+02 -0.50044966026E+03 -0.35743922527E+03  0.61955518518E+03  0.00000000000E+00 0.  1.
         22    1    1    2    0    0 -0.11196068350E+03  0.58779336528E+03  0.29397092698E+03  0.66667468891E+03  0.00000000000E+00 0. -1.
<mgrwt>
<rscale>  0 0.13828218E+04</rscale>
<asrwt>0</asrwt>
<pdfrwt beam="1">  1        2 0.11390660E+00 0.13828218E+04</pdfrwt>
<pdfrwt beam="2">  1       -2 0.99333750E-01 0.13828218E+04</pdfrwt>
<totfact> 0.31191667E+01</totfact>
</mgrwt>
</event>
<event>
 6    1  0.5026615E-004  0.1108270E+04  0.7818608E-02  0.9197168E-01
          2   -1    0    0  501    0  0.00000000000E+00  0.00000000000E+00  0.15931789868E+04  0.15931789868E+04  0.00000000000E+00 0.  1.
         -2   -1    0    0    0  501 -0.00000000000E+00 -0.00000000000E+00 -0.19273774762E+03  0.19273774762E+03  0.00000000000E+00 0. -1.
         23    2    1    2    0    0  0.13104098654E+03  0.50379590111E+03  0.99241830771E+03  0.11245055441E+04  0.92933153405E+02 0.  0.
         13    1    3    3    0    0  0.14361002139E+03  0.42454737489E+03  0.82609537609E+03  0.93983928529E+03  0.00000000000E+00 0. -1.
        -13    1    3    3    0    0 -0.12569034845E+02  0.79248526220E+02  0.16632293162E+03  0.18466625877E+03  0.00000000000E+00 0.  1.
         22    1    1    2    0    0 -0.13104098654E+03 -0.50379590111E+03  0.40802293145E+03  0.66141119035E+03  0.00000000000E+00 0. -1.
<mgrwt>
<rscale>  0 0.11082702E+04</rscale>
<asrwt>0</asrwt>
<pdfrwt beam="1">  1        2 0.24510445E+00 0.11082702E+04</pdfrwt>
<pdfrwt beam="2">  1       -2 0.29651962E-01 0.11082702E+04</pdfrwt>
<totfact> 0.11695145E+02</totfact>
</mgrwt>
</event>
<event>
 6    1  0.5026615E-004  0.5321049E+04  0.7818608E-02  0.7780805E-01
          2   -1    0    0  501    0  0.00000000000E+00  0.00000000000E+00  0.19357645932E+04  0.19357645932E+04  0.00000000000E+00 0.  1.
         -2   -1    0    0    0  501 -0.00000000000E+00 -0.00000000000E+00 -0.36566377501E+04  0.36566377501E+04  0.00000000000E+00 0. -1.
         23    2    1    2    0    0 -0.23471847619E+04 -0.72375942873E+03 -0.19330232739E+04  0.31270196774E+04  0.92569263738E+02 0.  0.
         13    1    3    3    0    0 -0.13275557050E+04 -0.41814963767E+03 -0.10377946015E+04  0.17361655751E+04  0.00000000000E+00 0.  1.
        -13    1    3    3    0    0 -0.10196290569E+04 -0.30560979105E+03 -0.89522867243E+03  0.13908541023E+04  0.00000000000E+00 0. -1.
         22    1    1    2    0    0  0.23471847619E+04  0.72375942873E+03  0.21215011702E+03  0.24653826659E+04  0.00000000000E+00 0. -1.
<mgrwt>
<rscale>  0 0.53210487E+04</rscale>
<asrwt>0</asrwt>
<pdfrwt beam="1">  1        2 0.29780994E+00 0.53210487E+04</pdfrwt>
<pdfrwt beam="2">  1       -2 0.56255965E+00 0.53210487E+04</pdfrwt>
<totfact> 0.38570164E-03</totfact>
</mgrwt>
</event>
<event>
 6    1  0.5026615E-004  0.1335780E+04  0.7818608E-02  0.9001663E-01
          2   -1    0    0  501    0  0.00000000000E+00  0.00000000000E+00  0.10482829514E+04  0.10482829514E+04  0.00000000000E+00 0.  1.
         -2   -1    0    0    0  501 -0.00000000000E+00 -0.00000000000E+00 -0.42553134833E+03  0.42553134833E+03  0.00000000000E+00 0. -1.
         23    2    1    2    0    0  0.66728563450E+02  0.62038561851E+03  0.56584367037E+03  0.84726060720E+03  0.91326121052E+02 0.  0.
         11    1    3    3    0    0  0.42012307380E+02  0.43995238063E+03  0.34284005713E+03  0.55934107302E+03  0.00000000000E+00 0. -1.
        -11    1    3    3    0    0  0.24716256070E+02  0.18043323788E+03  0.22300361324E+03  0.28791953418E+03  0.00000000000E+00 0.  1.
         22    1    1    2    0    0 -0.66728563450E+02 -0.62038561851E+03  0.56907932708E+02  0.62655369254E+03  0.00000000000E+00 0. -1.
<mgrwt>
<rscale>  0 0.13357803E+04</rscale>
<asrwt>0</asrwt>
<pdfrwt beam="1">  1        2 0.16127430E+00 0.13357803E+04</pdfrwt>
<pdfrwt beam="2">  1       -2 0.65466362E-01 0.13357803E+04</pdfrwt>
<totfact> 0.49334005E+01</totfact>
</mgrwt>
</event>
<event>
 6    1  0.5026615E-004  0.4038872E+04  0.7818608E-02  0.7996750E-01
          2   -1    0    0  501    0  0.00000000000E+00  0.00000000000E+00  0.18098460548E+04  0.18098460548E+04  0.00000000000E+00 0.  1.
         -2   -1    0    0    0  501 -0.00000000000E+00 -0.00000000000E+00 -0.22532979650E+04  0.22532979650E+04  0.00000000000E+00 0. -1.
         23    2    1    2    0    0  0.13765450726E+04  0.82853562020E+03  0.10072207925E+04  0.18984733979E+04  0.91432524226E+02 0.  0.
         11    1    3    3    0    0  0.80456225552E+03  0.50183808008E+03  0.54409976627E+03  0.10932549736E+04  0.00000000000E+00 0.  1.
        -11    1    3    3    0    0  0.57198281713E+03  0.32669754012E+03  0.46312102626E+03  0.80521842427E+03  0.00000000000E+00 0. -1.
         22    1    1    2    0    0 -0.13765450726E+04 -0.82853562020E+03 -0.14506727028E+04  0.21646706220E+04  0.00000000000E+00 0. -1.
<mgrwt>
<rscale>  0 0.40388723E+04</rscale>
<asrwt>0</asrwt>
<pdfrwt beam="1">  1        2 0.27843786E+00 0.40388723E+04</pdfrwt>
<pdfrwt beam="2">  1       -2 0.34666122E+00 0.40388723E+04</pdfrwt>
<totfact> 0.10940464E-01</totfact>
</mgrwt>
</event>
<event>
 6    1  0.5026615E-004  0.3150797E+04  0.7818608E-02  0.8201934E-01
          2   -1    0    0  501    0  0.00000000000E+00  0.00000000000E+00  0.17187555990E+04  0.17187555990E+04  0.00000000000E+00 0.  1.
         -2   -1    0    0    0  501 -0.00000000000E+00 -0.00000000000E+00 -0.14439982435E+04  0.14439982435E+04  0.00000000000E+00 0. -1.
         23    2    1    2    0    0 -0.16951480701E+03  0.44501375490E+03  0.16434811863E+04  0.17135549477E+04  0.92019765541E+02 0.  0.
         13    1    3    3    0    0 -0.71505582363E+02  0.81921023746E+02  0.38891318821E+03  0.40382863991E+03  0.00000000000E+00 0.  1.
        -13    1    3    3    0    0 -0.98009224651E+02  0.36309273116E+03  0.12545679981E+04  0.13097263078E+04  0.00000000000E+00 0. -1.
         22    1    1    2    0    0  0.16951480701E+03 -0.44501375490E+03 -0.13687238308E+04  0.14491988949E+04  0.00000000000E+00 0. -1.
<mgrwt>
<rscale>  0 0.31507968E+04</rscale>
<asrwt>0</asrwt>
<pdfrwt beam="1">  1        2 0.26442394E+00 0.31507968E+04</pdfrwt>
<pdfrwt beam="2">  1       -2 0.22215358E+00 0.31507968E+04</pdfrwt>
<totfact> 0.77537903E-01</totfact>
</mgrwt>
</event>
<event>
 6    1  0.5026615E-004  0.2776425E+04  0.7818608E-02  0.8310625E-01
         -2   -1    0    0    0  501 -0.00000000000E+00  0.00000000000E+00  0.84325711170E+03  0.84325711170E+03  0.00000000000E+00 0. -1.
          2   -1    0    0  501    0  0.00000000000E+00 -0.00000000000E+00 -0.22853453305E+04  0.22853453305E+04  0.00000000000E+00 0.  1.
         23    2    1    2    0    0 -0.10777514496E+04 -0.72028151104E+03 -0.16660083527E+03  0.13100256063E+04  0.89764183241E+02 0.  0.
         11    1    3    3    0    0 -0.52986047775E+03 -0.31555059366E+03 -0.47589530464E+02  0.61853784561E+03  0.00000000000E+00 0. -1.
        -11    1    3    3    0    0 -0.54789097190E+03 -0.40473091738E+03 -0.11901130481E+03  0.69148776073E+03  0.00000000000E+00 0.  1.
         22    1    1    2    0    0  0.10777514496E+04  0.72028151104E+03 -0.12754873835E+04  0.18185768358E+04  0.00000000000E+00 0.  1.
<mgrwt>
<rscale>  0 0.27764248E+04</rscale>
<asrwt>0</asrwt>
<pdfrwt beam="1">  1        2 0.35159159E+00 0.27764248E+04</pdfrwt>
<pdfrwt beam="2">  1       -2 0.12973186E+00 0.27764248E+04</pdfrwt>
<totfact> 0.17587694E+00</totfact>
</mgrwt>
</event>
<event>
 6    1  0.5026615E-004  0.1860377E+04  0.7818608E-02  0.8674835E-01
         -2   -1    0    0    0  501 -0.00000000000E+00  0.00000000000E+00  0.30164203586E+03  0.30164203586E+03  0.00000000000E+00 0. -1.
          2   -1    0    0  501    0  0.00000000000E+00 -0.00000000000E+00 -0.28684679661E+04  0.28684679661E+04  0.00000000000E+00 0.  1.
         23    2    1    2    0    0  0.66020994335E+03 -0.32400379504E+03 -0.22508262212E+04  0.23696654726E+04  0.90775247720E+02 0.  0.
         13    1    3    3    0    0  0.62901587516E+03 -0.29473774498E+03 -0.21660528635E+04  0.22747123592E+04  0.00000000000E+00 0. -1.
        -13    1    3    3    0    0  0.31194068191E+02 -0.29266050060E+02 -0.84773357632E+02  0.94953113381E+02  0.00000000000E+00 0.  1.
         22    1    1    2    0    0 -0.66020994335E+03  0.32400379504E+03 -0.31599970911E+03  0.80044452941E+03  0.00000000000E+00 0. -1.
<mgrwt>
<rscale>  0 0.18603769E+04</rscale>
<asrwt>0</asrwt>
<pdfrwt beam="1">  1        2 0.44130276E+00 0.18603769E+04</pdfrwt>
<pdfrwt beam="2">  1       -2 0.46406467E-01 0.18603769E+04</pdfrwt>
<totfact> 0.87113356E+00</totfact>
</mgrwt>
</event>
<event>
 6    1  0.5026615E-004  0.2997766E+04  0.7818608E-02  0.8244369E-01
          2   -1    0    0  501    0  0.00000000000E+00  0.00000000000E+00  0.14639855820E+04  0.14639855820E+04  0.00000000000E+00 0.  1.
         -2   -1    0    0    0  501 -0.00000000000E+00 -0.00000000000E+00 -0.15346126269E+04  0.15346126269E+04  0.00000000000E+00 0. -1.
         23    2    1    2    0    0  0.36910861200E+03 -0.88683268698E+02  0.14136788837E+04  0.14665179306E+04  0.89894187356E+02 0.  0.
         11    1    3    3    0    0  0.13772534022E+03  0.77397593715E+01  0.56483944275E+03  0.58143939435E+03  0.00000000000E+00 0. -1.
        -11    1    3    3    0    0  0.23138327178E+03 -0.96423028069E+02  0.84883944091E+03  0.88507853621E+03  0.00000000000E+00 0.  1.
         22    1    1    2    0    0 -0.36910861200E+03  0.88683268698E+02 -0.14843059285E+04  0.15320802783E+04  0.00000000000E+00 0. -1.
<mgrwt>
<rscale>  0 0.29977663E+04</rscale>
<asrwt>0</asrwt>
<pdfrwt beam="1">  1        2 0.22522855E+00 0.29977663E+04</pdfrwt>
<pdfrwt beam="2">  1       -2 0.23609425E+00 0.29977663E+04</pdfrwt>
<totfact> 0.89227039E-01</totfact>
</mgrwt>
</event>
<event>
 6    1  0.5026615E-004  0.5867556E+03  0.7818608E-02  0.9933271E-01
          1   -1    0    0  501    0  0.00000000000E+00  0.00000000000E+00  0.17211520071E+03  0.17211520071E+03  0.00000000000E+00 0.  1.
         -1   -1    0    0    0  501 -0.00000000000E+00 -0.00000000000E+00 -0.50007514798E+03  0.50007514798E+03  0.00000000000E+00 0. -1.
         23    2    1    2    0    0  0.95220232479E+02  0.63974256152E+02  0.13329589753E+03  0.19688355041E+03  0.88519704012E+02 0.  0.
         11    1    3    3    0    0  0.99983136037E+02  0.47050481393E+02  0.69108097150E+02  0.13033151723E+03  0.00000000000E+00 0.  1.
        -11    1    3    3    0    0 -0.47629035586E+01  0.16923774758E+02  0.64187800381E+02  0.66552033178E+02  0.00000000000E+00 0. -1.
         22    1    1    2    0    0 -0.95220232479E+02 -0.63974256152E+02 -0.46125584480E+03  0.47530679828E+03  0.00000000000E+00 0. -1.
<mgrwt>
<rscale>  0 0.58675560E+03</rscale>
<asrwt>0</asrwt>
<pdfrwt beam="1">  1        1 0.26479262E-01 0.58675560E+03</pdfrwt>
<pdfrwt beam="2">  1       -1 0.76934638E-01 0.58675560E+03</pdfrwt>
<totfact> 0.31153690E+02</totfact>
</mgrwt>
</event>
<event>
 6    1  0.5026615E-004  0.2520700E+04  0.7818608E-02  0.8395648E-01
          2   -1    0    0  501    0  0.00000000000E+00  0.00000000000E+00  0.16297510614E+04  0.16297510614E+04  0.00000000000E+00 0.  1.
         -2   -1    0    0    0  501 -0.00000000000E+00 -0.00000000000E+00 -0.97467759971E+03  0.97467759971E+03  0.00000000000E+00 0. -1.
         23    2    1    2    0    0 -0.63998619485E+02  0.84865270070E+03  0.12861527743E+04  0.15449154103E+04  0.90925445179E+02 0.  0.
         13    1    3    3    0    0  0.10131791950E+02  0.31961386243E+03  0.53244147529E+03  0.62108743255E+03  0.00000000000E+00 0. -1.
        -13    1    3    3    0    0 -0.74130411434E+02  0.52903883827E+03  0.75371129899E+03  0.92382797778E+03  0.00000000000E+00 0.  1.
         22    1    1    2    0    0  0.63998619485E+02 -0.84865270070E+03 -0.63107931262E+03  0.10595132508E+04  0.00000000000E+00 0. -1.
<mgrwt>
<rscale>  0 0.25206998E+04</rscale>
<asrwt>0</asrwt>
<pdfrwt beam="1">  1        2 0.25073093E+00 0.25206998E+04</pdfrwt>
<pdfrwt beam="2">  1       -2 0.14995040E+00 0.25206998E+04</pdfrwt>
<totfact> 0.28661288E+00</totfact>
</mgrwt>
</event>
<event>
 6    1  0.5026615E-004  0.2051807E+04  0.7818608E-02  0.8582775E-01
         -2   -1    0    0    0  501 -0.00000000000E+00  0.00000000000E+00  0.85504052093E+03  0.85504052093E+03  0.00000000000E+00 0. -1.
          2   -1    0    0  501    0  0.00000000000E+00 -0.00000000000E+00 -0.12309102625E+04  0.12309102625E+04  0.00000000000E+00 0.  1.
         23    2    1    2    0    0  0.51737887686E+03 -0.86967754062E+03 -0.31031340027E+02  0.10168701269E+04  0.95089347917E+02 0.  0.
         13    1    3    3    0    0  0.16105687644E+03 -0.27875038884E+03 -0.54067652407E+02  0.32644204350E+03  0.00000000000E+00 0.  1.
        -13    1    3    3    0    0  0.35632200042E+03 -0.59092715178E+03  0.23036312380E+02  0.69042808342E+03  0.00000000000E+00 0. -1.
         22    1    1    2    0    0 -0.51737887686E+03  0.86967754062E+03 -0.34483840151E+03  0.10690806565E+04  0.00000000000E+00 0. -1.
<mgrwt>
<rscale>  0 0.20518072E+04</rscale>
<asrwt>0</asrwt>
<pdfrwt beam="1">  1        2 0.18937081E+00 0.20518072E+04</pdfrwt>
<pdfrwt beam="2">  1       -2 0.13154470E+00 0.20518072E+04</pdfrwt>
<totfact> 0.70799708E+00</totfact>
</mgrwt>
</event>
<event>
 6    1  0.5026615E-004  0.1334048E+04  0.7818608E-02  0.9002992E-01
         -2   -1    0    0    0  501 -0.00000000000E+00  0.00000000000E+00  0.41660403271E+03  0.41660403271E+03  0.00000000000E+00 0.  1.
          2   -1    0    0  501    0  0.00000000000E+00 -0.00000000000E+00 -0.10679704969E+04  0.10679704969E+04  0.00000000000E+00 0. -1.
         23    2    1    2    0    0  0.41253631277E+03 -0.48088371799E+03 -0.10261729117E+03  0.64638540150E+03  0.76474958353E+02 0.  0.
         13    1    3    3    0    0  0.91088111082E+02 -0.12303750086E+03 -0.56410612076E+02  0.16314848376E+03  0.00000000000E+00 0.  1.
        -13    1    3    3    0    0  0.32144820169E+03 -0.35784621713E+03 -0.46206679093E+02  0.48323691775E+03  0.00000000000E+00 0. -1.
         22    1    1    2    0    0 -0.41253631277E+03  0.48088371799E+03 -0.54874917301E+03  0.83818912809E+03  0.00000000000E+00 0.  1.
<mgrwt>
<rscale>  0 0.13340477E+04</rscale>
<asrwt>0</asrwt>
<pdfrwt beam="1">  1        2 0.16430315E+00 0.13340477E+04</pdfrwt>
<pdfrwt beam="2">  1       -2 0.64092929E-01 0.13340477E+04</pdfrwt>
<totfact> 0.50191528E+01</totfact>
</mgrwt>
</event>
<event>
 6    1  0.5026615E-004  0.2887257E+04  0.7818608E-02  0.8276679E-01
         -2   -1    0    0    0  501 -0.00000000000E+00  0.00000000000E+00  0.13087196686E+04  0.13087196686E+04  0.00000000000E+00 0. -1.
          2   -1    0    0  501    0  0.00000000000E+00 -0.00000000000E+00 -0.15924446582E+04  0.15924446582E+04  0.00000000000E+00 0.  1.
         23    2    1    2    0    0 -0.98744720854E+03  0.54501279591E+03 -0.10451154795E+04  0.15403533864E+04  0.91275692029E+02 0.  0.
         11    1    3    3    0    0 -0.55201997321E+03  0.34464036358E+03 -0.64039893397E+03  0.91302454822E+03  0.00000000000E+00 0. -1.
        -11    1    3    3    0    0 -0.43542723533E+03  0.20037243233E+03 -0.40471654556E+03  0.62732883813E+03  0.00000000000E+00 0.  1.
         22    1    1    2    0    0  0.98744720854E+03 -0.54501279591E+03  0.76139048999E+03  0.13608109404E+04  0.00000000000E+00 0. -1.
<mgrwt>
<rscale>  0 0.28872573E+04</rscale>
<asrwt>0</asrwt>
<pdfrwt beam="1">  1        2 0.24499149E+00 0.28872573E+04</pdfrwt>
<pdfrwt beam="2">  1       -2 0.20134149E+00 0.28872573E+04</pdfrwt>
<totfact> 0.12681597E+00</totfact>
</mgrwt>
</event>
<event>
 6    1  0.5026615E-004  0.1912042E+04  0.7818608E-02  0.8648885E-01
         -2   -1    0    0    0  501 -0.00000000000E+00  0.00000000000E+00  0.57208302983E+03  0.57208302983E+03  0.00000000000E+00 0. -1.
          2   -1    0    0  501    0  0.00000000000E+00 -0.00000000000E+00 -0.15976287571E+04  0.15976287571E+04  0.00000000000E+00 0.  1.
         23    2    1    2    0    0 -0.92848386772E+03 -0.20215667500E+03 -0.60976215937E+03  0.11324916612E+04  0.88192164456E+02 0.  0.
         11    1    3    3    0    0 -0.36906293199E+03 -0.67850455021E+02 -0.29028315078E+03  0.47442116273E+03  0.00000000000E+00 0.  1.
        -11    1    3    3    0    0 -0.55942093574E+03 -0.13430621998E+03 -0.31947900858E+03  0.65807049850E+03  0.00000000000E+00 0. -1.
         22    1    1    2    0    0  0.92848386772E+03  0.20215667500E+03 -0.41578356795E+03  0.10372201257E+04  0.00000000000E+00 0.  1.
<mgrwt>
<rscale>  0 0.19120422E+04</rscale>
<asrwt>0</asrwt>
<pdfrwt beam="1">  1        2 0.24578904E+00 0.19120422E+04</pdfrwt>
<pdfrwt beam="2">  1       -2 0.88012775E-01 0.19120422E+04</pdfrwt>
<totfact> 0.11644865E+01</totfact>
</mgrwt>
</event>
<event>
 6    1  0.5026615E-004  0.1013977E+04  0.7818608E-02  0.9293347E-01
         -2   -1    0    0    0  501 -0.00000000000E+00  0.00000000000E+00  0.30517029630E+03  0.30517029630E+03  0.00000000000E+00 0. -1.
          2   -1    0    0  501    0  0.00000000000E+00 -0.00000000000E+00 -0.84227493060E+03  0.84227493060E+03  0.00000000000E+00 0.  1.
         23    2    1    2    0    0  0.41289048486E+03 -0.17040791206E+03 -0.90795831162E+01  0.45583271714E+03  0.90463352837E+02 0.  0.
         11    1    3    3    0    0  0.25811059377E+03 -0.12311354350E+03  0.34975635230E+02  0.28809949370E+03  0.00000000000E+00 0. -1.
        -11    1    3    3    0    0  0.15477989108E+03 -0.47294368562E+02 -0.44055218346E+02  0.16773322344E+03  0.00000000000E+00 0.  1.
         22    1    1    2    0    0 -0.41289048486E+03  0.17040791206E+03 -0.52802505118E+03  0.69161250976E+03  0.00000000000E+00 0.  1.
<mgrwt>
<rscale>  0 0.10139769E+04</rscale>
<asrwt>0</asrwt>
<pdfrwt beam="1">  1        2 0.12958076E+00 0.10139769E+04</pdfrwt>
<pdfrwt beam="2">  1       -2 0.46949277E-01 0.10139769E+04</pdfrwt>
<totfact> 0.13784424E+02</totfact>
</mgrwt>
</event>
<event>
 6    1  0.5026615E-004  0.3235742E+04  0.7818608E-02  0.8179441E-01
          2   -1    0    0  501    0  0.00000000000E+00  0.00000000000E+00  0.40415930029E+04  0.40415930029E+04  0.00000000000E+00 0.  1.
         -2   -1    0    0    0  501 -0.00000000000E+00 -0.00000000000E+00 -0.64764235443E+03  0.64764235443E+03  0.00000000000E+00 0. -1.
         23    2    1    2    0    0 -0.11131151105E+03 -0.15120473664E+04  0.25110919387E+04  0.29347790336E+04  0.93100807873E+02 0.  0.
         13    1    3    3    0    0 -0.83386898904E+02 -0.13959282015E+04  0.23426900851E+04  0.27283265482E+04  0.00000000000E+00 0.  1.
        -13    1    3    3    0    0 -0.27924612147E+02 -0.11611916491E+03  0.16840185359E+03  0.20645248537E+03  0.00000000000E+00 0. -1.
         22    1    1    2    0    0  0.11131151105E+03  0.15120473664E+04  0.88285870975E+03  0.17544563238E+04  0.00000000000E+00 0. -1.
<mgrwt>
<rscale>  0 0.32357421E+04</rscale>
<asrwt>0</asrwt>
<pdfrwt beam="1">  1        2 0.62178352E+00 0.32357421E+04</pdfrwt>
<pdfrwt beam="2">  1       -2 0.99637288E-01 0.32357421E+04</pdfrwt>
<totfact> 0.22090667E-01</totfact>
</mgrwt>
</event>
<event>
 6    1  0.5026615E-004  0.4236460E+04  0.7818608E-02  0.7958473E-01
         -2   -1    0    0    0  501 -0.00000000000E+00  0.00000000000E+00  0.15572932331E+04  0.15572932331E+04  0.00000000000E+00 0. -1.
          2   -1    0    0  501    0  0.00000000000E+00 -0.00000000000E+00 -0.28812157928E+04  0.28812157928E+04  0.00000000000E+00 0.  1.
         23    2    1    2    0    0  0.32562452210E+03 -0.55202378538E+03  0.14521001743E+04  0.15894629033E+04  0.83879771275E+02 0.  0.
         13    1    3    3    0    0  0.21311932433E+03 -0.43092167743E+03  0.11024569854E+04  0.12027155704E+04  0.00000000000E+00 0. -1.
        -13    1    3    3    0    0  0.11250519777E+03 -0.12110210795E+03  0.34964318883E+03  0.38674733298E+03  0.00000000000E+00 0.  1.
         22    1    1    2    0    0 -0.32562452210E+03  0.55202378538E+03 -0.27760227339E+04  0.28490461225E+04  0.00000000000E+00 0.  1.
<mgrwt>
<rscale>  0 0.42364598E+04</rscale>
<asrwt>0</asrwt>
<pdfrwt beam="1">  1        2 0.44326396E+00 0.42364598E+04</pdfrwt>
<pdfrwt beam="2">  1       -2 0.23958358E+00 0.42364598E+04</pdfrwt>
<totfact> 0.11895352E-01</totfact>
</mgrwt>
</event>
<event>
 6    1  0.5026615E-004  0.4685212E+04  0.7818608E-02  0.7878990E-01
          2   -1    0    0  501    0  0.00000000000E+00  0.00000000000E+00  0.44151614204E+04  0.44151614204E+04  0.00000000000E+00 0.  1.
         -2   -1    0    0    0  501 -0.00000000000E+00 -0.00000000000E+00 -0.12429451334E+04  0.12429451334E+04  0.00000000000E+00 0. -1.
         23    2    1    2    0    0  0.72826505352E+03  0.20422521007E+04  0.51830372377E+03  0.22310939299E+04  0.89318212670E+02 0.  0.
         13    1    3    3    0    0  0.34431861980E+03  0.97497528534E+03  0.20143913042E+03  0.10534276635E+04  0.00000000000E+00 0.  1.
        -13    1    3    3    0    0  0.38394643372E+03  0.10672768154E+04  0.31686459335E+03  0.11776662664E+04  0.00000000000E+00 0. -1.
         22    1    1    2    0    0 -0.72826505352E+03 -0.20422521007E+04  0.26539125632E+04  0.34270126239E+04  0.00000000000E+00 0.  1.
<mgrwt>
<rscale>  0 0.46852122E+04</rscale>
<asrwt>0</asrwt>
<pdfrwt beam="1">  1        2 0.67925559E+00 0.46852122E+04</pdfrwt>
<pdfrwt beam="2">  1       -2 0.19122233E+00 0.46852122E+04</pdfrwt>
<totfact> 0.16725592E-02</totfact>
</mgrwt>
</event>
<event>
 6    1  0.5026615E-004  0.3344400E+04  0.7818608E-02  0.8151689E-01
         -2   -1    0    0    0  501 -0.00000000000E+00  0.00000000000E+00  0.22709762179E+04  0.22709762179E+04  0.00000000000E+00 0. -1.
          2   -1    0    0  501    0  0.00000000000E+00 -0.00000000000E+00 -0.12313002322E+04  0.12313002322E+04  0.00000000000E+00 0.  1.
         23    2    1    2    0    0  0.32661567394E+03 -0.15298303054E+04  0.11353592373E+04  0.19350451824E+04  0.91108169383E+02 0.  0.
         13    1    3    3    0    0  0.90322830926E+02 -0.44550781313E+03  0.38148215989E+03  0.59343412749E+03  0.00000000000E+00 0. -1.
        -13    1    3    3    0    0  0.23629284301E+03 -0.10843224923E+04  0.75387707737E+03  0.13416110549E+04  0.00000000000E+00 0.  1.
         22    1    1    2    0    0 -0.32661567394E+03  0.15298303054E+04 -0.95683251577E+02  0.15672312677E+04  0.00000000000E+00 0.  1.
<mgrwt>
<rscale>  0 0.33444004E+04</rscale>
<asrwt>0</asrwt>
<pdfrwt beam="1">  1        2 0.18943081E+00 0.33444004E+04</pdfrwt>
<pdfrwt beam="2">  1       -2 0.34938096E+00 0.33444004E+04</pdfrwt>
<totfact> 0.23694478E-01</totfact>
</mgrwt>
</event>
<event>
 6    1  0.5026615E-004  0.4156637E+04  0.7818608E-02  0.7973672E-01
         -2   -1    0    0    0  501 -0.00000000000E+00  0.00000000000E+00  0.12036872174E+04  0.12036872174E+04  0.00000000000E+00 0. -1.
          2   -1    0    0  501    0  0.00000000000E+00 -0.00000000000E+00 -0.35884803529E+04  0.35884803529E+04  0.00000000000E+00 0.  1.
         23    2    1    2    0    0  0.40451261809E+03  0.20043001075E+04 -0.77031978782E+03  0.21869087406E+04  0.91257246273E+02 0.  0.
         11    1    3    3    0    0  0.30752276134E+03  0.16443893464E+04 -0.60200820102E+03  0.17779202584E+04  0.00000000000E+00 0.  1.
        -11    1    3    3    0    0  0.96989856754E+02  0.35991076114E+03 -0.16831158680E+03  0.40898848217E+03  0.00000000000E+00 0. -1.
         22    1    1    2    0    0 -0.40451261809E+03 -0.20043001075E+04 -0.16144733476E+04  0.26052588297E+04  0.00000000000E+00 0.  1.
<mgrwt>
<rscale>  0 0.41566371E+04</rscale>
<asrwt>0</asrwt>
<pdfrwt beam="1">  1        2 0.55207390E+00 0.41566371E+04</pdfrwt>
<pdfrwt beam="2">  1       -2 0.18518265E+00 0.41566371E+04</pdfrwt>
<totfact> 0.91384705E-02</totfact>
</mgrwt>
</event>
<event>
 6    1  0.5026615E-004  0.2211400E+04  0.7818608E-02  0.8513698E-01
          2   -1    0    0  501    0  0.00000000000E+00  0.00000000000E+00  0.10258861541E+04  0.10258861541E+04  0.00000000000E+00 0.  1.
         -2   -1    0    0    0  501 -0.00000000000E+00 -0.00000000000E+00 -0.11917233286E+04  0.11917233286E+04  0.00000000000E+00 0. -1.
         23    2    1    2    0    0  0.16883953074E+03  0.25384681585E+03  0.98079265679E+03  0.10311420524E+04  0.91404067693E+02 0.  0.
         11    1    3    3    0    0  0.12235413966E+03  0.16385350611E+03  0.50788571091E+03  0.54750927143E+03  0.00000000000E+00 0. -1.
        -11    1    3    3    0    0  0.46485391077E+02  0.89993309744E+02  0.47290694588E+03  0.48363278099E+03  0.00000000000E+00 0.  1.
         22    1    1    2    0    0 -0.16883953074E+03 -0.25384681585E+03 -0.11466298313E+04  0.11864674303E+04  0.00000000000E+00 0. -1.
<mgrwt>
<rscale>  0 0.22114000E+04</rscale>
<asrwt>0</asrwt>
<pdfrwt beam="1">  1        2 0.15782864E+00 0.22114000E+04</pdfrwt>
<pdfrwt beam="2">  1       -2 0.18334205E+00 0.22114000E+04</pdfrwt>
<totfact> 0.38070506E+00</totfact>
</mgrwt>
</event>
<event>
 6    1  0.5026615E-004  0.6953991E+03  0.7818608E-02  0.9725133E-01
          1   -1    0    0  501    0  0.00000000000E+00  0.00000000000E+00  0.49512294112E+03  0.49512294112E+03  0.00000000000E+00 0.  1.
         -1   -1    0    0    0  501 -0.00000000000E+00 -0.00000000000E+00 -0.24417162074E+03  0.24417162074E+03  0.00000000000E+00 0. -1.
         23    2    1    2    0    0  0.33199043258E+03 -0.65863904300E+02  0.17650011030E+03  0.39274199168E+03  0.92402823991E+02 0.  0.
         13    1    3    3    0    0  0.96841976297E+02 -0.23596641679E+02  0.72267545990E+01  0.99936959398E+02  0.00000000000E+00 0. -1.
        -13    1    3    3    0    0  0.23514845628E+03 -0.42267262621E+02  0.16927335570E+03  0.29280503228E+03  0.00000000000E+00 0.  1.
         22    1    1    2    0    0 -0.33199043258E+03  0.65863904300E+02  0.74451210079E+02  0.34655257017E+03  0.00000000000E+00 0. -1.
<mgrwt>
<rscale>  0 0.69539908E+03</rscale>
<asrwt>0</asrwt>
<pdfrwt beam="1">  1        1 0.76172760E-01 0.69539908E+03</pdfrwt>
<pdfrwt beam="2">  1       -1 0.37564865E-01 0.69539908E+03</pdfrwt>
<totfact> 0.31065212E+02</totfact>
</mgrwt>
</event>
<event>
 6    1  0.5026615E-004  0.2864625E+04  0.7818608E-02  0.8283481E-01
         -2   -1    0    0    0  501 -0.00000000000E+00  0.00000000000E+00  0.17877074265E+04  0.17877074265E+04  0.00000000000E+00 0. -1.
          2   -1    0    0  501    0  0.00000000000E+00 -0.00000000000E+00 -0.11475702013E+04  0.11475702013E+04  0.00000000000E+00 0.  1.
         23    2    1    2    0    0 -0.54240893094E+03  0.14796294807E+03 -0.10279076075E+04  0.11750293367E+04  0.89439422766E+02 0.  0.
         11    1    3    3    0    0 -0.52426783463E+03  0.12525644747E+03 -0.99038483750E+03  0.11275673223E+04  0.00000000000E+00 0.  1.
        -11    1    3    3    0    0 -0.18141096309E+02  0.22706500600E+02 -0.37522769972E+02  0.47462014402E+02  0.00000000000E+00 0. -1.
         22    1    1    2    0    0  0.54240893094E+03 -0.14796294807E+03  0.16680448327E+04  0.17602482911E+04  0.00000000000E+00 0. -1.
<mgrwt>
<rscale>  0 0.28646255E+04</rscale>
<asrwt>0</asrwt>
<pdfrwt beam="1">  1        2 0.17654926E+00 0.28646255E+04</pdfrwt>
<pdfrwt beam="2">  1       -2 0.27503191E+00 0.28646255E+04</pdfrwt>
<totfact> 0.79622400E-01</totfact>
</mgrwt>
</event>
<event>
 6    1  0.5026615E-004  0.5655584E+04  0.7818608E-02  0.7734636E-01
         -2   -1    0    0    0  501 -0.00000000000E+00  0.00000000000E+00  0.19024284297E+04  0.19024284297E+04  0.00000000000E+00 0. -1.
          2   -1    0    0  501    0  0.00000000000E+00 -0.00000000000E+00 -0.42032640245E+04  0.42032640245E+04  0.00000000000E+00 0.  1.
         23    2    1    2    0    0 -0.16887784953E+04  0.17365279545E+04 -0.27243461814E+04  0.36466553743E+04  0.92364277909E+02 0.  0.
         13    1    3    3    0    0 -0.92373262831E+03  0.89976859286E+03 -0.14044106115E+04  0.19066291341E+04  0.00000000000E+00 0. -1.
        -13    1    3    3    0    0 -0.76504586701E+03  0.83675936164E+03 -0.13199355699E+04  0.17400262402E+04  0.00000000000E+00 0.  1.
         22    1    1    2    0    0  0.16887784953E+04 -0.17365279545E+04  0.42351058673E+03  0.24590370799E+04  0.00000000000E+00 0. -1.
<mgrwt>
<rscale>  0 0.56555845E+04</rscale>
<asrwt>0</asrwt>
<pdfrwt beam="1">  1        2 0.64665599E+00 0.56555845E+04</pdfrwt>
<pdfrwt beam="2">  1       -2 0.29268130E+00 0.56555845E+04</pdfrwt>
<totfact> 0.55863771E-03</totfact>
</mgrwt>
</event>
<event>
 6    1  0.5026615E-004  0.5191220E+04  0.7818608E-02  0.7799668E-01
          4   -1    0    0  501    0  0.00000000000E+00  0.00000000000E+00  0.23496680707E+04  0.23496680707E+04  0.00000000000E+00 0. -1.
         -4   -1    0    0    0  501 -0.00000000000E+00 -0.00000000000E+00 -0.28672952891E+04  0.28672952891E+04  0.00000000000E+00 0.  1.
         23    2    1    2    0    0 -0.14170937330E+04 -0.21727223813E+04 -0.19297750936E+03  0.26027187982E+04  0.89597036991E+02 0.  0.
         13    1    3    3    0    0 -0.10239323002E+04 -0.15372994725E+04 -0.17391131427E+03  0.18552552840E+04  0.00000000000E+00 0. -1.
        -13    1    3    3    0    0 -0.39316143281E+03 -0.63542290884E+03 -0.19066195090E+02  0.74746351424E+03  0.00000000000E+00 0.  1.
         22    1    1    2    0    0  0.14170937330E+04  0.21727223813E+04 -0.32464970906E+03  0.26142445616E+04  0.00000000000E+00 0.  1.
<mgrwt>
<rscale>  0 0.51912204E+04</rscale>
<asrwt>0</asrwt>
<pdfrwt beam="1">  1        4 0.36148740E+00 0.51912204E+04</pdfrwt>
<pdfrwt beam="2">  1       -4 0.44112235E+00 0.51912204E+04</pdfrwt>
<totfact> 0.59089349E-05</totfact>
</mgrwt>
</event>
<event>
 6    1  0.5026615E-004  0.1288845E+04  0.7818608E-02  0.9038458E-01
         -2   -1    0    0    0  501 -0.00000000000E+00  0.00000000000E+00  0.91959292215E+02  0.91959292215E+02  0.00000000000E+00 0. -1.
          2   -1    0    0  501    0  0.00000000000E+00 -0.00000000000E+00 -0.45159171822E+04  0.45159171822E+04  0.00000000000E+00 0.  1.
         23    2    1    2    0    0 -0.29091745508E+03 -0.95959220265E+02 -0.42369148702E+04  0.42489527654E+04  0.91163850489E+02 0.  0.
         11    1    3    3    0    0 -0.15338315040E+03 -0.51163458618E+02 -0.16216826570E+04  0.16297235135E+04  0.00000000000E+00 0.  1.
        -11    1    3    3    0    0 -0.13753430468E+03 -0.44795761648E+02 -0.26152322132E+04  0.26192292519E+04  0.00000000000E+00 0. -1.
         22    1    1    2    0    0  0.29091745508E+03  0.95959220265E+02 -0.18704301972E+03  0.35892370895E+03  0.00000000000E+00 0. -1.
<mgrwt>
<rscale>  0 0.12888453E+04</rscale>
<asrwt>0</asrwt>
<pdfrwt beam="1">  1        2 0.69475637E+00 0.12888453E+04</pdfrwt>
<pdfrwt beam="2">  1       -2 0.14147586E-01 0.12888453E+04</pdfrwt>
<totfact> 0.47476685E+00</totfact>
</mgrwt>
</event>
<event>
 6    1  0.5026615E-004  0.1808234E+04  0.7818608E-02  0.8701933E-01
         -2   -1    0    0    0  501 -0.00000000000E+00  0.00000000000E+00  0.31061336668E+03  0.31061336668E+03  0.00000000000E+00 0. -1.
          2   -1    0    0  501    0  0.00000000000E+00 -0.00000000000E+00 -0.26316557527E+04  0.26316557527E+04  0.00000000000E+00 0.  1.
         23    2    1    2    0    0 -0.54636747332E+03  0.70626415047E+03 -0.95762190474E+03  0.13124710107E+04  0.90630985090E+02 0.  0.
         13    1    3    3    0    0 -0.17642908031E+03  0.17028361379E+03 -0.29095323083E+03  0.38049640213E+03  0.00000000000E+00 0. -1.
        -13    1    3    3    0    0 -0.36993839302E+03  0.53598053668E+03 -0.66666867391E+03  0.93197460861E+03  0.00000000000E+00 0.  1.
         22    1    1    2    0    0  0.54636747332E+03 -0.70626415047E+03 -0.13634204812E+04  0.16297981086E+04  0.00000000000E+00 0. -1.
<mgrwt>
<rscale>  0 0.18082339E+04</rscale>
<asrwt>0</asrwt>
<pdfrwt beam="1">  1        2 0.40487011E+00 0.18082339E+04</pdfrwt>
<pdfrwt beam="2">  1       -2 0.47786673E-01 0.18082339E+04</pdfrwt>
<totfact> 0.11432100E+01</totfact>
</mgrwt>
</event>
<event>
 6    1  0.5026615E-004  0.1133245E+04  0.7818608E-02  0.9173382E-01
         -2   -1    0    0    0  501 -0.00000000000E+00  0.00000000000E+00  0.35113964659E+03  0.35113964659E+03  0.00000000000E+00 0. -1.
          2   -1    0    0  501    0  0.00000000000E+00 -0.00000000000E+00 -0.91433969567E+03  0.91433969567E+03  0.00000000000E+00 0.  1.
         23    2    1    2    0    0 -0.23930493278E+03 -0.19202732035E+03  0.24368510875E+03  0.40222677173E+03  0.90898850660E+02 0.  0.
         13    1    3    3    0    0 -0.19161644690E+03 -0.11961218830E+03  0.13485014800E+03  0.26307508572E+03  0.00000000000E+00 0.  1.
        -13    1    3    3    0    0 -0.47688485879E+02 -0.72415132057E+02  0.10883496075E+03  0.13915168600E+03  0.00000000000E+00 0. -1.
         22    1    1    2    0    0  0.23930493278E+03  0.19202732035E+03 -0.80688515782E+03  0.86325257053E+03  0.00000000000E+00 0.  1.
<mgrwt>
<rscale>  0 0.11332448E+04</rscale>
<asrwt>0</asrwt>
<pdfrwt beam="1">  1        2 0.14066764E+00 0.11332448E+04</pdfrwt>
<pdfrwt beam="2">  1       -2 0.54021485E-01 0.11332448E+04</pdfrwt>
<totfact> 0.91699611E+01</totfact>
</mgrwt>
</event>
<event>
 6    1  0.5026615E-004  0.4703336E+03  0.7818608E-02  0.1021826E+00
          2   -1    0    0  501    0  0.00000000000E+00  0.00000000000E+00  0.22974360511E+04  0.22974360511E+04  0.00000000000E+00 0.  1.
         -2   -1    0    0    0  501 -0.00000000000E+00 -0.00000000000E+00 -0.24071797422E+02  0.24071797422E+02  0.00000000000E+00 0. -1.
         23    2    1    2    0    0  0.21253631911E+03  0.64302627697E+01  0.15622684118E+04  0.15793014543E+04  0.91090383524E+02 0.  0.
         13    1    3    3    0    0  0.73588704409E+02  0.46019082874E+02  0.60272858144E+03  0.60894564314E+03  0.00000000000E+00 0.  1.
        -13    1    3    3    0    0  0.13894761470E+03 -0.39588820105E+02  0.95953983035E+03  0.97035581120E+03  0.00000000000E+00 0. -1.
         22    1    1    2    0    0 -0.21253631911E+03 -0.64302627697E+01  0.71109584188E+03  0.74220639418E+03  0.00000000000E+00 0. -1.
<mgrwt>
<rscale>  0 0.47033356E+03</rscale>
<asrwt>0</asrwt>
<pdfrwt beam="1">  1        2 0.35345153E+00 0.47033356E+03</pdfrwt>
<pdfrwt beam="2">  1       -2 0.37033553E-02 0.47033356E+03</pdfrwt>
<totfact> 0.15674793E+03</totfact>
</mgrwt>
</event>
<event>
 6    1  0.5026615E-004  0.2594119E+04  0.7818608E-02  0.8370202E-01
          2   -1    0    0  501    0  0.00000000000E+00  0.00000000000E+00  0.18318463674E+04  0.18318463674E+04  0.00000000000E+00 0.  1.
         -2   -1    0    0    0  501 -0.00000000000E+00 -0.00000000000E+00 -0.91839767143E+03  0.91839767143E+03  0.00000000000E+00 0. -1.
         23    2    1    2    0    0 -0.69424230013E+03  0.42218205944E+03 -0.61229538947E+03  0.10216304103E+04  0.92806188554E+02 0.  0.
         13    1    3    3    0    0 -0.12357146856E+03  0.65100879452E+02 -0.15023452909E+03  0.20513031487E+03  0.00000000000E+00 0. -1.
        -13    1    3    3    0    0 -0.57067083156E+03  0.35708117999E+03 -0.46206086038E+03  0.81650009541E+03  0.00000000000E+00 0.  1.
         22    1    1    2    0    0  0.69424230013E+03 -0.42218205944E+03  0.15257440855E+04  0.17286136286E+04  0.00000000000E+00 0.  1.
<mgrwt>
<rscale>  0 0.25941191E+04</rscale>
<asrwt>0</asrwt>
<pdfrwt beam="1">  1        2 0.28182252E+00 0.25941191E+04</pdfrwt>
<pdfrwt beam="2">  1       -2 0.14129195E+00 0.25941191E+04</pdfrwt>
<totfact> 0.25713403E+00</totfact>
</mgrwt>
</event>
<event>
 6    1  0.5026615E-004  0.4365501E+04  0.7818608E-02  0.7934616E-01
         -2   -1    0    0    0  501 -0.00000000000E+00  0.00000000000E+00  0.16015972398E+04  0.16015972398E+04  0.00000000000E+00 0. -1.
          2   -1    0    0  501    0  0.00000000000E+00 -0.00000000000E+00 -0.29747797624E+04  0.29747797624E+04  0.00000000000E+00 0.  1.
         23    2    1    2    0    0  0.58146852534E+03  0.20330206300E+04 -0.12315110046E+03  0.21199859332E+04  0.88857389273E+02 0.  0.
         11    1    3    3    0    0  0.12976972308E+03  0.36643260174E+03  0.20374000748E+01  0.38873793698E+03  0.00000000000E+00 0. -1.
        -11    1    3    3    0    0  0.45169880226E+03  0.16665880282E+04 -0.12518850053E+03  0.17312479962E+04  0.00000000000E+00 0.  1.
         22    1    1    2    0    0 -0.58146852534E+03 -0.20330206300E+04 -0.12500314221E+04  0.24563910690E+04  0.00000000000E+00 0.  1.
<mgrwt>
<rscale>  0 0.43655007E+04</rscale>
<asrwt>0</asrwt>
<pdfrwt beam="1">  1        2 0.45765842E+00 0.43655007E+04</pdfrwt>
<pdfrwt beam="2">  1       -2 0.24639958E+00 0.43655007E+04</pdfrwt>
<totfact> 0.93487816E-02</totfact>
</mgrwt>
</event>
<event>
 6    1  0.5026615E-004  0.6389935E+04  0.7818608E-02  0.7643849E-01
          2   -1    0    0  501    0  0.00000000000E+00  0.00000000000E+00  0.41212673941E+04  0.41212673941E+04  0.00000000000E+00 0. -1.
         -2   -1    0    0    0  501 -0.00000000000E+00 -0.00000000000E+00 -0.24768638839E+04  0.24768638839E+04  0.00000000000E+00 0.  1.
         23    2    1    2    0    0 -0.12150930587E+04 -0.21493616670E+04  0.29151331791E+04  0.38212696308E+04  0.88844933450E+02 0.  0.
         13    1    3    3    0    0 -0.81297260261E+03 -0.14919135624E+04  0.19563347261E+04  0.25911341322E+04  0.00000000000E+00 0. -1.
        -13    1    3    3    0    0 -0.40212045609E+03 -0.65744810454E+03  0.95879845300E+03  0.12301354986E+04  0.00000000000E+00 0.  1.
         22    1    1    2    0    0  0.12150930587E+04  0.21493616670E+04 -0.12707296689E+04  0.27768616473E+04  0.00000000000E+00 0.  1.
<mgrwt>
<rscale>  0 0.63899353E+04</rscale>
<asrwt>0</asrwt>
<pdfrwt beam="1">  1        2 0.63404114E+00 0.63899353E+04</pdfrwt>
<pdfrwt beam="2">  1       -2 0.38105598E+00 0.63899353E+04</pdfrwt>
<totfact> 0.17377620E-03</totfact>
</mgrwt>
</event>
<event>
 6    1  0.5026615E-004  0.2297895E+04  0.7818608E-02  0.8478752E-01
         -2   -1    0    0    0  501 -0.00000000000E+00  0.00000000000E+00  0.86112508232E+03  0.86112508232E+03  0.00000000000E+00 0. -1.
          2   -1    0    0  501    0  0.00000000000E+00 -0.00000000000E+00 -0.15329717762E+04  0.15329717762E+04  0.00000000000E+00 0.  1.
         23    2    1    2    0    0 -0.80505168370E+03  0.79760568433E+03 -0.14706319922E+03  0.11452250647E+04  0.75032147920E+02 0.  0.
         11    1    3    3    0    0 -0.42874747163E+03  0.41762836989E+03 -0.40229817813E+02  0.59988022805E+03  0.00000000000E+00 0. -1.
        -11    1    3    3    0    0 -0.37630421207E+03  0.37997731444E+03 -0.10683338141E+03  0.54534483667E+03  0.00000000000E+00 0.  1.
         22    1    1    2    0    0  0.80505168370E+03 -0.79760568433E+03 -0.52478349468E+03  0.12488717938E+04  0.00000000000E+00 0.  1.
<mgrwt>
<rscale>  0 0.22978951E+04</rscale>
<asrwt>0</asrwt>
<pdfrwt beam="1">  1        2 0.23584181E+00 0.22978951E+04</pdfrwt>
<pdfrwt beam="2">  1       -2 0.13248078E+00 0.22978951E+04</pdfrwt>
<totfact> 0.45656002E+00</totfact>
</mgrwt>
</event>
<event>
 6    1  0.5026615E-004  0.6076107E+03  0.7818608E-02  0.9889741E-01
         -2   -1    0    0    0  501 -0.00000000000E+00  0.00000000000E+00  0.24291924739E+02  0.24291924739E+02  0.00000000000E+00 0. -1.
          2   -1    0    0  501    0  0.00000000000E+00 -0.00000000000E+00 -0.37995209908E+04  0.37995209908E+04  0.00000000000E+00 0.  1.
         23    2    1    2    0    0 -0.25852555143E+02  0.29404926381E+03 -0.21457535478E+04  0.21678166025E+04  0.89650488370E+02 0.  0.
         13    1    3    3    0    0 -0.95998672703E+00  0.26936102186E+03 -0.17627338819E+04  0.17831957324E+04  0.00000000000E+00 0. -1.
        -13    1    3    3    0    0 -0.24892568416E+02  0.24688241944E+02 -0.38301966589E+03  0.38462087009E+03  0.00000000000E+00 0.  1.
         22    1    1    2    0    0  0.25852555143E+02 -0.29404926381E+03 -0.16294755182E+04  0.16559963130E+04  0.00000000000E+00 0. -1.
<mgrwt>
<rscale>  0 0.60761066E+03</rscale>
<asrwt>0</asrwt>
<pdfrwt beam="1">  1        2 0.58454159E+00 0.60761066E+03</pdfrwt>
<pdfrwt beam="2">  1       -2 0.37372199E-02 0.60761066E+03</pdfrwt>
<totfact> 0.17734154E+02</totfact>
</mgrwt>
</event>
<event>
 6    1  0.5026615E-004  0.2861580E+04  0.7818608E-02  0.8284401E-01
          2   -1    0    0  501    0  0.00000000000E+00  0.00000000000E+00  0.12428260211E+04  0.12428260211E+04  0.00000000000E+00 0.  1.
         -2   -1    0    0    0  501 -0.00000000000E+00 -0.00000000000E+00 -0.16471814793E+04  0.16471814793E+04  0.00000000000E+00 0. -1.
         23    2    1    2    0    0 -0.28343262917E+03  0.31943162196E+02  0.12120429356E+04  0.12486366745E+04  0.93225781218E+02 0.  0.
         13    1    3    3    0    0 -0.70976698927E+02 -0.19808022822E+02  0.19757634528E+03  0.21087072290E+03  0.00000000000E+00 0. -1.
        -13    1    3    3    0    0 -0.21245593024E+03  0.51751185017E+02  0.10144665903E+04  0.10377659516E+04  0.00000000000E+00 0.  1.
         22    1    1    2    0    0  0.28343262917E+03 -0.31943162196E+02 -0.16163983937E+04  0.16413708259E+04  0.00000000000E+00 0. -1.
<mgrwt>
<rscale>  0 0.28615800E+04</rscale>
<asrwt>0</asrwt>
<pdfrwt beam="1">  1        2 0.19120400E+00 0.28615800E+04</pdfrwt>
<pdfrwt beam="2">  1       -2 0.25341254E+00 0.28615800E+04</pdfrwt>
<totfact> 0.94686054E-01</totfact>
</mgrwt>
</event>
<event>
 6    1  0.5026615E-004  0.1763619E+04  0.7818608E-02  0.8725889E-01
         -2   -1    0    0    0  501 -0.00000000000E+00  0.00000000000E+00  0.12376425246E+04  0.12376425246E+04  0.00000000000E+00 0. -1.
          2   -1    0    0  501    0  0.00000000000E+00 -0.00000000000E+00 -0.62828137370E+03  0.62828137370E+03  0.00000000000E+00 0.  1.
         23    2    1    2    0    0 -0.25068007277E+03 -0.73154327395E+03 -0.13850629352E+03  0.79014428566E+03  0.84545480510E+02 0.  0.
         13    1    3    3    0    0 -0.16066063273E+03 -0.45962381605E+03 -0.12837008935E+03  0.50353229393E+03  0.00000000000E+00 0. -1.
        -13    1    3    3    0    0 -0.90019440032E+02 -0.27191945790E+03 -0.10136204163E+02  0.28661199173E+03  0.00000000000E+00 0.  1.
         22    1    1    2    0    0  0.25068007277E+03  0.73154327395E+03  0.74786744437E+03  0.10757796126E+04  0.00000000000E+00 0. -1.
<mgrwt>
<rscale>  0 0.17636187E+04</rscale>
<asrwt>0</asrwt>
<pdfrwt beam="1">  1        2 0.96658673E-01 0.17636187E+04</pdfrwt>
<pdfrwt beam="2">  1       -2 0.19040654E+00 0.17636187E+04</pdfrwt>
<totfact> 0.68319741E+00</totfact>
</mgrwt>
</event>
<event>
 6    1  0.5026615E-004  0.1622136E+04  0.7818608E-02  0.8807063E-01
         -1   -1    0    0    0  501 -0.00000000000E+00  0.00000000000E+00  0.12867509858E+04  0.12867509858E+04  0.00000000000E+00 0. -1.
          1   -1    0    0  501    0  0.00000000000E+00 -0.00000000000E+00 -0.51123450381E+03  0.51123450381E+03  0.00000000000E+00 0.  1.
         23    2    1    2    0    0 -0.52844059214E+03 -0.51503010134E+03  0.75564327354E+03  0.10598117911E+04  0.87742869121E+02 0.  0.
         13    1    3    3    0    0 -0.10861330743E+03 -0.85336686992E+02  0.18816047500E+03  0.23341714815E+03  0.00000000000E+00 0. -1.
        -13    1    3    3    0    0 -0.41982728471E+03 -0.42969341435E+03  0.56748279853E+03  0.82639464299E+03  0.00000000000E+00 0.  1.
         22    1    1    2    0    0  0.52844059214E+03  0.51503010134E+03  0.19873208466E+02  0.73817369848E+03  0.00000000000E+00 0.  1.
<mgrwt>
<rscale>  0 0.16221362E+04</rscale>
<asrwt>0</asrwt>
<pdfrwt beam="1">  1        1 0.78651463E-01 0.16221362E+04</pdfrwt>
<pdfrwt beam="2">  1       -1 0.19796169E+00 0.16221362E+04</pdfrwt>
<totfact> 0.63984682E+00</totfact>
</mgrwt>
</event>
<event>
 6    1  0.5026615E-004  0.3777769E+04  0.7818608E-02  0.8050943E-01
          2   -1    0    0  501    0  0.00000000000E+00  0.00000000000E+00  0.23422627046E+04  0.23422627046E+04  0.00000000000E+00 0.  1.
         -2   -1    0    0    0  501 -0.00000000000E+00 -0.00000000000E+00 -0.15232639914E+04  0.15232639914E+04  0.00000000000E+00 0. -1.
         23    2    1    2    0    0 -0.70754339160E+03  0.75832037660E+03 -0.12037146517E+04  0.15924149960E+04  0.10577860021E+03 0.  0.
         11    1    3    3    0    0 -0.26044422008E+03  0.35556991453E+03 -0.51394546506E+03  0.67705324528E+03  0.00000000000E+00 0. -1.
        -11    1    3    3    0    0 -0.44709917152E+03  0.40275046207E+03 -0.68976918660E+03  0.91536175070E+03  0.00000000000E+00 0.  1.
         22    1    1    2    0    0  0.70754339160E+03 -0.75832037660E+03  0.20227133648E+04  0.22731117000E+04  0.00000000000E+00 0.  1.
<mgrwt>
<rscale>  0 0.37777689E+04</rscale>
<asrwt>0</asrwt>
<pdfrwt beam="1">  1        2 0.36034811E+00 0.37777689E+04</pdfrwt>
<pdfrwt beam="2">  1       -2 0.23434831E+00 0.37777689E+04</pdfrwt>
<totfact> 0.27674026E-01</totfact>
</mgrwt>
</event>
<event>
 6    1  0.5026615E-004  0.2321967E+04  0.7818608E-02  0.8469310E-01
         -2   -1    0    0    0  501 -0.00000000000E+00  0.00000000000E+00  0.51550452755E+03  0.51550452755E+03  0.00000000000E+00 0. -1.
          2   -1    0    0  501    0  0.00000000000E+00 -0.00000000000E+00 -0.26146874358E+04  0.26146874358E+04  0.00000000000E+00 0.  1.
         23    2    1    2    0    0  0.29951686258E+03 -0.11085883044E+04 -0.12726348819E+04  0.17153209376E+04  0.63623870197E+02 0.  0.
         13    1    3    3    0    0  0.11515571206E+03 -0.35666644793E+03 -0.45087117132E+03  0.58630760376E+03  0.00000000000E+00 0.  1.
        -13    1    3    3    0    0  0.18436115052E+03 -0.75192185644E+03 -0.82176371061E+03  0.11290133339E+04  0.00000000000E+00 0. -1.
         22    1    1    2    0    0 -0.29951686258E+03  0.11085883044E+04 -0.82654802631E+03  0.14148710257E+04  0.00000000000E+00 0. -1.
<mgrwt>
<rscale>  0 0.23219675E+04</rscale>
<asrwt>0</asrwt>
<pdfrwt beam="1">  1        2 0.40225961E+00 0.23219675E+04</pdfrwt>
<pdfrwt beam="2">  1       -2 0.79308389E-01 0.23219675E+04</pdfrwt>
<totfact> 0.38057867E+00</totfact>
</mgrwt>
</event>
<event>
 6    1  0.5026615E-004  0.1408933E+04  0.7818608E-02  0.8947378E-01
         -2   -1    0    0    0  501 -0.00000000000E+00  0.00000000000E+00  0.20979358668E+03  0.20979358668E+03  0.00000000000E+00 0. -1.
          2   -1    0    0  501    0  0.00000000000E+00 -0.00000000000E+00 -0.23655306804E+04  0.23655306804E+04  0.00000000000E+00 0.  1.
         23    2    1    2    0    0 -0.49953342612E+03  0.13696106262E+03 -0.21744624491E+03  0.56901836043E+03  0.90592762357E+02 0.  0.
         11    1    3    3    0    0 -0.20763827669E+03  0.82479547335E+02 -0.13423038025E+03  0.26064213906E+03  0.00000000000E+00 0. -1.
        -11    1    3    3    0    0 -0.29189514943E+03  0.54481515290E+02 -0.83215864658E+02  0.30837622136E+03  0.00000000000E+00 0.  1.
         22    1    1    2    0    0  0.49953342612E+03 -0.13696106262E+03 -0.19382908488E+04  0.20063059066E+04  0.00000000000E+00 0.  1.
<mgrwt>
<rscale>  0 0.14089332E+04</rscale>
<asrwt>0</asrwt>
<pdfrwt beam="1">  1        2 0.36392780E+00 0.14089332E+04</pdfrwt>
<pdfrwt beam="2">  1       -2 0.32275937E-01 0.14089332E+04</pdfrwt>
<totfact> 0.36260510E+01</totfact>
</mgrwt>
</event>
<event>
 6    1  0.5026615E-004  0.3431005E+04  0.7818608E-02  0.8130338E-01
         -2   -1    0    0    0  501 -0.00000000000E+00  0.00000000000E+00  0.16331579689E+04  0.16331579689E+04  0.00000000000E+00 0. -1.
          2   -1    0    0  501    0  0.00000000000E+00 -0.00000000000E+00 -0.18019983842E+04  0.18019983842E+04  0.00000000000E+00 0.  1.
         23    2    1    2    0    0 -0.96954032878E+03 -0.13249352506E+04  0.40940059208E+03  0.16945172376E+04  0.91202831060E+02 0.  0.
         13    1    3    3    0    0 -0.74453728572E+03 -0.10453809089E+04  0.35459755613E+03  0.13315015739E+04  0.00000000000E+00 0.  1.
        -13    1    3    3    0    0 -0.22500304305E+03 -0.27955434169E+03  0.54803035951E+02  0.36301566370E+03  0.00000000000E+00 0. -1.
         22    1    1    2    0    0  0.96954032878E+03  0.13249352506E+04 -0.57824100742E+03  0.17406391154E+04  0.00000000000E+00 0. -1.
<mgrwt>
<rscale>  0 0.34310045E+04</rscale>
<asrwt>0</asrwt>
<pdfrwt beam="1">  1        2 0.27723052E+00 0.34310045E+04</pdfrwt>
<pdfrwt beam="2">  1       -2 0.25125507E+00 0.34310045E+04</pdfrwt>
<totfact> 0.44900811E-01</totfact>
</mgrwt>
</event>
<event>
 6    1  0.5026615E-004  0.2891376E+04  0.7818608E-02  0.8275448E-01
         -2   -1    0    0    0  501 -0.00000000000E+00  0.00000000000E+00  0.23075925174E+04  0.23075925174E+04  0.00000000000E+00 0. -1.
          2   -1    0    0  501    0  0.00000000000E+00 -0.00000000000E+00 -0.90571187887E+03  0.90571187887E+03  0.00000000000E+00 0.  1.
         23    2    1    2    0    0 -0.31677880056E+03  0.20691022673E+03 -0.84734199672E+03  0.93247930142E+03  0.91479712303E+02 0.  0.
         11    1    3    3    0    0 -0.52334215771E+02  0.75816776585E+02 -0.16367987847E+03  0.18782480233E+03  0.00000000000E+00 0.  1.
        -11    1    3    3    0    0 -0.26444458479E+03  0.13109345015E+03 -0.68366211824E+03  0.74465449909E+03  0.00000000000E+00 0. -1.
         22    1    1    2    0    0  0.31677880056E+03 -0.20691022673E+03  0.22492226352E+04  0.22808250948E+04  0.00000000000E+00 0. -1.
<mgrwt>
<rscale>  0 0.28913761E+04</rscale>
<asrwt>0</asrwt>
<pdfrwt beam="1">  1        2 0.13934029E+00 0.28913761E+04</pdfrwt>
<pdfrwt beam="2">  1       -2 0.35501423E+00 0.28913761E+04</pdfrwt>
<totfact> 0.36296842E-01</totfact>
</mgrwt>
</event>
<event>
 6    1  0.5026615E-004  0.4249931E+04  0.7818608E-02  0.7955942E-01
         -2   -1    0    0    0  501 -0.00000000000E+00  0.00000000000E+00  0.15861577889E+04  0.15861577889E+04  0.00000000000E+00 0. -1.
          2   -1    0    0  501    0  0.00000000000E+00 -0.00000000000E+00 -0.28468027939E+04  0.28468027939E+04  0.00000000000E+00 0.  1.
         23    2    1    2    0    0  0.11908959552E+04 -0.13653080973E+04  0.52671247624E+03  0.18879760755E+04  0.68762287981E+02 0.  0.
         13    1    3    3    0    0  0.12359833675E+03 -0.12879492592E+03  0.71587442400E+02  0.19232639886E+03  0.00000000000E+00 0. -1.
        -13    1    3    3    0    0  0.10672976185E+04 -0.12365131714E+04  0.45512503384E+03  0.16956496766E+04  0.00000000000E+00 0.  1.
         22    1    1    2    0    0 -0.11908959552E+04  0.13653080973E+04 -0.17873574813E+04  0.25449845073E+04  0.00000000000E+00 0.  1.
<mgrwt>
<rscale>  0 0.42499310E+04</rscale>
<asrwt>0</asrwt>
<pdfrwt beam="1">  1        2 0.43796966E+00 0.42499310E+04</pdfrwt>
<pdfrwt beam="2">  1       -2 0.24402428E+00 0.42499310E+04</pdfrwt>
<totfact> 0.11709175E-01</totfact>
</mgrwt>
</event>
<event>
 6    1  0.5026615E-004  0.4055241E+04  0.7818608E-02  0.7993495E-01
          2   -1    0    0  501    0  0.00000000000E+00  0.00000000000E+00  0.33692740729E+04  0.33692740729E+04  0.00000000000E+00 0.  1.
         -2   -1    0    0    0  501 -0.00000000000E+00 -0.00000000000E+00 -0.12202166255E+04  0.12202166255E+04  0.00000000000E+00 0. -1.
         23    2    1    2    0    0 -0.14836290188E+04 -0.12466460584E+04  0.17463569787E+04  0.26102360083E+04  0.91037694429E+02 0.  0.
         13    1    3    3    0    0 -0.11106422318E+04 -0.94775262682E+03  0.12641053441E+04  0.19312492148E+04  0.00000000000E+00 0.  1.
        -13    1    3    3    0    0 -0.37298678704E+03 -0.29889343157E+03  0.48225163456E+03  0.67898679352E+03  0.00000000000E+00 0. -1.
         22    1    1    2    0    0  0.14836290188E+04  0.12466460584E+04  0.40270046867E+03  0.19792546900E+04  0.00000000000E+00 0. -1.
<mgrwt>
<rscale>  0 0.40552407E+04</rscale>
<asrwt>0</asrwt>
<pdfrwt beam="1">  1        2 0.51834985E+00 0.40552407E+04</pdfrwt>
<pdfrwt beam="2">  1       -2 0.18772564E+00 0.40552407E+04</pdfrwt>
<totfact> 0.12598228E-01</totfact>
</mgrwt>
</event>
<event>
 6    1  0.5026615E-004  0.2191371E+04  0.7818608E-02  0.8522028E-01
          2   -1    0    0  501    0  0.00000000000E+00  0.00000000000E+00  0.17974129372E+04  0.17974129372E+04  0.00000000000E+00 0.  1.
         -2   -1    0    0    0  501 -0.00000000000E+00 -0.00000000000E+00 -0.66791915187E+03  0.66791915187E+03  0.00000000000E+00 0. -1.
         23    2    1    2    0    0  0.48779651298E+02 -0.10462306728E+04  0.92050508043E+03  0.13973178786E+04  0.90496274166E+02 0.  0.
         11    1    3    3    0    0  0.86284498052E+01 -0.85911065698E+03  0.73221160612E+03  0.11288398501E+04  0.00000000000E+00 0.  1.
        -11    1    3    3    0    0  0.40151201493E+02 -0.18712001580E+03  0.18829347432E+03  0.26847802846E+03  0.00000000000E+00 0. -1.
         22    1    1    2    0    0 -0.48779651298E+02  0.10462306728E+04  0.20898870489E+03  0.10680142105E+04  0.00000000000E+00 0.  1.
<mgrwt>
<rscale>  0 0.21913708E+04</rscale>
<asrwt>0</asrwt>
<pdfrwt beam="1">  1        2 0.27652507E+00 0.21913708E+04</pdfrwt>
<pdfrwt beam="2">  1       -2 0.10275679E+00 0.21913708E+04</pdfrwt>
<totfact> 0.61303983E+00</totfact>
</mgrwt>
</event>
<event>
 6    1  0.5026615E-004  0.2118255E+04  0.7818608E-02  0.8553244E-01
         -2   -1    0    0    0  501 -0.00000000000E+00  0.00000000000E+00  0.28111140440E+03  0.28111140440E+03  0.00000000000E+00 0. -1.
          2   -1    0    0  501    0  0.00000000000E+00 -0.00000000000E+00 -0.39904147580E+04  0.39904147580E+04  0.00000000000E+00 0.  1.
         23    2    1    2    0    0 -0.45209421962E+03 -0.36487204903E+03 -0.36390867942E+04  0.36863328945E+04  0.92610569137E+02 0.  0.
         13    1    3    3    0    0 -0.33053816695E+02 -0.16694242800E+02 -0.12875545385E+03  0.13397469700E+03  0.00000000000E+00 0. -1.
        -13    1    3    3    0    0 -0.41904040292E+03 -0.34817780623E+03 -0.35103313404E+04  0.35523581975E+04  0.00000000000E+00 0.  1.
         22    1    1    2    0    0  0.45209421962E+03  0.36487204903E+03 -0.70216559355E+02  0.58519326789E+03  0.00000000000E+00 0. -1.
<mgrwt>
<rscale>  0 0.21182550E+04</rscale>
<asrwt>0</asrwt>
<pdfrwt beam="1">  1        2 0.61390988E+00 0.21182550E+04</pdfrwt>
<pdfrwt beam="2">  1       -2 0.43247914E-01 0.21182550E+04</pdfrwt>
<totfact> 0.16383935E+00</totfact>
</mgrwt>
</event>
<event>
 6    1  0.5026615E-004  0.2527887E+04  0.7818608E-02  0.8393118E-01
          2   -1    0    0  501    0  0.00000000000E+00  0.00000000000E+00  0.14270466004E+04  0.14270466004E+04  0.00000000000E+00 0.  1.
         -2   -1    0    0    0  501 -0.00000000000E+00 -0.00000000000E+00 -0.11194817261E+04  0.11194817261E+04  0.00000000000E+00 0. -1.
         23    2    1    2    0    0 -0.12196540476E+04 -0.31293072466E+03  0.23607360595E+03  0.12853413318E+04  0.10435495908E+03 0.  0.
         13    1    3    3    0    0 -0.10476243045E+04 -0.28744866696E+03  0.23480427740E+03  0.11114299205E+04  0.00000000000E+00 0. -1.
        -13    1    3    3    0    0 -0.17202974305E+03 -0.25482057708E+02  0.12693285507E+01  0.17391141122E+03  0.00000000000E+00 0.  1.
         22    1    1    2    0    0  0.12196540476E+04  0.31293072466E+03  0.71491268403E+02  0.12611869947E+04  0.00000000000E+00 0. -1.
<mgrwt>
<rscale>  0 0.25278865E+04</rscale>
<asrwt>0</asrwt>
<pdfrwt beam="1">  1        2 0.21954563E+00 0.25278865E+04</pdfrwt>
<pdfrwt beam="2">  1       -2 0.17222796E+00 0.25278865E+04</pdfrwt>
<totfact> 0.25540902E+00</totfact>
</mgrwt>
</event>
<event>
 6    1  0.6720874E-004  0.3273331E+04  0.7818608E-02  0.8169715E-01
          2   -1    0    0  501    0  0.00000000000E+00  0.00000000000E+00  0.17240533811E+04  0.17240533811E+04  0.00000000000E+00 0.  1.
         -2   -1    0    0    0  501 -0.00000000000E+00 -0.00000000000E+00 -0.15537070769E+04  0.15537070769E+04  0.00000000000E+00 0. -1.
         23    2    1    2    0    0  0.10086330389E+04 -0.10160948063E+04 -0.70612081970E+03  0.15990752934E+04  0.92983436857E+02 0.  0.
         11    1    3    3    0    0  0.22257010021E+03 -0.21493978590E+03 -0.19547977969E+03  0.36599030771E+03  0.00000000000E+00 0.  1.
        -11    1    3    3    0    0  0.78606293865E+03 -0.80115502041E+03 -0.51064104002E+03  0.12330849857E+04  0.00000000000E+00 0. -1.
         22    1    1    2    0    0 -0.10086330389E+04  0.10160948063E+04  0.87646712388E+03  0.16786851646E+04  0.00000000000E+00 0.  1.
<mgrwt>
<rscale>  0 0.32733310E+04</rscale>
<asrwt>0</asrwt>
<pdfrwt beam="1">  1        2 0.26523898E+00 0.32733310E+04</pdfrwt>
<pdfrwt beam="2">  1       -2 0.23903186E+00 0.32733310E+04</pdfrwt>
<totfact> 0.59784121E-01</totfact>
</mgrwt>
</event>
<event>
 6    1  0.5026615E-004  0.1507644E+04  0.7818608E-02  0.8879385E-01
          2   -1    0    0  501    0  0.00000000000E+00  0.00000000000E+00  0.10792545303E+04  0.10792545303E+04  0.00000000000E+00 0.  1.
         -2   -1    0    0    0  501 -0.00000000000E+00 -0.00000000000E+00 -0.52651895948E+03  0.52651895948E+03  0.00000000000E+00 0. -1.
         23    2    1    2    0    0 -0.18452362115E+03  0.63979769940E+03 -0.96545987070E+02  0.67574305784E+03  0.62589852848E+02 0.  0.
         11    1    3    3    0    0 -0.10141459340E+03  0.36965012262E+03 -0.24658475662E+02  0.38410177471E+03  0.00000000000E+00 0. -1.
        -11    1    3    3    0    0 -0.83109027743E+02  0.27014757677E+03 -0.71887511408E+02  0.29164128313E+03  0.00000000000E+00 0.  1.
         22    1    1    2    0    0  0.18452362115E+03 -0.63979769940E+03  0.64928155788E+03  0.93003043193E+03  0.00000000000E+00 0.  1.
<mgrwt>
<rscale>  0 0.15076445E+04</rscale>
<asrwt>0</asrwt>
<pdfrwt beam="1">  1        2 0.16603916E+00 0.15076445E+04</pdfrwt>
<pdfrwt beam="2">  1       -2 0.81002917E-01 0.15076445E+04</pdfrwt>
<totfact> 0.29131243E+01</totfact>
</mgrwt>
</event>
<event>
 6    1  0.5026615E-004  0.1820493E+04  0.7818608E-02  0.8695477E-01
          2   -1    0    0  501    0  0.00000000000E+00  0.00000000000E+00  0.27923038558E+04  0.27923038558E+04  0.00000000000E+00 0.  1.
         -2   -1    0    0    0  501 -0.00000000000E+00 -0.00000000000E+00 -0.29672594765E+03  0.29672594765E+03  0.00000000000E+00 0. -1.
         23    2    1    2    0    0  0.68761035692E+03  0.30608470255E+03  0.21125929327E+04  0.22445338949E+04  0.91584159621E+02 0.  0.
         11    1    3    3    0    0  0.27277048029E+03  0.73317266144E+02  0.80262092178E+03  0.85086984934E+03  0.00000000000E+00 0. -1.
        -11    1    3    3    0    0  0.41483987663E+03  0.23276743641E+03  0.13099720109E+04  0.13936640456E+04  0.00000000000E+00 0.  1.
         22    1    1    2    0    0 -0.68761035692E+03 -0.30608470255E+03  0.38298497551E+03  0.84449590854E+03  0.00000000000E+00 0. -1.
<mgrwt>
<rscale>  0 0.18204933E+04</rscale>
<asrwt>0</asrwt>
<pdfrwt beam="1">  1        2 0.42958519E+00 0.18204933E+04</pdfrwt>
<pdfrwt beam="2">  1       -2 0.45650148E-01 0.18204933E+04</pdfrwt>
<totfact> 0.10048763E+01</totfact>
</mgrwt>
</event>
<event>
 6    1  0.5026615E-004  0.3212045E+04  0.7818608E-02  0.8185643E-01
         -2   -1    0    0    0  501 -0.00000000000E+00  0.00000000000E+00  0.91788007310E+03  0.91788007310E+03  0.00000000000E+00 0. -1.
          2   -1    0    0  501    0  0.00000000000E+00 -0.00000000000E+00 -0.28100716419E+04  0.28100716419E+04  0.00000000000E+00 0.  1.
         23    2    1    2    0    0 -0.68524347783E+03 -0.42376649034E+03 -0.25575563418E+04  0.26830369130E+04  0.91956364250E+02 0.  0.
         11    1    3    3    0    0 -0.13952019750E+03 -0.58141929353E+02 -0.57252609203E+03  0.59214229330E+03  0.00000000000E+00 0. -1.
        -11    1    3    3    0    0 -0.54572328033E+03 -0.36562456098E+03 -0.19850302498E+04  0.20908946197E+04  0.00000000000E+00 0.  1.
         22    1    1    2    0    0  0.68524347783E+03  0.42376649034E+03  0.66536477300E+03  0.10449148020E+04  0.00000000000E+00 0. -1.
<mgrwt>
<rscale>  0 0.32120453E+04</rscale>
<asrwt>0</asrwt>
<pdfrwt beam="1">  1        2 0.43231871E+00 0.32120453E+04</pdfrwt>
<pdfrwt beam="2">  1       -2 0.14121232E+00 0.32120453E+04</pdfrwt>
<totfact> 0.67327842E-01</totfact>
</mgrwt>
</event>
<event>
 6    1  0.5026615E-004  0.2612107E+04  0.7818608E-02  0.8364100E-01
         -2   -1    0    0    0  501 -0.00000000000E+00  0.00000000000E+00  0.81541248533E+03  0.81541248533E+03  0.00000000000E+00 0.  1.
          2   -1    0    0  501    0  0.00000000000E+00 -0.00000000000E+00 -0.20919182734E+04  0.20919182734E+04  0.00000000000E+00 0. -1.
         23    2    1    2    0    0  0.39107017334E+03  0.50297297552E+03 -0.19060145393E+04  0.20116751539E+04  0.89598025576E+02 0.  0.
         13    1    3    3    0    0  0.18159967468E+03  0.24708289965E+03 -0.10552648345E+04  0.10989141331E+04  0.00000000000E+00 0. -1.
        -13    1    3    3    0    0  0.20947049866E+03  0.25589007588E+03 -0.85074970480E+03  0.91276102072E+03  0.00000000000E+00 0.  1.
         22    1    1    2    0    0 -0.39107017334E+03 -0.50297297552E+03  0.62950875123E+03  0.89565560483E+03  0.00000000000E+00 0.  1.
<mgrwt>
<rscale>  0 0.26121074E+04</rscale>
<asrwt>0</asrwt>
<pdfrwt beam="1">  1        2 0.32183358E+00 0.26121074E+04</pdfrwt>
<pdfrwt beam="2">  1       -2 0.12544808E+00 0.26121074E+04</pdfrwt>
<totfact> 0.24930964E+00</totfact>
</mgrwt>
</event>
<event>
 6    1  0.5026615E-004  0.5286879E+04  0.7818608E-02  0.7785715E-01
         -2   -1    0    0    0  501 -0.00000000000E+00  0.00000000000E+00  0.35411572112E+04  0.35411572112E+04  0.00000000000E+00 0. -1.
          2   -1    0    0  501    0  0.00000000000E+00 -0.00000000000E+00 -0.19733019811E+04  0.19733019811E+04  0.00000000000E+00 0.  1.
         23    2    1    2    0    0 -0.21953950091E+03 -0.15058263048E+04  0.30377149669E+04  0.33987564489E+04  0.90126167336E+02 0.  0.
         11    1    3    3    0    0 -0.66299284462E+02 -0.48363992793E+03  0.10696976810E+04  0.11758215441E+04  0.00000000000E+00 0. -1.
        -11    1    3    3    0    0 -0.15324021645E+03 -0.10221863769E+04  0.19680172860E+04  0.22229349048E+04  0.00000000000E+00 0.  1.
         22    1    1    2    0    0  0.21953950091E+03  0.15058263048E+04 -0.14698597367E+04  0.21157027434E+04  0.00000000000E+00 0.  1.
<mgrwt>
<rscale>  0 0.52868791E+04</rscale>
<asrwt>0</asrwt>
<pdfrwt beam="1">  1        2 0.30358492E+00 0.52868791E+04</pdfrwt>
<pdfrwt beam="2">  1       -2 0.54479342E+00 0.52868791E+04</pdfrwt>
<totfact> 0.45266838E-03</totfact>
</mgrwt>
</event>
<event>
 6    1  0.5026615E-004  0.7068333E+03  0.7818608E-02  0.9705617E-01
          2   -1    0    0  501    0  0.00000000000E+00  0.00000000000E+00  0.10594758712E+04  0.10594758712E+04  0.00000000000E+00 0.  1.
         -2   -1    0    0    0  501 -0.00000000000E+00 -0.00000000000E+00 -0.11789163376E+03  0.11789163376E+03  0.00000000000E+00 0. -1.
         23    2    1    2    0    0  0.44378269406E+02  0.29798178720E+03  0.19395282105E+03  0.37131830604E+03  0.97452610573E+02 0.  0.
         11    1    3    3    0    0  0.39309423939E+02  0.13609792243E+03  0.14358497472E+03  0.20170404127E+03  0.00000000000E+00 0.  1.
        -11    1    3    3    0    0  0.50688454673E+01  0.16188386478E+03  0.50367846326E+02  0.16961426477E+03  0.00000000000E+00 0. -1.
         22    1    1    2    0    0 -0.44378269406E+02 -0.29798178720E+03  0.74763141642E+03  0.80604919895E+03  0.00000000000E+00 0.  1.
<mgrwt>
<rscale>  0 0.70683334E+03</rscale>
<asrwt>0</asrwt>
<pdfrwt beam="1">  1        2 0.16299628E+00 0.70683334E+03</pdfrwt>
<pdfrwt beam="2">  1       -2 0.18137175E-01 0.70683334E+03</pdfrwt>
<totfact> 0.58870594E+02</totfact>
</mgrwt>
</event>
<event>
 6    1  0.5026615E-004  0.6757058E+03  0.7818608E-02  0.9759705E-01
          2   -1    0    0  501    0  0.00000000000E+00  0.00000000000E+00  0.71857980847E+03  0.71857980847E+03  0.00000000000E+00 0.  1.
         -2   -1    0    0    0  501 -0.00000000000E+00 -0.00000000000E+00 -0.15884747035E+03  0.15884747035E+03  0.00000000000E+00 0. -1.
         23    2    1    2    0    0 -0.19063617296E+03 -0.53985828553E+02 -0.60693315072E+02  0.22613271316E+03  0.90530134993E+02 0.  0.
         11    1    3    3    0    0 -0.58097286341E+02 -0.60463004274E+02 -0.11622198663E+02  0.84653086581E+02  0.00000000000E+00 0. -1.
        -11    1    3    3    0    0 -0.13253888661E+03  0.64771757214E+01 -0.49071116409E+02  0.14147962658E+03  0.00000000000E+00 0.  1.
         22    1    1    2    0    0  0.19063617296E+03  0.53985828553E+02  0.62042565319E+03  0.65129456566E+03  0.00000000000E+00 0.  1.
<mgrwt>
<rscale>  0 0.67570581E+03</rscale>
<asrwt>0</asrwt>
<pdfrwt beam="1">  1        2 0.11055074E+00 0.67570581E+03</pdfrwt>
<pdfrwt beam="2">  1       -2 0.24438073E-01 0.67570581E+03</pdfrwt>
<totfact> 0.59532305E+02</totfact>
</mgrwt>
</event>
<event>
 6    1  0.5026615E-004  0.2544889E+04  0.7818608E-02  0.8387166E-01
         -2   -1    0    0    0  501 -0.00000000000E+00  0.00000000000E+00  0.52851573934E+03  0.52851573934E+03  0.00000000000E+00 0.  1.
          2   -1    0    0  501    0  0.00000000000E+00 -0.00000000000E+00 -0.30635127488E+04  0.30635127488E+04  0.00000000000E+00 0. -1.
         23    2    1    2    0    0  0.40655758162E+03 -0.78768580576E+03  0.16149003255E+02  0.89127230256E+03  0.91474210790E+02 0.  0.
         11    1    3    3    0    0  0.13356088580E+03 -0.17555958252E+03 -0.58736414024E+01  0.22066757100E+03  0.00000000000E+00 0.  1.
        -11    1    3    3    0    0  0.27299669582E+03 -0.61212622325E+03  0.22022644658E+02  0.67060473156E+03  0.00000000000E+00 0. -1.
         22    1    1    2    0    0 -0.40655758162E+03  0.78768580576E+03 -0.25511460128E+04  0.27007561856E+04  0.00000000000E+00 0. -1.
<mgrwt>
<rscale>  0 0.25448888E+04</rscale>
<asrwt>0</asrwt>
<pdfrwt beam="1">  1        2 0.47130965E+00 0.25448888E+04</pdfrwt>
<pdfrwt beam="2">  1       -2 0.81310115E-01 0.25448888E+04</pdfrwt>
<totfact> 0.18801791E+00</totfact>
</mgrwt>
</event>
<event>
 6    1  0.5026615E-004  0.1251496E+04  0.7818608E-02  0.9068939E-01
          2   -1    0    0  501    0  0.00000000000E+00  0.00000000000E+00  0.12568364841E+04  0.12568364841E+04  0.00000000000E+00 0.  1.
         -2   -1    0    0    0  501 -0.00000000000E+00 -0.00000000000E+00 -0.31154462503E+03  0.31154462503E+03  0.00000000000E+00 0. -1.
         23    2    1    2    0    0 -0.44512491752E+03  0.32788205503E+03  0.11686267131E+03  0.57242039035E+03  0.91462479373E+02 0.  0.
         11    1    3    3    0    0 -0.18147557685E+03  0.18230936356E+03  0.77713218273E+02  0.26871812989E+03  0.00000000000E+00 0. -1.
        -11    1    3    3    0    0 -0.26364934067E+03  0.14557269147E+03  0.39149453036E+02  0.30370226046E+03  0.00000000000E+00 0.  1.
         22    1    1    2    0    0  0.44512491752E+03 -0.32788205503E+03  0.82842918780E+03  0.99596071881E+03  0.00000000000E+00 0.  1.
<mgrwt>
<rscale>  0 0.12514961E+04</rscale>
<asrwt>0</asrwt>
<pdfrwt beam="1">  1        2 0.19335946E+00 0.12514961E+04</pdfrwt>
<pdfrwt beam="2">  1       -2 0.47929943E-01 0.12514961E+04</pdfrwt>
<totfact> 0.71050400E+01</totfact>
</mgrwt>
</event>
<event>
 6    1  0.5026615E-004  0.1771657E+04  0.7818608E-02  0.8721519E-01
          2   -1    0    0  501    0  0.00000000000E+00  0.00000000000E+00  0.22949960688E+04  0.22949960688E+04  0.00000000000E+00 0.  1.
         -2   -1    0    0    0  501 -0.00000000000E+00 -0.00000000000E+00 -0.34191431164E+03  0.34191431164E+03  0.00000000000E+00 0. -1.
         23    2    1    2    0    0  0.52064620910E+03  0.85850682273E+02 -0.75352082620E+02  0.54096509082E+03  0.92317270527E+02 0.  0.
         13    1    3    3    0    0  0.29293525650E+03  0.85307062185E+02 -0.70786427337E+02  0.31320772285E+03  0.00000000000E+00 0. -1.
        -13    1    3    3    0    0  0.22771095260E+03  0.54362008778E+00 -0.45656552831E+01  0.22775736797E+03  0.00000000000E+00 0.  1.
         22    1    1    2    0    0 -0.52064620910E+03 -0.85850682273E+02  0.20284338398E+04  0.20959452896E+04  0.00000000000E+00 0.  1.
<mgrwt>
<rscale>  0 0.17716569E+04</rscale>
<asrwt>0</asrwt>
<pdfrwt beam="1">  1        2 0.35307631E+00 0.17716569E+04</pdfrwt>
<pdfrwt beam="2">  1       -2 0.52602203E-01 0.17716569E+04</pdfrwt>
<totfact> 0.14732025E+01</totfact>
</mgrwt>
</event>
<event>
 6    1  0.5026615E-004  0.2853308E+04  0.7818608E-02  0.8286907E-01
          2   -1    0    0  501    0  0.00000000000E+00  0.00000000000E+00  0.16476169447E+04  0.16476169447E+04  0.00000000000E+00 0.  1.
         -2   -1    0    0    0  501 -0.00000000000E+00 -0.00000000000E+00 -0.12353244975E+04  0.12353244975E+04  0.00000000000E+00 0. -1.
         23    2    1    2    0    0 -0.99444082435E+03  0.10062216640E+04  0.37940573172E+03  0.14678527078E+04  0.96167938292E+02 0.  0.
         13    1    3    3    0    0 -0.74100819433E+03  0.79095654699E+03  0.26038937442E+03  0.11146784422E+04  0.00000000000E+00 0. -1.
        -13    1    3    3    0    0 -0.25343263002E+03  0.21526511701E+03  0.11901635731E+03  0.35317426558E+03  0.00000000000E+00 0.  1.
         22    1    1    2    0    0  0.99444082435E+03 -0.10062216640E+04  0.32886715498E+02  0.14150887344E+04  0.00000000000E+00 0. -1.
<mgrwt>
<rscale>  0 0.28533080E+04</rscale>
<asrwt>0</asrwt>
<pdfrwt beam="1">  1        2 0.25347953E+00 0.28533080E+04</pdfrwt>
<pdfrwt beam="2">  1       -2 0.19004992E+00 0.28533080E+04</pdfrwt>
<totfact> 0.14076364E+00</totfact>
</mgrwt>
</event>
<event>
 6    1  0.5026615E-004  0.2054392E+04  0.7818608E-02  0.8581604E-01
          2   -1    0    0  501    0  0.00000000000E+00  0.00000000000E+00  0.11458472660E+04  0.11458472660E+04  0.00000000000E+00 0.  1.
         -2   -1    0    0    0  501 -0.00000000000E+00 -0.00000000000E+00 -0.92083121436E+03  0.92083121436E+03  0.00000000000E+00 0. -1.
         23    2    1    2    0    0 -0.82338867516E+03  0.77352441604E+02  0.72238576390E+03  0.11016246263E+04  0.88223096622E+02 0.  0.
         11    1    3    3    0    0 -0.72167889785E+03  0.40197493598E+02  0.61347409152E+03  0.94804363352E+03  0.00000000000E+00 0.  1.
        -11    1    3    3    0    0 -0.10170977731E+03  0.37154948006E+02  0.10891167238E+03  0.15358099277E+03  0.00000000000E+00 0. -1.
         22    1    1    2    0    0  0.82338867516E+03 -0.77352441604E+02 -0.49736971225E+03  0.96505385407E+03  0.00000000000E+00 0. -1.
<mgrwt>
<rscale>  0 0.20543923E+04</rscale>
<asrwt>0</asrwt>
<pdfrwt beam="1">  1        2 0.17628419E+00 0.20543923E+04</pdfrwt>
<pdfrwt beam="2">  1       -2 0.14166634E+00 0.20543923E+04</pdfrwt>
<totfact> 0.65785809E+00</totfact>
</mgrwt>
</event>
<event>
 6    1  0.5026615E-004  0.1363232E+04  0.7818608E-02  0.8980871E-01
          2   -1    0    0  501    0  0.00000000000E+00  0.00000000000E+00  0.18485065233E+04  0.18485065233E+04  0.00000000000E+00 0. -1.
         -2   -1    0    0    0  501 -0.00000000000E+00 -0.00000000000E+00 -0.25133836818E+03  0.25133836818E+03  0.00000000000E+00 0.  1.
         23    2    1    2    0    0 -0.34084777147E+03  0.22735549078E+03  0.16340210676E+04  0.16884741832E+04  0.11424751828E+03 0.  0.
         11    1    3    3    0    0 -0.83034443963E+02  0.86363079963E+02  0.67128782907E+03  0.68189489654E+03  0.00000000000E+00 0. -1.
        -11    1    3    3    0    0 -0.25781332750E+03  0.14099241081E+03  0.96273323852E+03  0.10065792866E+04  0.00000000000E+00 0.  1.
         22    1    1    2    0    0  0.34084777147E+03 -0.22735549078E+03 -0.36852912458E+02  0.41137070831E+03  0.00000000000E+00 0.  1.
<mgrwt>
<rscale>  0 0.13632324E+04</rscale>
<asrwt>0</asrwt>
<pdfrwt beam="1">  1        2 0.28438561E+00 0.13632324E+04</pdfrwt>
<pdfrwt beam="2">  1       -2 0.38667442E-01 0.13632324E+04</pdfrwt>
<totfact> 0.50021013E+01</totfact>
</mgrwt>
</event>
<event>
 6    1  0.5026615E-004  0.3507356E+04  0.7818608E-02  0.8112049E-01
          2   -1    0    0  501    0  0.00000000000E+00  0.00000000000E+00  0.37685897217E+04  0.37685897217E+04  0.00000000000E+00 0.  1.
         -2   -1    0    0    0  501 -0.00000000000E+00 -0.00000000000E+00 -0.81605748266E+03  0.81605748266E+03  0.00000000000E+00 0. -1.
         23    2    1    2    0    0 -0.15717461011E+04 -0.14848835578E+03  0.48297873153E+03  0.16535844066E+04  0.92942650540E+02 0.  0.
         13    1    3    3    0    0 -0.66374275720E+03 -0.10223248215E+03  0.23001494793E+03  0.70986815988E+03  0.00000000000E+00 0.  1.
        -13    1    3    3    0    0 -0.90800334392E+03 -0.46255873630E+02  0.25296378360E+03  0.94371624667E+03  0.00000000000E+00 0. -1.
         22    1    1    2    0    0  0.15717461011E+04  0.14848835578E+03  0.24695535075E+04  0.29310627978E+04  0.00000000000E+00 0.  1.
<mgrwt>
<rscale>  0 0.35073556E+04</rscale>
<asrwt>0</asrwt>
<pdfrwt beam="1">  1        2 0.57978302E+00 0.35073556E+04</pdfrwt>
<pdfrwt beam="2">  1       -2 0.12554731E+00 0.35073556E+04</pdfrwt>
<totfact> 0.20160584E-01</totfact>
</mgrwt>
</event>
<event>
 6    1  0.5026615E-004  0.1103261E+04  0.7818608E-02  0.9202020E-01
          2   -1    0    0  501    0  0.00000000000E+00  0.00000000000E+00  0.20259594298E+04  0.20259594298E+04  0.00000000000E+00 0.  1.
         -2   -1    0    0    0  501 -0.00000000000E+00 -0.00000000000E+00 -0.15019848269E+03  0.15019848269E+03  0.00000000000E+00 0. -1.
         23    2    1    2    0    0 -0.36665653670E+03 -0.37907078621E+03  0.65028421042E+03  0.84201964791E+03  0.89419552007E+02 0.  0.
         11    1    3    3    0    0 -0.15187898067E+03 -0.22124727859E+03  0.32981114035E+03  0.42519756743E+03  0.00000000000E+00 0. -1.
        -11    1    3    3    0    0 -0.21477755602E+03 -0.15782350761E+03  0.32047307007E+03  0.41682208047E+03  0.00000000000E+00 0.  1.
         22    1    1    2    0    0  0.36665653670E+03  0.37907078621E+03  0.12254767367E+04  0.13341382646E+04  0.00000000000E+00 0.  1.
<mgrwt>
<rscale>  0 0.11032607E+04</rscale>
<asrwt>0</asrwt>
<pdfrwt beam="1">  1        2 0.31168605E+00 0.11032607E+04</pdfrwt>
<pdfrwt beam="2">  1       -2 0.23107460E-01 0.11032607E+04</pdfrwt>
<totfact> 0.10634155E+02</totfact>
</mgrwt>
</event>
<event>
 6    1  0.5026615E-004  0.3281473E+04  0.7818608E-02  0.8167626E-01
          2   -1    0    0  501    0  0.00000000000E+00  0.00000000000E+00  0.41280144940E+04  0.41280144940E+04  0.00000000000E+00 0.  1.
         -2   -1    0    0    0  501 -0.00000000000E+00 -0.00000000000E+00 -0.65213337009E+03  0.65213337009E+03  0.00000000000E+00 0. -1.
         23    2    1    2    0    0  0.10101111907E+03 -0.13360759822E+04  0.31154879315E+04  0.33926373129E+04  0.91763879663E+02 0.  0.
         11    1    3    3    0    0  0.13858855635E+02 -0.72564937149E+03  0.16325597084E+04  0.17866197916E+04  0.00000000000E+00 0.  1.
        -11    1    3    3    0    0  0.87152263437E+02 -0.61042661074E+03  0.14829282231E+04  0.16060175214E+04  0.00000000000E+00 0. -1.
         22    1    1    2    0    0 -0.10101111907E+03  0.13360759822E+04  0.36039319249E+03  0.13875105512E+04  0.00000000000E+00 0. -1.
<mgrwt>
<rscale>  0 0.32814728E+04</rscale>
<asrwt>0</asrwt>
<pdfrwt beam="1">  1        2 0.63507914E+00 0.32814728E+04</pdfrwt>
<pdfrwt beam="2">  1       -2 0.10032821E+00 0.32814728E+04</pdfrwt>
<totfact> 0.18334273E-01</totfact>
</mgrwt>
</event>
<event>
 6    1  0.5026615E-004  0.1599144E+04  0.7818608E-02  0.8821074E-01
          2   -1    0    0  501    0  0.00000000000E+00  0.00000000000E+00  0.12588344800E+04  0.12588344800E+04  0.00000000000E+00 0.  1.
         -2   -1    0    0    0  501 -0.00000000000E+00 -0.00000000000E+00 -0.50786289499E+03  0.50786289499E+03  0.00000000000E+00 0. -1.
         23    2    1    2    0    0  0.77132401312E+03  0.16298885025E+03  0.50504116457E+03  0.94087180608E+03  0.93097148470E+02 0.  0.
         11    1    3    3    0    0  0.10575274904E+03  0.81730429170E+01  0.35857912274E+02  0.11196531799E+03  0.00000000000E+00 0. -1.
        -11    1    3    3    0    0  0.66557126408E+03  0.15481580733E+03  0.46918325230E+03  0.82890648809E+03  0.00000000000E+00 0.  1.
         22    1    1    2    0    0 -0.77132401312E+03 -0.16298885025E+03  0.24593042042E+03  0.82582556887E+03  0.00000000000E+00 0.  1.
<mgrwt>
<rscale>  0 0.15991439E+04</rscale>
<asrwt>0</asrwt>
<pdfrwt beam="1">  1        2 0.19366684E+00 0.15991439E+04</pdfrwt>
<pdfrwt beam="2">  1       -2 0.78132754E-01 0.15991439E+04</pdfrwt>
<totfact> 0.24431250E+01</totfact>
</mgrwt>
</event>
<event>
 6    1  0.5026615E-004  0.3883333E+04  0.7818608E-02  0.8028504E-01
         -2   -1    0    0    0  501 -0.00000000000E+00  0.00000000000E+00  0.25487441020E+04  0.25487441020E+04  0.00000000000E+00 0. -1.
          2   -1    0    0  501    0  0.00000000000E+00 -0.00000000000E+00 -0.14791872421E+04  0.14791872421E+04  0.00000000000E+00 0.  1.
         23    2    1    2    0    0  0.48210767702E+03  0.18666952053E+04  0.30551397525E+03  0.19541087068E+04  0.90682121562E+02 0.  0.
         13    1    3    3    0    0  0.14011816065E+03  0.65525108167E+03  0.13930702388E+03  0.68439281547E+03  0.00000000000E+00 0. -1.
        -13    1    3    3    0    0  0.34198951637E+03  0.12114441236E+04  0.16620695137E+03  0.12697158913E+04  0.00000000000E+00 0.  1.
         22    1    1    2    0    0 -0.48210767702E+03 -0.18666952053E+04  0.76404288461E+03  0.20738226373E+04  0.00000000000E+00 0. -1.
<mgrwt>
<rscale>  0 0.38833335E+04</rscale>
<asrwt>0</asrwt>
<pdfrwt beam="1">  1        2 0.22756727E+00 0.38833335E+04</pdfrwt>
<pdfrwt beam="2">  1       -2 0.39211448E+00 0.38833335E+04</pdfrwt>
<totfact> 0.86743846E-02</totfact>
</mgrwt>
</event>
<event>
 6    1  0.5026615E-004  0.1639815E+04  0.7818608E-02  0.8796455E-01
         -2   -1    0    0    0  501 -0.00000000000E+00  0.00000000000E+00  0.43644492533E+03  0.43644492533E+03  0.00000000000E+00 0. -1.
          2   -1    0    0  501    0  0.00000000000E+00 -0.00000000000E+00 -0.15402813590E+04  0.15402813590E+04  0.00000000000E+00 0.  1.
         23    2    1    2    0    0 -0.13178055849E+03  0.58655272787E+03 -0.12210485703E+04  0.13642322818E+04  0.93594281676E+02 0.  0.
         11    1    3    3    0    0 -0.12800932325E+03  0.39409823605E+03 -0.78717561597E+03  0.88957588596E+03  0.00000000000E+00 0. -1.
        -11    1    3    3    0    0 -0.37712352389E+01  0.19245449182E+03 -0.43387295429E+03  0.47465639583E+03  0.00000000000E+00 0.  1.
         22    1    1    2    0    0  0.13178055849E+03 -0.58655272787E+03  0.11721213659E+03  0.61249400253E+03  0.00000000000E+00 0. -1.
<mgrwt>
<rscale>  0 0.16398146E+04</rscale>
<asrwt>0</asrwt>
<pdfrwt beam="1">  1        2 0.23696636E+00 0.16398146E+04</pdfrwt>
<pdfrwt beam="2">  1       -2 0.67145373E-01 0.16398146E+04</pdfrwt>
<totfact> 0.23437809E+01</totfact>
</mgrwt>
</event>
<event>
 6    1  0.5026615E-004  0.8088921E+03  0.7818608E-02  0.9547235E-01
          2   -1    0    0  501    0  0.00000000000E+00  0.00000000000E+00  0.12895403627E+04  0.12895403627E+04  0.00000000000E+00 0.  1.
         -2   -1    0    0    0  501 -0.00000000000E+00 -0.00000000000E+00 -0.12684875581E+03  0.12684875581E+03  0.00000000000E+00 0. -1.
         23    2    1    2    0    0 -0.41604877437E+02 -0.80048875767E+02  0.12698503565E+04  0.12763113332E+04  0.91169638153E+02 0.  0.
         13    1    3    3    0    0 -0.12585772128E+02 -0.91817582867E+02  0.78518888207E+03  0.79063926711E+03  0.00000000000E+00 0.  1.
        -13    1    3    3    0    0 -0.29019105310E+02  0.11768707100E+02  0.48466147445E+03  0.48567206606E+03  0.00000000000E+00 0. -1.
         22    1    1    2    0    0  0.41604877437E+02  0.80048875767E+02 -0.10715874959E+03  0.14007778536E+03  0.00000000000E+00 0. -1.
<mgrwt>
<rscale>  0 0.80889206E+03</rscale>
<asrwt>0</asrwt>
<pdfrwt beam="1">  1        2 0.19839082E+00 0.80889206E+03</pdfrwt>
<pdfrwt beam="2">  1       -2 0.19515194E-01 0.80889206E+03</pdfrwt>
<totfact> 0.37593622E+02</totfact>
</mgrwt>
</event>
<event>
 6    1  0.5026615E-004  0.3001366E+04  0.7818608E-02  0.8243341E-01
         -2   -1    0    0    0  501 -0.00000000000E+00  0.00000000000E+00  0.13247438804E+04  0.13247438804E+04  0.00000000000E+00 0. -1.
          2   -1    0    0  501    0  0.00000000000E+00 -0.00000000000E+00 -0.16999882810E+04  0.16999882810E+04  0.00000000000E+00 0.  1.
         23    2    1    2    0    0  0.81039735442E+03  0.11254167104E+04 -0.76222681105E+03  0.15849189687E+04  0.87588707602E+02 0.  0.
         13    1    3    3    0    0  0.48436179967E+03  0.74089716452E+03 -0.47018811583E+03  0.10023032603E+04  0.00000000000E+00 0.  1.
        -13    1    3    3    0    0  0.32603555475E+03  0.38451954586E+03 -0.29203869522E+03  0.58261570835E+03  0.00000000000E+00 0. -1.
         22    1    1    2    0    0 -0.81039735442E+03 -0.11254167104E+04  0.38698241048E+03  0.14398131928E+04  0.00000000000E+00 0. -1.
<mgrwt>
<rscale>  0 0.30013657E+04</rscale>
<asrwt>0</asrwt>
<pdfrwt beam="1">  1        2 0.26153666E+00 0.30013657E+04</pdfrwt>
<pdfrwt beam="2">  1       -2 0.20380675E+00 0.30013657E+04</pdfrwt>
<totfact> 0.10542894E+00</totfact>
</mgrwt>
</event>
<event>
 6    1  0.5026615E-004  0.9012935E+04  0.7818608E-02  0.7399324E-01
          2   -1    0    0  501    0  0.00000000000E+00  0.00000000000E+00  0.46635873559E+04  0.46635873559E+04  0.00000000000E+00 0.  1.
         -2   -1    0    0    0  501 -0.00000000000E+00 -0.00000000000E+00 -0.43546415541E+04  0.43546415541E+04  0.00000000000E+00 0. -1.
         23    2    1    2    0    0  0.19403341311E+04 -0.40554024134E+04 -0.15042555810E+03  0.44991352707E+04  0.91679114946E+02 0.  0.
         13    1    3    3    0    0  0.96832951032E+02 -0.25224410612E+03 -0.57212937165E+01  0.27025255351E+03  0.00000000000E+00 0. -1.
        -13    1    3    3    0    0  0.18435011801E+04 -0.38031583073E+04 -0.14470426439E+03  0.42288827172E+04  0.00000000000E+00 0.  1.
         22    1    1    2    0    0 -0.19403341311E+04  0.40554024134E+04  0.45937135986E+03  0.45190936394E+04  0.00000000000E+00 0.  1.
<mgrwt>
<rscale>  0 0.90129354E+04</rscale>
<asrwt>0</asrwt>
<pdfrwt beam="1">  1        2 0.71747498E+00 0.90129354E+04</pdfrwt>
<pdfrwt beam="2">  1       -2 0.66994485E+00 0.90129354E+04</pdfrwt>
<totfact> 0.13313181E-05</totfact>
</mgrwt>
</event>
<event>
 6    1  0.5026615E-004  0.3870003E+04  0.7818608E-02  0.8031297E-01
          2   -1    0    0  501    0  0.00000000000E+00  0.00000000000E+00  0.23273891451E+04  0.23273891451E+04  0.00000000000E+00 0.  1.
         -2   -1    0    0    0  501 -0.00000000000E+00 -0.00000000000E+00 -0.16087686915E+04  0.16087686915E+04  0.00000000000E+00 0. -1.
         23    2    1    2    0    0  0.97014435874E+02  0.18259106731E+04 -0.28096599031E+03  0.18522829253E+04  0.92997638372E+02 0.  0.
         13    1    3    3    0    0  0.14880033353E+02  0.82441036897E+03 -0.90082448056E+02  0.82945085407E+03  0.00000000000E+00 0.  1.
        -13    1    3    3    0    0  0.82134402520E+02  0.10015003041E+04 -0.19088354226E+03  0.10228320712E+04  0.00000000000E+00 0. -1.
         22    1    1    2    0    0 -0.97014435874E+02 -0.18259106731E+04  0.99958644399E+03  0.20838749113E+04  0.00000000000E+00 0.  1.
<mgrwt>
<rscale>  0 0.38700030E+04</rscale>
<asrwt>0</asrwt>
<pdfrwt beam="1">  1        2 0.35805987E+00 0.38700030E+04</pdfrwt>
<pdfrwt beam="2">  1       -2 0.24750288E+00 0.38700030E+04</pdfrwt>
<totfact> 0.23217686E-01</totfact>
</mgrwt>
</event>
<event>
 6    1  0.5026615E-004  0.4594264E+04  0.7818608E-02  0.7894339E-01
         -2   -1    0    0    0  501 -0.00000000000E+00  0.00000000000E+00  0.19682787513E+04  0.19682787513E+04  0.00000000000E+00 0. -1.
          2   -1    0    0  501    0  0.00000000000E+00 -0.00000000000E+00 -0.26809292119E+04  0.26809292119E+04  0.00000000000E+00 0.  1.
         23    2    1    2    0    0  0.12750711044E+03  0.13677208068E+04  0.15055791813E+04  0.20400968094E+04  0.91148517000E+02 0.  0.
         11    1    3    3    0    0  0.68554862604E+02  0.59554579531E+03  0.72148862127E+03  0.93804072093E+03  0.00000000000E+00 0. -1.
        -11    1    3    3    0    0  0.58952247832E+02  0.77217501148E+03  0.78409056004E+03  0.11020560885E+04  0.00000000000E+00 0.  1.
         22    1    1    2    0    0 -0.12750711044E+03 -0.13677208068E+04 -0.22182296419E+04  0.26091111538E+04  0.00000000000E+00 0.  1.
<mgrwt>
<rscale>  0 0.45942643E+04</rscale>
<asrwt>0</asrwt>
<pdfrwt beam="1">  1        2 0.41245065E+00 0.45942643E+04</pdfrwt>
<pdfrwt beam="2">  1       -2 0.30281212E+00 0.45942643E+04</pdfrwt>
<totfact> 0.62608850E-02</totfact>
</mgrwt>
</event>
<event>
 6    1  0.5026615E-004  0.3521750E+04  0.7818608E-02  0.8108655E-01
         -2   -1    0    0    0  501 -0.00000000000E+00  0.00000000000E+00  0.14695877099E+04  0.14695877099E+04  0.00000000000E+00 0.  1.
          2   -1    0    0  501    0  0.00000000000E+00 -0.00000000000E+00 -0.21098989490E+04  0.21098989490E+04  0.00000000000E+00 0. -1.
         23    2    1    2    0    0  0.94758306452E+03 -0.76393121230E+03  0.97126452960E+03  0.15599121939E+04  0.92014698778E+02 0.  0.
         13    1    3    3    0    0  0.63634568679E+03 -0.46083400511E+03  0.64708994156E+03  0.10178551989E+04  0.00000000000E+00 0. -1.
        -13    1    3    3    0    0  0.31123737773E+03 -0.30309720718E+03  0.32417458804E+03  0.54205699500E+03  0.00000000000E+00 0.  1.
         22    1    1    2    0    0 -0.94758306452E+03  0.76393121230E+03 -0.16115757688E+04  0.20195744650E+04  0.00000000000E+00 0. -1.
<mgrwt>
<rscale>  0 0.35217505E+04</rscale>
<asrwt>0</asrwt>
<pdfrwt beam="1">  1        2 0.32459984E+00 0.35217505E+04</pdfrwt>
<pdfrwt beam="2">  1       -2 0.22609042E+00 0.35217505E+04</pdfrwt>
<totfact> 0.43051272E-01</totfact>
</mgrwt>
</event>
<event>
 6    1  0.5026615E-004  0.2710878E+04  0.7818608E-02  0.8331484E-01
         -2   -1    0    0    0  501 -0.00000000000E+00  0.00000000000E+00  0.96443451212E+03  0.96443451212E+03  0.00000000000E+00 0. -1.
          2   -1    0    0  501    0  0.00000000000E+00 -0.00000000000E+00 -0.19049664834E+04  0.19049664834E+04  0.00000000000E+00 0.  1.
         23    2    1    2    0    0 -0.29370083486E+03  0.13217256500E+04 -0.49421449183E+03  0.14437719530E+04  0.83729410196E+02 0.  0.
         11    1    3    3    0    0 -0.10919230542E+03  0.54221821402E+03 -0.15981741796E+03  0.57573010887E+03  0.00000000000E+00 0. -1.
        -11    1    3    3    0    0 -0.18450852944E+03  0.77950743601E+03 -0.33439707386E+03  0.86804184417E+03  0.00000000000E+00 0.  1.
         22    1    1    2    0    0  0.29370083486E+03 -0.13217256500E+04 -0.44631747949E+03  0.14256290425E+04  0.00000000000E+00 0. -1.
<mgrwt>
<rscale>  0 0.27108784E+04</rscale>
<asrwt>0</asrwt>
<pdfrwt beam="1">  1        2 0.29307177E+00 0.27108784E+04</pdfrwt>
<pdfrwt beam="2">  1       -2 0.14837454E+00 0.27108784E+04</pdfrwt>
<totfact> 0.20398282E+00</totfact>
</mgrwt>
</event>
<event>
 6    1  0.5026615E-004  0.1459166E+04  0.7818608E-02  0.8912070E-01
         -2   -1    0    0    0  501 -0.00000000000E+00  0.00000000000E+00  0.35621734004E+03  0.35621734004E+03  0.00000000000E+00 0. -1.
          2   -1    0    0  501    0  0.00000000000E+00 -0.00000000000E+00 -0.14942886347E+04  0.14942886347E+04  0.00000000000E+00 0.  1.
         23    2    1    2    0    0  0.57101240917E+03 -0.43263064246E+03 -0.72691569702E+03  0.10245075670E+04  0.89358155502E+02 0.  0.
         13    1    3    3    0    0  0.18809797995E+03 -0.17576318578E+03 -0.30920518431E+03  0.40234486891E+03  0.00000000000E+00 0. -1.
        -13    1    3    3    0    0  0.38291442922E+03 -0.25686745667E+03 -0.41771051271E+03  0.62216269804E+03  0.00000000000E+00 0.  1.
         22    1    1    2    0    0 -0.57101240917E+03  0.43263064246E+03 -0.41115559766E+03  0.82599840781E+03  0.00000000000E+00 0. -1.
<mgrwt>
<rscale>  0 0.14591662E+04</rscale>
<asrwt>0</asrwt>
<pdfrwt beam="1">  1        2 0.22989056E+00 0.14591662E+04</pdfrwt>
<pdfrwt beam="2">  1       -2 0.54802669E-01 0.14591662E+04</pdfrwt>
<totfact> 0.38814324E+01</totfact>
</mgrwt>
</event>
<event>
 6    1  0.5026615E-004  0.1433767E+04  0.7818608E-02  0.8929732E-01
         -2   -1    0    0    0  501 -0.00000000000E+00  0.00000000000E+00  0.55370351214E+03  0.55370351214E+03  0.00000000000E+00 0. -1.
          2   -1    0    0  501    0  0.00000000000E+00 -0.00000000000E+00 -0.92815378806E+03  0.92815378806E+03  0.00000000000E+00 0.  1.
         23    2    1    2    0    0  0.55551828432E+03  0.31332764447E+03 -0.51984213790E+03  0.82770626983E+03  0.89927992169E+02 0.  0.
         13    1    3    3    0    0  0.43459038257E+03  0.21509998108E+03 -0.42850065545E+03  0.64710865718E+03  0.00000000000E+00 0. -1.
        -13    1    3    3    0    0  0.12092790175E+03  0.98227663391E+02 -0.91341482452E+02  0.18059761265E+03  0.00000000000E+00 0.  1.
         22    1    1    2    0    0 -0.55551828432E+03 -0.31332764447E+03  0.14539186199E+03  0.65415103037E+03  0.00000000000E+00 0. -1.
<mgrwt>
<rscale>  0 0.14337671E+04</rscale>
<asrwt>0</asrwt>
<pdfrwt beam="1">  1        2 0.14279289E+00 0.14337671E+04</pdfrwt>
<pdfrwt beam="2">  1       -2 0.85185156E-01 0.14337671E+04</pdfrwt>
<totfact> 0.32686785E+01</totfact>
</mgrwt>
</event>
<event>
 6    1  0.5026615E-004  0.2029200E+04  0.7818608E-02  0.8593089E-01
         -2   -1    0    0    0  501 -0.00000000000E+00  0.00000000000E+00  0.26528369559E+03  0.26528369559E+03  0.00000000000E+00 0. -1.
          2   -1    0    0  501    0  0.00000000000E+00 -0.00000000000E+00 -0.38804219311E+04  0.38804219311E+04  0.00000000000E+00 0.  1.
         23    2    1    2    0    0  0.58176111904E+03  0.70187247229E+03 -0.27117509421E+04  0.28622806897E+04  0.89367822406E+02 0.  0.
         13    1    3    3    0    0  0.54521550901E+03  0.66174107306E+03 -0.24724365647E+04  0.26168881836E+04  0.00000000000E+00 0. -1.
        -13    1    3    3    0    0  0.36545610032E+02  0.40131399225E+02 -0.23931437744E+03  0.24539250614E+03  0.00000000000E+00 0.  1.
         22    1    1    2    0    0 -0.58176111904E+03 -0.70187247229E+03 -0.90338729339E+03  0.12834249370E+04  0.00000000000E+00 0. -1.
<mgrwt>
<rscale>  0 0.20291995E+04</rscale>
<asrwt>0</asrwt>
<pdfrwt beam="1">  1        2 0.59698801E+00 0.20291995E+04</pdfrwt>
<pdfrwt beam="2">  1       -2 0.40812875E-01 0.20291995E+04</pdfrwt>
<totfact> 0.22635595E+00</totfact>
</mgrwt>
</event>
<event>
 6    1  0.5026615E-004  0.2601190E+04  0.7818608E-02  0.8367797E-01
         -2   -1    0    0    0  501 -0.00000000000E+00  0.00000000000E+00  0.10613496700E+04  0.10613496700E+04  0.00000000000E+00 0. -1.
          2   -1    0    0  501    0  0.00000000000E+00 -0.00000000000E+00 -0.15937695654E+04  0.15937695654E+04  0.00000000000E+00 0.  1.
         23    2    1    2    0    0 -0.67393395782E+02 -0.12190545636E+04  0.18629935644E+03  0.12383647536E+04  0.90575459762E+02 0.  0.
         13    1    3    3    0    0 -0.69501774435E+02 -0.48866679753E+03  0.88488527827E+02  0.50145384156E+03  0.00000000000E+00 0.  1.
        -13    1    3    3    0    0  0.21083786535E+01 -0.73038776604E+03  0.97810828608E+02  0.73691091201E+03  0.00000000000E+00 0. -1.
         22    1    1    2    0    0  0.67393395782E+02  0.12190545636E+04 -0.71871925184E+03  0.14167544818E+04  0.00000000000E+00 0.  1.
<mgrwt>
<rscale>  0 0.26011896E+04</rscale>
<asrwt>0</asrwt>
<pdfrwt beam="1">  1        2 0.24519532E+00 0.26011896E+04</pdfrwt>
<pdfrwt beam="2">  1       -2 0.16328456E+00 0.26011896E+04</pdfrwt>
<totfact> 0.23695566E+00</totfact>
</mgrwt>
</event>
<event>
 6    1  0.5026615E-004  0.1565319E+04  0.7818608E-02  0.8842142E-01
         -2   -1    0    0    0  501 -0.00000000000E+00  0.00000000000E+00  0.10124218846E+04  0.10124218846E+04  0.00000000000E+00 0.  1.
          2   -1    0    0  501    0  0.00000000000E+00 -0.00000000000E+00 -0.60504025569E+03  0.60504025569E+03  0.00000000000E+00 0. -1.
         23    2    1    2    0    0 -0.35111889501E+03  0.60233961568E+03  0.56385723351E+03  0.90291185801E+03  0.10591200362E+03 0.  0.
         11    1    3    3    0    0 -0.18888275810E+03  0.29040545567E+03  0.34412274695E+03  0.48829549451E+03  0.00000000000E+00 0.  1.
        -11    1    3    3    0    0 -0.16223613691E+03  0.31193416002E+03  0.21973448656E+03  0.41461636351E+03  0.00000000000E+00 0. -1.
         22    1    1    2    0    0  0.35111889501E+03 -0.60233961568E+03 -0.15647560460E+03  0.71455028227E+03  0.00000000000E+00 0. -1.
<mgrwt>
<rscale>  0 0.15653191E+04</rscale>
<asrwt>0</asrwt>
<pdfrwt beam="1">  1        2 0.93083116E-01 0.15653191E+04</pdfrwt>
<pdfrwt beam="2">  1       -2 0.15575721E+00 0.15653191E+04</pdfrwt>
<totfact> 0.12779324E+01</totfact>
</mgrwt>
</event>
<event>
 6    1  0.5026615E-004  0.3575948E+04  0.7818608E-02  0.8096023E-01
         -2   -1    0    0    0  501 -0.00000000000E+00  0.00000000000E+00  0.10114753675E+04  0.10114753675E+04  0.00000000000E+00 0. -1.
          2   -1    0    0  501    0  0.00000000000E+00 -0.00000000000E+00 -0.31605818931E+04  0.31605818931E+04  0.00000000000E+00 0.  1.
         23    2    1    2    0    0 -0.16544034529E+04 -0.18881027573E+03 -0.18317563085E+04  0.24769433218E+04  0.84952578917E+02 0.  0.
         13    1    3    3    0    0 -0.14691796424E+04 -0.15149199617E+03 -0.15906767361E+04  0.21706430211E+04  0.00000000000E+00 0.  1.
        -13    1    3    3    0    0 -0.18522381054E+03 -0.37318279557E+02 -0.24107957243E+03  0.30630030072E+03  0.00000000000E+00 0. -1.
         22    1    1    2    0    0  0.16544034529E+04  0.18881027573E+03 -0.31735021713E+03  0.16951139388E+04  0.00000000000E+00 0. -1.
<mgrwt>
<rscale>  0 0.35759478E+04</rscale>
<asrwt>0</asrwt>
<pdfrwt beam="1">  1        2 0.48624335E+00 0.35759478E+04</pdfrwt>
<pdfrwt beam="2">  1       -2 0.15561160E+00 0.35759478E+04</pdfrwt>
<totfact> 0.30484316E-01</totfact>
</mgrwt>
</event>
<event>
 6    1  0.5026615E-004  0.3056515E+04  0.7818608E-02  0.8227774E-01
          2   -1    0    0  501    0  0.00000000000E+00  0.00000000000E+00  0.13815609871E+04  0.13815609871E+04  0.00000000000E+00 0.  1.
         -2   -1    0    0    0  501 -0.00000000000E+00 -0.00000000000E+00 -0.16905306398E+04  0.16905306398E+04  0.00000000000E+00 0. -1.
         23    2    1    2    0    0  0.93742214541E+03 -0.56287677774E+03 -0.12258325729E+04  0.16451269603E+04  0.90480235667E+02 0.  0.
         11    1    3    3    0    0  0.37257370819E+03 -0.27266584474E+03 -0.53904706790E+03  0.70973908751E+03  0.00000000000E+00 0.  1.
        -11    1    3    3    0    0  0.56484843721E+03 -0.29021093301E+03 -0.68678550499E+03  0.93538787277E+03  0.00000000000E+00 0. -1.
         22    1    1    2    0    0 -0.93742214541E+03  0.56287677774E+03  0.91686292016E+03  0.14269646667E+04  0.00000000000E+00 0.  1.
<mgrwt>
<rscale>  0 0.30565151E+04</rscale>
<asrwt>0</asrwt>
<pdfrwt beam="1">  1        2 0.21254784E+00 0.30565151E+04</pdfrwt>
<pdfrwt beam="2">  1       -2 0.26008164E+00 0.30565151E+04</pdfrwt>
<totfact> 0.70407157E-01</totfact>
</mgrwt>
</event>
<event>
 6    1  0.5026615E-004  0.3998218E+04  0.7818608E-02  0.8004906E-01
          2   -1    0    0  501    0  0.00000000000E+00  0.00000000000E+00  0.18881687189E+04  0.18881687189E+04  0.00000000000E+00 0.  1.
         -2   -1    0    0    0  501 -0.00000000000E+00 -0.00000000000E+00 -0.21165673413E+04  0.21165673413E+04  0.00000000000E+00 0. -1.
         23    2    1    2    0    0 -0.87604068384E+03 -0.14380213310E+04  0.96228127410E+03  0.19424384959E+04  0.10830250174E+03 0.  0.
         11    1    3    3    0    0 -0.37214198868E+03 -0.51027260197E+03  0.36323526698E+03  0.72856547217E+03  0.00000000000E+00 0. -1.
        -11    1    3    3    0    0 -0.50389869516E+03 -0.92774872898E+03  0.59904600712E+03  0.12138730237E+04  0.00000000000E+00 0.  1.
         22    1    1    2    0    0  0.87604068384E+03  0.14380213310E+04 -0.11906798965E+04  0.20622975643E+04  0.00000000000E+00 0. -1.
<mgrwt>
<rscale>  0 0.39982177E+04</rscale>
<asrwt>0</asrwt>
<pdfrwt beam="1">  1        2 0.29048749E+00 0.39982177E+04</pdfrwt>
<pdfrwt beam="2">  1       -2 0.32562575E+00 0.39982177E+04</pdfrwt>
<totfact> 0.13440174E-01</totfact>
</mgrwt>
</event>
<event>
 6    1  0.5026615E-004  0.8557715E+03  0.7818608E-02  0.9482623E-01
          2   -1    0    0  501    0  0.00000000000E+00  0.00000000000E+00  0.16810249913E+04  0.16810249913E+04  0.00000000000E+00 0.  1.
         -2   -1    0    0    0  501 -0.00000000000E+00 -0.00000000000E+00 -0.10891344335E+03  0.10891344335E+03  0.00000000000E+00 0. -1.
         23    2    1    2    0    0  0.41934648574E+03 -0.47627193916E+02  0.84711174756E+03  0.95104360497E+03  0.93625856514E+02 0.  0.
         13    1    3    3    0    0  0.73795106420E+02  0.27344578300E+02  0.15134736225E+03  0.17058566104E+03  0.00000000000E+00 0.  1.
        -13    1    3    3    0    0  0.34555137932E+03 -0.74971772216E+02  0.69576438531E+03  0.78045794393E+03  0.00000000000E+00 0. -1.
         22    1    1    2    0    0 -0.41934648574E+03  0.47627193916E+02  0.72499980043E+03  0.83889482971E+03  0.00000000000E+00 0.  1.
<mgrwt>
<rscale>  0 0.85577151E+03</rscale>
<asrwt>0</asrwt>
<pdfrwt beam="1">  1        2 0.25861921E+00 0.85577151E+03</pdfrwt>
<pdfrwt beam="2">  1       -2 0.16755916E-01 0.85577151E+03</pdfrwt>
<totfact> 0.29422395E+02</totfact>
</mgrwt>
</event>
<event>
 6    1  0.5026615E-004  0.2619374E+04  0.7818608E-02  0.8361650E-01
          2   -1    0    0  501    0  0.00000000000E+00  0.00000000000E+00  0.17204751613E+04  0.17204751613E+04  0.00000000000E+00 0.  1.
         -2   -1    0    0    0  501 -0.00000000000E+00 -0.00000000000E+00 -0.99698034465E+03  0.99698034465E+03  0.00000000000E+00 0. -1.
         23    2    1    2    0    0 -0.91950287911E+03 -0.56191114634E+03 -0.40714764808E+03  0.11555393545E+04  0.90952248240E+02 0.  0.
         13    1    3    3    0    0 -0.27078842566E+03 -0.15602612083E+03 -0.16192376261E+03  0.35197986696E+03  0.00000000000E+00 0. -1.
        -13    1    3    3    0    0 -0.64871445345E+03 -0.40588502551E+03 -0.24522388547E+03  0.80355948756E+03  0.00000000000E+00 0.  1.
         22    1    1    2    0    0  0.91950287911E+03  0.56191114634E+03  0.11306424647E+04  0.15619161514E+04  0.00000000000E+00 0.  1.
<mgrwt>
<rscale>  0 0.26193739E+04</rscale>
<asrwt>0</asrwt>
<pdfrwt beam="1">  1        2 0.26468849E+00 0.26193739E+04</pdfrwt>
<pdfrwt beam="2">  1       -2 0.15338159E+00 0.26193739E+04</pdfrwt>
<totfact> 0.23824523E+00</totfact>
</mgrwt>
</event>
<event>
 6    1  0.5672523E-004  0.4229889E+04  0.7818608E-02  0.7959711E-01
         -2   -1    0    0    0  501 -0.00000000000E+00  0.00000000000E+00  0.22044919088E+04  0.22044919088E+04  0.00000000000E+00 0. -1.
          2   -1    0    0  501    0  0.00000000000E+00 -0.00000000000E+00 -0.20290348023E+04  0.20290348023E+04  0.00000000000E+00 0.  1.
         23    2    1    2    0    0  0.59966994731E+03  0.51386719290E+03  0.20503642415E+04  0.21990881393E+04  0.91277510257E+02 0.  0.
         11    1    3    3    0    0  0.47203482332E+03  0.39198578517E+03  0.16874514748E+04  0.17955395317E+04  0.00000000000E+00 0. -1.
        -11    1    3    3    0    0  0.12763512399E+03  0.12188140773E+03  0.36291276671E+03  0.40354860757E+03  0.00000000000E+00 0.  1.
         22    1    1    2    0    0 -0.59966994731E+03 -0.51386719290E+03 -0.18749071350E+04  0.20344385718E+04  0.00000000000E+00 0.  1.
<mgrwt>
<rscale>  0 0.42298893E+04</rscale>
<asrwt>0</asrwt>
<pdfrwt beam="1">  1        2 0.31215920E+00 0.42298893E+04</pdfrwt>
<pdfrwt beam="2">  1       -2 0.33915260E+00 0.42298893E+04</pdfrwt>
<totfact> 0.90724994E-02</totfact>
</mgrwt>
</event>
<event>
 6    1  0.5026615E-004  0.9105590E+03  0.7818608E-02  0.9412478E-01
          2   -1    0    0  501    0  0.00000000000E+00  0.00000000000E+00  0.19521170758E+04  0.19521170758E+04  0.00000000000E+00 0.  1.
         -2   -1    0    0    0  501 -0.00000000000E+00 -0.00000000000E+00 -0.10618186409E+03  0.10618186409E+03  0.00000000000E+00 0. -1.
         23    2    1    2    0    0 -0.38072943656E+02  0.33357754310E+03  0.16110566022E+04  0.16485533023E+04  0.97473529026E+02 0.  0.
         11    1    3    3    0    0  0.16249920219E+02  0.23335841664E+03  0.10045305540E+04  0.10314077004E+04  0.00000000000E+00 0.  1.
        -11    1    3    3    0    0 -0.54322863875E+02  0.10021912646E+03  0.60652604820E+03  0.61714560194E+03  0.00000000000E+00 0. -1.
         22    1    1    2    0    0  0.38072943656E+02 -0.33357754310E+03  0.23487860957E+03  0.40974563760E+03  0.00000000000E+00 0.  1.
<mgrwt>
<rscale>  0 0.91055902E+03</rscale>
<asrwt>0</asrwt>
<pdfrwt beam="1">  1        2 0.30032568E+00 0.91055902E+03</pdfrwt>
<pdfrwt beam="2">  1       -2 0.16335673E-01 0.91055902E+03</pdfrwt>
<totfact> 0.21741095E+02</totfact>
</mgrwt>
</event>
<event>
 6    1  0.5026615E-004  0.2709308E+04  0.7818608E-02  0.8331991E-01
          2   -1    0    0  501    0  0.00000000000E+00  0.00000000000E+00  0.13093588571E+04  0.13093588571E+04  0.00000000000E+00 0.  1.
         -2   -1    0    0    0  501 -0.00000000000E+00 -0.00000000000E+00 -0.14015162522E+04  0.14015162522E+04  0.00000000000E+00 0. -1.
         23    2    1    2    0    0  0.16163652994E+03  0.65554967407E+03 -0.12186162529E+04  0.13975658155E+04  0.11087332401E+03 0.  0.
         11    1    3    3    0    0  0.26505392627E+02  0.30372995949E+03 -0.60433169817E+03  0.67688346526E+03  0.00000000000E+00 0. -1.
        -11    1    3    3    0    0  0.13513113731E+03  0.35181971457E+03 -0.61428455473E+03  0.72068235029E+03  0.00000000000E+00 0.  1.
         22    1    1    2    0    0 -0.16163652994E+03 -0.65554967407E+03  0.11264588578E+04  0.13133092938E+04  0.00000000000E+00 0.  1.
<mgrwt>
<rscale>  0 0.27093082E+04</rscale>
<asrwt>0</asrwt>
<pdfrwt beam="1">  1        2 0.20143982E+00 0.27093082E+04</pdfrwt>
<pdfrwt beam="2">  1       -2 0.21561789E+00 0.27093082E+04</pdfrwt>
<totfact> 0.15082515E+00</totfact>
</mgrwt>
</event>
<event>
 6    1  0.5026615E-004  0.1794006E+04  0.7818608E-02  0.8709494E-01
          1   -1    0    0  501    0  0.00000000000E+00  0.00000000000E+00  0.15659117934E+04  0.15659117934E+04  0.00000000000E+00 0. -1.
         -1   -1    0    0    0  501 -0.00000000000E+00 -0.00000000000E+00 -0.51383123562E+03  0.51383123562E+03  0.00000000000E+00 0.  1.
         23    2    1    2    0    0 -0.32221326547E+03  0.77114312441E+03  0.15727517125E+03  0.85534122138E+03  0.91597045431E+02 0.  0.
         11    1    3    3    0    0 -0.75759008218E+02  0.10834043023E+03  0.43058909293E+02  0.13903649096E+03  0.00000000000E+00 0.  1.
        -11    1    3    3    0    0 -0.24645425726E+03  0.66280269418E+03  0.11421626196E+03  0.71630473042E+03  0.00000000000E+00 0. -1.
         22    1    1    2    0    0  0.32221326547E+03 -0.77114312441E+03  0.89480538651E+03  0.12244018076E+04  0.00000000000E+00 0.  1.
<mgrwt>
<rscale>  0 0.17940060E+04</rscale>
<asrwt>0</asrwt>
<pdfrwt beam="1">  1        1 0.24090950E+00 0.17940060E+04</pdfrwt>
<pdfrwt beam="2">  1       -1 0.79050960E-01 0.17940060E+04</pdfrwt>
<totfact> 0.88966446E+00</totfact>
</mgrwt>
</event>
<event>
 6    1  0.5026615E-004  0.2470574E+04  0.7818608E-02  0.8413544E-01
          2   -1    0    0  501    0  0.00000000000E+00  0.00000000000E+00  0.28772580853E+04  0.28772580853E+04  0.00000000000E+00 0.  1.
         -2   -1    0    0    0  501 -0.00000000000E+00 -0.00000000000E+00 -0.53034289458E+03  0.53034289458E+03  0.00000000000E+00 0. -1.
         23    2    1    2    0    0 -0.34589495679E+03 -0.17615195388E+03  0.27900629591E+04  0.28184891259E+04  0.93577801219E+02 0.  0.
         11    1    3    3    0    0 -0.21949147447E+03 -0.86653044541E+02  0.13903593208E+04  0.14102426382E+04  0.00000000000E+00 0.  1.
        -11    1    3    3    0    0 -0.12640348232E+03 -0.89498909335E+02  0.13997036383E+04  0.14082464877E+04  0.00000000000E+00 0. -1.
         22    1    1    2    0    0  0.34589495679E+03  0.17615195388E+03 -0.44314776835E+03  0.58911185405E+03  0.00000000000E+00 0. -1.
<mgrwt>
<rscale>  0 0.24705735E+04</rscale>
<asrwt>0</asrwt>
<pdfrwt beam="1">  1        2 0.44265508E+00 0.24705735E+04</pdfrwt>
<pdfrwt beam="2">  1       -2 0.81591216E-01 0.24705735E+04</pdfrwt>
<totfact> 0.24528597E+00</totfact>
</mgrwt>
</event>
<event>
 6    1  0.5026615E-004  0.2162452E+04  0.7818608E-02  0.8534221E-01
          2   -1    0    0  501    0  0.00000000000E+00  0.00000000000E+00  0.33367980686E+04  0.33367980686E+04  0.00000000000E+00 0.  1.
         -2   -1    0    0    0  501 -0.00000000000E+00 -0.00000000000E+00 -0.35035079465E+03  0.35035079465E+03  0.00000000000E+00 0. -1.
         23    2    1    2    0    0 -0.63760887652E+03  0.59769217849E+03  0.25757376031E+04  0.27215073907E+04  0.91636554736E+02 0.  0.
         13    1    3    3    0    0 -0.37308256577E+03  0.28718647358E+03  0.13880068291E+04  0.14656840140E+04  0.00000000000E+00 0. -1.
        -13    1    3    3    0    0 -0.26452631075E+03  0.31050570491E+03  0.11877307740E+04  0.12558233767E+04  0.00000000000E+00 0.  1.
         22    1    1    2    0    0  0.63760887652E+03 -0.59769217849E+03  0.41070967082E+03  0.96564147247E+03  0.00000000000E+00 0. -1.
<mgrwt>
<rscale>  0 0.21624522E+04</rscale>
<asrwt>0</asrwt>
<pdfrwt beam="1">  1        2 0.51335353E+00 0.21624522E+04</pdfrwt>
<pdfrwt beam="2">  1       -2 0.53900124E-01 0.21624522E+04</pdfrwt>
<totfact> 0.31374658E+00</totfact>
</mgrwt>
</event>
<event>
 6    1  0.5026615E-004  0.5056449E+04  0.7818608E-02  0.7819858E-01
         -2   -1    0    0    0  501 -0.00000000000E+00  0.00000000000E+00  0.13417299503E+04  0.13417299503E+04  0.00000000000E+00 0. -1.
          2   -1    0    0  501    0  0.00000000000E+00 -0.00000000000E+00 -0.47639394301E+04  0.47639394301E+04  0.00000000000E+00 0.  1.
         23    2    1    2    0    0  0.10626032939E+04  0.15066518103E+04 -0.37991064946E+04  0.42238679038E+04  0.93404894308E+02 0.  0.
         13    1    3    3    0    0  0.23759409007E+03  0.40440198475E+03 -0.93867985537E+03  0.10493387383E+04  0.00000000000E+00 0.  1.
        -13    1    3    3    0    0  0.82500920381E+03  0.11022498255E+04 -0.28604266392E+04  0.31745291655E+04  0.00000000000E+00 0. -1.
         22    1    1    2    0    0 -0.10626032939E+04 -0.15066518103E+04  0.37689701476E+03  0.18818014766E+04  0.00000000000E+00 0. -1.
<mgrwt>
<rscale>  0 0.50564494E+04</rscale>
<asrwt>0</asrwt>
<pdfrwt beam="1">  1        2 0.73291376E+00 0.50564494E+04</pdfrwt>
<pdfrwt beam="2">  1       -2 0.20641999E+00 0.50564494E+04</pdfrwt>
<totfact> 0.56414449E-03</totfact>
</mgrwt>
</event>
<event>
 6    1  0.5026615E-004  0.1316525E+04  0.7818608E-02  0.9016562E-01
          2   -1    0    0  501    0  0.00000000000E+00  0.00000000000E+00  0.19083263353E+04  0.19083263353E+04  0.00000000000E+00 0.  1.
         -2   -1    0    0    0  501 -0.00000000000E+00 -0.00000000000E+00 -0.22706263488E+03  0.22706263488E+03  0.00000000000E+00 0. -1.
         23    2    1    2    0    0 -0.42838333969E+03 -0.20512588905E+03  0.11231701521E+03  0.49612614284E+03  0.89090524886E+02 0.  0.
         11    1    3    3    0    0 -0.21598519472E+03 -0.54970704641E+02  0.59945413951E+02  0.23079175757E+03  0.00000000000E+00 0. -1.
        -11    1    3    3    0    0 -0.21239814497E+03 -0.15015518441E+03  0.52371601255E+02  0.26533438527E+03  0.00000000000E+00 0.  1.
         22    1    1    2    0    0  0.42838333969E+03  0.20512588905E+03  0.15689466852E+04  0.16392628274E+04  0.00000000000E+00 0.  1.
<mgrwt>
<rscale>  0 0.13165251E+04</rscale>
<asrwt>0</asrwt>
<pdfrwt beam="1">  1        2 0.29358866E+00 0.13165251E+04</pdfrwt>
<pdfrwt beam="2">  1       -2 0.34932714E-01 0.13165251E+04</pdfrwt>
<totfact> 0.56583895E+01</totfact>
</mgrwt>
</event>
<event>
 6    1  0.5026615E-004  0.2577019E+04  0.7818608E-02  0.8376049E-01
          2   -1    0    0  501    0  0.00000000000E+00  0.00000000000E+00  0.22340846881E+04  0.22340846881E+04  0.00000000000E+00 0.  1.
         -2   -1    0    0    0  501 -0.00000000000E+00 -0.00000000000E+00 -0.74314875855E+03  0.74314875855E+03  0.00000000000E+00 0. -1.
         23    2    1    2    0    0  0.41815604419E+02 -0.12669292478E+04  0.49139974523E+03  0.13629438668E+04  0.96353571391E+02 0.  0.
         11    1    3    3    0    0  0.20428237780E+02 -0.95554673794E+03  0.41268355531E+03  0.10410545606E+04  0.00000000000E+00 0. -1.
        -11    1    3    3    0    0  0.21387366639E+02 -0.31138250990E+03  0.78716189927E+02  0.32188930625E+03  0.00000000000E+00 0.  1.
         22    1    1    2    0    0 -0.41815604419E+02  0.12669292478E+04  0.99953618436E+03  0.16142895799E+04  0.00000000000E+00 0.  1.
<mgrwt>
<rscale>  0 0.25770194E+04</rscale>
<asrwt>0</asrwt>
<pdfrwt beam="1">  1        2 0.34370533E+00 0.25770194E+04</pdfrwt>
<pdfrwt beam="2">  1       -2 0.11433058E+00 0.25770194E+04</pdfrwt>
<totfact> 0.26184338E+00</totfact>
</mgrwt>
</event>
<event>
 6    1  0.5026615E-004  0.1970182E+04  0.7818608E-02  0.8620690E-01
          2   -1    0    0  501    0  0.00000000000E+00  0.00000000000E+00  0.20996149014E+04  0.20996149014E+04  0.00000000000E+00 0.  1.
         -2   -1    0    0    0  501 -0.00000000000E+00 -0.00000000000E+00 -0.46218209385E+03  0.46218209385E+03  0.00000000000E+00 0. -1.
         23    2    1    2    0    0 -0.86673001510E+03  0.31526154083E+03  0.37973357611E+03  0.10021758506E+04  0.97714320548E+02 0.  0.
         13    1    3    3    0    0 -0.43487112314E+03  0.10658948452E+03  0.17706553170E+03  0.48148355576E+03  0.00000000000E+00 0. -1.
        -13    1    3    3    0    0 -0.43185889196E+03  0.20867205631E+03  0.20266804441E+03  0.52069229481E+03  0.00000000000E+00 0.  1.
         22    1    1    2    0    0  0.86673001510E+03 -0.31526154083E+03  0.12576992315E+04  0.15596211447E+04  0.00000000000E+00 0.  1.
<mgrwt>
<rscale>  0 0.19701821E+04</rscale>
<asrwt>0</asrwt>
<pdfrwt beam="1">  1        2 0.32301767E+00 0.19701821E+04</pdfrwt>
<pdfrwt beam="2">  1       -2 0.71104939E-01 0.19701821E+04</pdfrwt>
<totfact> 0.98338912E+00</totfact>
</mgrwt>
</event>
<event>
 6    1  0.5026615E-004  0.1264584E+04  0.7818608E-02  0.9058131E-01
          2   -1    0    0  501    0  0.00000000000E+00  0.00000000000E+00  0.29482460055E+03  0.29482460055E+03  0.00000000000E+00 0.  1.
         -2   -1    0    0    0  501 -0.00000000000E+00 -0.00000000000E+00 -0.13560377809E+04  0.13560377809E+04  0.00000000000E+00 0. -1.
         23    2    1    2    0    0 -0.28378810072E+03  0.92522934903E+02  0.18918494123E+03  0.36533072410E+03  0.92625139078E+02 0.  0.
         13    1    3    3    0    0 -0.53409541690E+02 -0.57163399663E+01  0.69261852833E+02  0.87649643148E+02  0.00000000000E+00 0.  1.
        -13    1    3    3    0    0 -0.23037855903E+03  0.98239274869E+02  0.11992308840E+03  0.27768108095E+03  0.00000000000E+00 0. -1.
         22    1    1    2    0    0  0.28378810072E+03 -0.92522934903E+02 -0.12503981216E+04  0.12855316574E+04  0.00000000000E+00 0. -1.
<mgrwt>
<rscale>  0 0.12645842E+04</rscale>
<asrwt>0</asrwt>
<pdfrwt beam="1">  1        2 0.45357631E-01 0.12645842E+04</pdfrwt>
<pdfrwt beam="2">  1       -2 0.20862119E+00 0.12645842E+04</pdfrwt>
<totfact> 0.12849243E+01</totfact>
</mgrwt>
</event>
<event>
 6    1  0.5026615E-004  0.1692997E+04  0.7818608E-02  0.8765368E-01
         -2   -1    0    0    0  501 -0.00000000000E+00  0.00000000000E+00  0.84846683401E+03  0.84846683401E+03  0.00000000000E+00 0. -1.
          2   -1    0    0  501    0  0.00000000000E+00 -0.00000000000E+00 -0.84453519955E+03  0.84453519955E+03  0.00000000000E+00 0.  1.
         23    2    1    2    0    0  0.42999584984E+03 -0.71472069279E+03  0.13106181429E+03  0.84926974059E+03  0.91431906462E+02 0.  0.
         11    1    3    3    0    0  0.23166058645E+03 -0.30293864463E+03  0.42668515253E+02  0.38374347150E+03  0.00000000000E+00 0.  1.
        -11    1    3    3    0    0  0.19833526340E+03 -0.41178204817E+03  0.88393299035E+02  0.46552626909E+03  0.00000000000E+00 0. -1.
         22    1    1    2    0    0 -0.42999584984E+03  0.71472069279E+03 -0.12713017983E+03  0.84373229298E+03  0.00000000000E+00 0.  1.
<mgrwt>
<rscale>  0 0.16929975E+04</rscale>
<asrwt>0</asrwt>
<pdfrwt beam="1">  1        2 0.12992849E+00 0.16929975E+04</pdfrwt>
<pdfrwt beam="2">  1       -2 0.13053336E+00 0.16929975E+04</pdfrwt>
<totfact> 0.13100968E+01</totfact>
</mgrwt>
</event>
<event>
 6    1  0.5026615E-004  0.2003069E+04  0.7818608E-02  0.8605187E-01
         -2   -1    0    0    0  501 -0.00000000000E+00  0.00000000000E+00  0.22089038842E+03  0.22089038842E+03  0.00000000000E+00 0. -1.
          2   -1    0    0  501    0  0.00000000000E+00 -0.00000000000E+00 -0.45410359270E+04  0.45410359270E+04  0.00000000000E+00 0.  1.
         23    2    1    2    0    0 -0.99620945996E+03 -0.79464345260E+02 -0.21897715810E+04  0.24087920079E+04  0.91823144595E+02 0.  0.
         11    1    3    3    0    0 -0.42183664506E+03  0.73666241293E+01 -0.96853031283E+03  0.10564333340E+04  0.00000000000E+00 0. -1.
        -11    1    3    3    0    0 -0.57437281489E+03 -0.86830969389E+02 -0.12212412682E+04  0.13523586739E+04  0.00000000000E+00 0.  1.
         22    1    1    2    0    0  0.99620945996E+03  0.79464345260E+02 -0.21303739576E+04  0.23531343075E+04  0.00000000000E+00 0. -1.
<mgrwt>
<rscale>  0 0.20030688E+04</rscale>
<asrwt>0</asrwt>
<pdfrwt beam="1">  1        2 0.69862090E+00 0.20030688E+04</pdfrwt>
<pdfrwt beam="2">  1       -2 0.33983137E-01 0.20030688E+04</pdfrwt>
<totfact> 0.85850424E-01</totfact>
</mgrwt>
</event>
<event>
 6    1  0.5026615E-004  0.7090638E+03  0.7818608E-02  0.9701856E-01
          2   -1    0    0  501    0  0.00000000000E+00  0.00000000000E+00  0.12323719501E+04  0.12323719501E+04  0.00000000000E+00 0.  1.
         -2   -1    0    0    0  501 -0.00000000000E+00 -0.00000000000E+00 -0.10199265211E+03  0.10199265211E+03  0.00000000000E+00 0. -1.
         23    2    1    2    0    0  0.71499692046E+02 -0.17458578608E+03  0.11263541132E+04  0.11456621784E+04  0.90971621367E+02 0.  0.
         11    1    3    3    0    0  0.80247626239E+02 -0.12813867869E+03  0.66897207101E+03  0.68584461381E+03  0.00000000000E+00 0.  1.
        -11    1    3    3    0    0 -0.87479341935E+01 -0.46447107387E+02  0.45738204222E+03  0.45981756456E+03  0.00000000000E+00 0. -1.
         22    1    1    2    0    0 -0.71499692046E+02  0.17458578608E+03  0.40251847858E+01  0.18870242387E+03  0.00000000000E+00 0. -1.
<mgrwt>
<rscale>  0 0.70906384E+03</rscale>
<asrwt>0</asrwt>
<pdfrwt beam="1">  1        2 0.18959567E+00 0.70906384E+03</pdfrwt>
<pdfrwt beam="2">  1       -2 0.15691178E-01 0.70906384E+03</pdfrwt>
<totfact> 0.59370521E+02</totfact>
</mgrwt>
</event>
<event>
 6    1  0.5026615E-004  0.2553601E+04  0.7818608E-02  0.8384135E-01
         -2   -1    0    0    0  501 -0.00000000000E+00  0.00000000000E+00  0.51858539210E+03  0.51858539210E+03  0.00000000000E+00 0. -1.
          2   -1    0    0  501    0  0.00000000000E+00 -0.00000000000E+00 -0.31435882192E+04  0.31435882192E+04  0.00000000000E+00 0.  1.
         23    2    1    2    0    0 -0.66032891153E+03 -0.55540260781E+01 -0.28786186021E+04  0.29547938831E+04  0.91086314016E+02 0.  0.
         11    1    3    3    0    0 -0.49666303542E+03 -0.43319915018E+02 -0.21319818780E+04  0.21894970916E+04  0.00000000000E+00 0. -1.
        -11    1    3    3    0    0 -0.16366587611E+03  0.37765888940E+02 -0.74663672404E+03  0.76529679148E+03  0.00000000000E+00 0.  1.
         22    1    1    2    0    0  0.66032891153E+03  0.55540260781E+01  0.25361577497E+03  0.70737972824E+03  0.00000000000E+00 0. -1.
<mgrwt>
<rscale>  0 0.25536005E+04</rscale>
<asrwt>0</asrwt>
<pdfrwt beam="1">  1        2 0.48362896E+00 0.25536005E+04</pdfrwt>
<pdfrwt beam="2">  1       -2 0.79782368E-01 0.25536005E+04</pdfrwt>
<totfact> 0.17427453E+00</totfact>
</mgrwt>
</event>
<event>
 6    1  0.5026615E-004  0.1827938E+04  0.7818608E-02  0.8691582E-01
          2   -1    0    0  501    0  0.00000000000E+00  0.00000000000E+00  0.13159650875E+04  0.13159650875E+04  0.00000000000E+00 0.  1.
         -2   -1    0    0    0  501 -0.00000000000E+00 -0.00000000000E+00 -0.63477334376E+03  0.63477334376E+03  0.00000000000E+00 0. -1.
         23    2    1    2    0    0  0.33686656637E+03  0.50548979566E+03 -0.38405186352E+03  0.72446645496E+03  0.91415498916E+02 0.  0.
         13    1    3    3    0    0  0.17621455576E+03  0.32282750341E+03 -0.19433648280E+03  0.41597576272E+03  0.00000000000E+00 0. -1.
        -13    1    3    3    0    0  0.16065201060E+03  0.18266229224E+03 -0.18971538071E+03  0.30849069224E+03  0.00000000000E+00 0.  1.
         22    1    1    2    0    0 -0.33686656637E+03 -0.50548979566E+03  0.10652436073E+04  0.12262719763E+04  0.00000000000E+00 0.  1.
<mgrwt>
<rscale>  0 0.18279382E+04</rscale>
<asrwt>0</asrwt>
<pdfrwt beam="1">  1        2 0.20245617E+00 0.18279382E+04</pdfrwt>
<pdfrwt beam="2">  1       -2 0.97657437E-01 0.18279382E+04</pdfrwt>
<totfact> 0.13316864E+01</totfact>
</mgrwt>
</event>
<event>
 6    1  0.5026615E-004  0.2999348E+04  0.7818608E-02  0.8243917E-01
         -2   -1    0    0    0  501 -0.00000000000E+00  0.00000000000E+00  0.62668201361E+03  0.62668201361E+03  0.00000000000E+00 0. -1.
          2   -1    0    0  501    0  0.00000000000E+00 -0.00000000000E+00 -0.35887776907E+04  0.35887776907E+04  0.00000000000E+00 0.  1.
         23    2    1    2    0    0 -0.95889658306E+03 -0.48754123552E+03 -0.17145323626E+02  0.10801907051E+04  0.96637900682E+02 0.  0.
         13    1    3    3    0    0 -0.24012669994E+03 -0.15133355004E+03 -0.38212090784E+02  0.28639629759E+03  0.00000000000E+00 0. -1.
        -13    1    3    3    0    0 -0.71876988312E+03 -0.33620768548E+03  0.21066767158E+02  0.79379440747E+03  0.00000000000E+00 0.  1.
         22    1    1    2    0    0  0.95889658306E+03  0.48754123552E+03 -0.29449503534E+04  0.31352689992E+04  0.00000000000E+00 0.  1.
<mgrwt>
<rscale>  0 0.29993482E+04</rscale>
<asrwt>0</asrwt>
<pdfrwt beam="1">  1        2 0.55211966E+00 0.29993482E+04</pdfrwt>
<pdfrwt beam="2">  1       -2 0.96412615E-01 0.29993482E+04</pdfrwt>
<totfact> 0.54165068E-01</totfact>
</mgrwt>
</event>
<event>
 6    1  0.5026615E-004  0.6513584E+03  0.7818608E-02  0.9804234E-01
          2   -1    0    0  501    0  0.00000000000E+00  0.00000000000E+00  0.12046706747E+04  0.12046706747E+04  0.00000000000E+00 0.  1.
         -2   -1    0    0    0  501 -0.00000000000E+00 -0.00000000000E+00 -0.88046428009E+02  0.88046428009E+02  0.00000000000E+00 0. -1.
         23    2    1    2    0    0  0.21777403655E+03 -0.17014502671E+03  0.88981618698E+03  0.93520240784E+03  0.80348216509E+02 0.  0.
         11    1    3    3    0    0 -0.21135199910E+01 -0.23122571077E+02  0.66249850440E+02  0.70200875659E+02  0.00000000000E+00 0.  1.
        -11    1    3    3    0    0  0.21988755654E+03 -0.14702245563E+03  0.82356633654E+03  0.86500153218E+03  0.00000000000E+00 0. -1.
         22    1    1    2    0    0 -0.21777403655E+03  0.17014502671E+03  0.22680805973E+03  0.35751469489E+03  0.00000000000E+00 0. -1.
<mgrwt>
<rscale>  0 0.65135843E+03</rscale>
<asrwt>0</asrwt>
<pdfrwt beam="1">  1        2 0.18533394E+00 0.65135843E+03</pdfrwt>
<pdfrwt beam="2">  1       -2 0.13545605E-01 0.65135843E+03</pdfrwt>
<totfact> 0.79141049E+02</totfact>
</mgrwt>
</event>
<event>
 6    1  0.5026615E-004  0.2178120E+04  0.7818608E-02  0.8527590E-01
         -2   -1    0    0    0  501 -0.00000000000E+00  0.00000000000E+00  0.59392238857E+03  0.59392238857E+03  0.00000000000E+00 0. -1.
          2   -1    0    0  501    0  0.00000000000E+00 -0.00000000000E+00 -0.19969813886E+04  0.19969813886E+04  0.00000000000E+00 0.  1.
         23    2    1    2    0    0 -0.87943273802E+03 -0.12249007580E+03  0.43162217461E+02  0.89385882512E+03  0.93353429806E+02 0.  0.
         11    1    3    3    0    0 -0.47456943765E+03 -0.99636105496E+02 -0.90707485061E+01  0.48500080737E+03  0.00000000000E+00 0.  1.
        -11    1    3    3    0    0 -0.40486330037E+03 -0.22853970304E+02  0.52232965967E+02  0.40885801775E+03  0.00000000000E+00 0. -1.
         22    1    1    2    0    0  0.87943273802E+03  0.12249007580E+03 -0.14462212175E+04  0.16970449520E+04  0.00000000000E+00 0.  1.
<mgrwt>
<rscale>  0 0.21781203E+04</rscale>
<asrwt>0</asrwt>
<pdfrwt beam="1">  1        2 0.30722791E+00 0.21781203E+04</pdfrwt>
<pdfrwt beam="2">  1       -2 0.91372674E-01 0.21781203E+04</pdfrwt>
<totfact> 0.62665728E+00</totfact>
</mgrwt>
</event>
<event>
 6    1  0.5026615E-004  0.1786990E+04  0.7818608E-02  0.8713249E-01
          2   -1    0    0  501    0  0.00000000000E+00  0.00000000000E+00  0.79674960128E+03  0.79674960128E+03  0.00000000000E+00 0.  1.
         -2   -1    0    0    0  501 -0.00000000000E+00 -0.00000000000E+00 -0.10019879948E+04  0.10019879948E+04  0.00000000000E+00 0. -1.
         23    2    1    2    0    0 -0.35066360281E+03 -0.67400527377E+03  0.36591598776E+03  0.84822962735E+03  0.91383363945E+02 0.  0.
         13    1    3    3    0    0 -0.13923431871E+03 -0.28192998108E+03  0.10249557394E+03  0.33072050498E+03  0.00000000000E+00 0. -1.
        -13    1    3    3    0    0 -0.21142928411E+03 -0.39207529268E+03  0.26342041382E+03  0.51750912236E+03  0.00000000000E+00 0.  1.
         22    1    1    2    0    0  0.35066360281E+03  0.67400527377E+03 -0.57115438132E+03  0.95050796878E+03  0.00000000000E+00 0. -1.
<mgrwt>
<rscale>  0 0.17869902E+04</rscale>
<asrwt>0</asrwt>
<pdfrwt beam="1">  1        2 0.12257686E+00 0.17869902E+04</pdfrwt>
<pdfrwt beam="2">  1       -2 0.15415200E+00 0.17869902E+04</pdfrwt>
<totfact> 0.91144069E+00</totfact>
</mgrwt>
</event>
<event>
 6    1  0.5026615E-004  0.7542819E+03  0.7818608E-02  0.9628657E-01
         -2   -1    0    0    0  501 -0.00000000000E+00  0.00000000000E+00  0.13497945995E+03  0.13497945995E+03  0.00000000000E+00 0. -1.
          2   -1    0    0  501    0  0.00000000000E+00 -0.00000000000E+00 -0.10537550970E+04  0.10537550970E+04  0.00000000000E+00 0.  1.
         23    2    1    2    0    0 -0.96355745021E+02  0.32607918225E+03 -0.70187400612E+03  0.78542527094E+03  0.93025120663E+02 0.  0.
         13    1    3    3    0    0 -0.30635040575E+02  0.16148820802E+03 -0.43544900328E+03  0.46543826819E+03  0.00000000000E+00 0.  1.
        -13    1    3    3    0    0 -0.65720704446E+02  0.16459097423E+03 -0.26642500284E+03  0.31998700275E+03  0.00000000000E+00 0. -1.
         22    1    1    2    0    0  0.96355745021E+02 -0.32607918225E+03 -0.21690163098E+03  0.40330928605E+03  0.00000000000E+00 0.  1.
<mgrwt>
<rscale>  0 0.75428189E+03</rscale>
<asrwt>0</asrwt>
<pdfrwt beam="1">  1        2 0.16211617E+00 0.75428189E+03</pdfrwt>
<pdfrwt beam="2">  1       -2 0.20766071E-01 0.75428189E+03</pdfrwt>
<totfact> 0.46791635E+02</totfact>
</mgrwt>
</event>
<event>
 6    1  0.5026615E-004  0.1019069E+04  0.7818608E-02  0.9287874E-01
         -2   -1    0    0    0  501 -0.00000000000E+00  0.00000000000E+00  0.21838468656E+03  0.21838468656E+03  0.00000000000E+00 0. -1.
          2   -1    0    0  501    0  0.00000000000E+00 -0.00000000000E+00 -0.11888433779E+04  0.11888433779E+04  0.00000000000E+00 0.  1.
         23    2    1    2    0    0  0.23200653765E+03 -0.11509909962E+02 -0.11089679530E+04  0.11367759854E+04  0.92142328679E+02 0.  0.
         11    1    3    3    0    0  0.57067067477E+02  0.17996705382E+02 -0.46437863359E+03  0.46821794811E+03  0.00000000000E+00 0. -1.
        -11    1    3    3    0    0  0.17493947017E+03 -0.29506615344E+02 -0.64458931937E+03  0.66855803729E+03  0.00000000000E+00 0.  1.
         22    1    1    2    0    0 -0.23200653765E+03  0.11509909962E+02  0.13850926160E+03  0.27045207910E+03  0.00000000000E+00 0. -1.
<mgrwt>
<rscale>  0 0.10190686E+04</rscale>
<asrwt>0</asrwt>
<pdfrwt beam="1">  1        2 0.18289898E+00 0.10190686E+04</pdfrwt>
<pdfrwt beam="2">  1       -2 0.33597644E-01 0.10190686E+04</pdfrwt>
<totfact> 0.15869793E+02</totfact>
</mgrwt>
</event>
<event>
 6    1  0.5026615E-004  0.2204032E+04  0.7818608E-02  0.8516752E-01
         -1   -1    0    0    0  501 -0.00000000000E+00  0.00000000000E+00  0.10482826372E+04  0.10482826372E+04  0.00000000000E+00 0. -1.
          1   -1    0    0  501    0  0.00000000000E+00 -0.00000000000E+00 -0.11585040168E+04  0.11585040168E+04  0.00000000000E+00 0.  1.
         23    2    1    2    0    0  0.60321646909E+02 -0.10471430124E+04 -0.38746880966E+03  0.11218842035E+04  0.91350413879E+02 0.  0.
         13    1    3    3    0    0  0.67727138273E+02 -0.57346538871E+03 -0.18142551122E+03  0.60528070631E+03  0.00000000000E+00 0. -1.
        -13    1    3    3    0    0 -0.74054913639E+01 -0.47367762371E+03 -0.20604329844E+03  0.51660349722E+03  0.00000000000E+00 0.  1.
         22    1    1    2    0    0 -0.60321646909E+02  0.10471430124E+04  0.27724743001E+03  0.10849024505E+04  0.00000000000E+00 0. -1.
<mgrwt>
<rscale>  0 0.22040323E+04</rscale>
<asrwt>0</asrwt>
<pdfrwt beam="1">  1        1 0.17823138E+00 0.22040323E+04</pdfrwt>
<pdfrwt beam="2">  1       -1 0.16127425E+00 0.22040323E+04</pdfrwt>
<totfact> 0.29867341E+00</totfact>
</mgrwt>
</event>
<event>
 6    1  0.5026615E-004  0.2237606E+04  0.7818608E-02  0.8502937E-01
          2   -1    0    0  501    0  0.00000000000E+00  0.00000000000E+00  0.75271128360E+03  0.75271128360E+03  0.00000000000E+00 0.  1.
         -2   -1    0    0    0  501 -0.00000000000E+00 -0.00000000000E+00 -0.16629478799E+04  0.16629478799E+04  0.00000000000E+00 0. -1.
         23    2    1    2    0    0 -0.57810667349E+03  0.27918409040E+03  0.53088233993E+03  0.83801063781E+03  0.90965311834E+02 0.  0.
         13    1    3    3    0    0 -0.39553647117E+03  0.14582679506E+03  0.32613707421E+03  0.53299150590E+03  0.00000000000E+00 0. -1.
        -13    1    3    3    0    0 -0.18257020233E+03  0.13335729534E+03  0.20474526572E+03  0.30501913191E+03  0.00000000000E+00 0.  1.
         22    1    1    2    0    0  0.57810667349E+03 -0.27918409040E+03 -0.14411189363E+04  0.15776485257E+04  0.00000000000E+00 0. -1.
<mgrwt>
<rscale>  0 0.22376055E+04</rscale>
<asrwt>0</asrwt>
<pdfrwt beam="1">  1        2 0.11580174E+00 0.22376055E+04</pdfrwt>
<pdfrwt beam="2">  1       -2 0.25583813E+00 0.22376055E+04</pdfrwt>
<totfact> 0.20120590E+00</totfact>
</mgrwt>
</event>
<event>
 6    1  0.5026615E-004  0.1010176E+04  0.7818608E-02  0.9297454E-01
         -2   -1    0    0    0  501 -0.00000000000E+00  0.00000000000E+00  0.22116051681E+03  0.22116051681E+03  0.00000000000E+00 0. -1.
          2   -1    0    0  501    0  0.00000000000E+00 -0.00000000000E+00 -0.11535232123E+04  0.11535232123E+04  0.00000000000E+00 0.  1.
         23    2    1    2    0    0 -0.43797568311E+03 -0.33134197862E+02 -0.14157917094E+03  0.47010694587E+03  0.89639861911E+02 0.  0.
         11    1    3    3    0    0 -0.20092373564E+03 -0.22296522804E+02 -0.11161540940E+03  0.23092310861E+03  0.00000000000E+00 0.  1.
        -11    1    3    3    0    0 -0.23705194747E+03 -0.10837675058E+02 -0.29963761539E+02  0.23918383726E+03  0.00000000000E+00 0. -1.
         22    1    1    2    0    0  0.43797568311E+03  0.33134197862E+02 -0.79078352451E+03  0.90457678320E+03  0.00000000000E+00 0.  1.
<mgrwt>
<rscale>  0 0.10101758E+04</rscale>
<asrwt>0</asrwt>
<pdfrwt beam="1">  1        2 0.17746511E+00 0.10101758E+04</pdfrwt>
<pdfrwt beam="2">  1       -2 0.34024695E-01 0.10101758E+04</pdfrwt>
<totfact> 0.16279542E+02</totfact>
</mgrwt>
</event>
<event>
 6    1  0.5026615E-004  0.1239099E+04  0.7818608E-02  0.9079305E-01
          2   -1    0    0  501    0  0.00000000000E+00  0.00000000000E+00  0.13800289217E+04  0.13800289217E+04  0.00000000000E+00 0.  1.
         -2   -1    0    0    0  501 -0.00000000000E+00 -0.00000000000E+00 -0.27814029765E+03  0.27814029765E+03  0.00000000000E+00 0. -1.
         23    2    1    2    0    0  0.18384898969E+03  0.19592488850E+03  0.12960109000E+04  0.13267020702E+04  0.91143388729E+02 0.  0.
         13    1    3    3    0    0  0.49622515063E+01  0.51982945200E+02  0.30516788590E+03  0.30960343848E+03  0.00000000000E+00 0. -1.
        -13    1    3    3    0    0  0.17888673818E+03  0.14394194330E+03  0.99084301405E+03  0.10170986317E+04  0.00000000000E+00 0.  1.
         22    1    1    2    0    0 -0.18384898969E+03 -0.19592488850E+03 -0.19412227593E+03  0.33146714914E+03  0.00000000000E+00 0. -1.
<mgrwt>
<rscale>  0 0.12390991E+04</rscale>
<asrwt>0</asrwt>
<pdfrwt beam="1">  1        2 0.21231214E+00 0.12390991E+04</pdfrwt>
<pdfrwt beam="2">  1       -2 0.42790816E-01 0.12390991E+04</pdfrwt>
<totfact> 0.75674981E+01</totfact>
</mgrwt>
</event>
<event>
 6    1  0.5026615E-004  0.2707300E+04  0.7818608E-02  0.8332640E-01
          2   -1    0    0  501    0  0.00000000000E+00  0.00000000000E+00  0.92171805325E+03  0.92171805325E+03  0.00000000000E+00 0.  1.
         -2   -1    0    0    0  501 -0.00000000000E+00 -0.00000000000E+00 -0.19879922678E+04  0.19879922678E+04  0.00000000000E+00 0. -1.
         23    2    1    2    0    0 -0.34750858373E+03 -0.86603843622E+03  0.51788311394E+03  0.10711404338E+04  0.91400878053E+02 0.  0.
         13    1    3    3    0    0 -0.13830920589E+03 -0.41044918414E+03  0.28408539309E+03  0.51797922716E+03  0.00000000000E+00 0.  1.
        -13    1    3    3    0    0 -0.20919937784E+03 -0.45558925207E+03  0.23379772085E+03  0.55316120667E+03  0.00000000000E+00 0. -1.
         22    1    1    2    0    0  0.34750858373E+03  0.86603843622E+03 -0.15841573285E+04  0.18385698872E+04  0.00000000000E+00 0. -1.
<mgrwt>
<rscale>  0 0.27073000E+04</rscale>
<asrwt>0</asrwt>
<pdfrwt beam="1">  1        2 0.14180278E+00 0.27073000E+04</pdfrwt>
<pdfrwt beam="2">  1       -2 0.30584496E+00 0.27073000E+04</pdfrwt>
<totfact> 0.72749177E-01</totfact>
</mgrwt>
</event>
<event>
 6    1  0.5026615E-004  0.2666719E+04  0.7818608E-02  0.8345885E-01
          2   -1    0    0  501    0  0.00000000000E+00  0.00000000000E+00  0.16764442432E+04  0.16764442432E+04  0.00000000000E+00 0.  1.
         -2   -1    0    0    0  501 -0.00000000000E+00 -0.00000000000E+00 -0.10604875099E+04  0.10604875099E+04  0.00000000000E+00 0. -1.
         23    2    1    2    0    0  0.79088281396E+03 -0.76743293572E+03 -0.45944254015E+03  0.11971484783E+04  0.87338967046E+02 0.  0.
         11    1    3    3    0    0  0.57565889467E+02 -0.91840018441E+02 -0.44787803407E+02  0.11727901752E+03  0.00000000000E+00 0. -1.
        -11    1    3    3    0    0  0.73331692449E+03 -0.67559291728E+03 -0.41465473674E+03  0.10798694608E+04  0.00000000000E+00 0.  1.
         22    1    1    2    0    0 -0.79088281396E+03  0.76743293572E+03  0.10753992734E+04  0.15397832748E+04  0.00000000000E+00 0.  1.
<mgrwt>
<rscale>  0 0.26667195E+04</rscale>
<asrwt>0</asrwt>
<pdfrwt beam="1">  1        2 0.25791450E+00 0.26667195E+04</pdfrwt>
<pdfrwt beam="2">  1       -2 0.16315192E+00 0.26667195E+04</pdfrwt>
<totfact> 0.21237282E+00</totfact>
</mgrwt>
</event>
<event>
 6    1  0.5026615E-004  0.1642254E+04  0.7818608E-02  0.8795002E-01
          2   -1    0    0  501    0  0.00000000000E+00  0.00000000000E+00  0.79095069069E+03  0.79095069069E+03  0.00000000000E+00 0.  1.
         -2   -1    0    0    0  501 -0.00000000000E+00 -0.00000000000E+00 -0.85245409557E+03  0.85245409557E+03  0.00000000000E+00 0. -1.
         23    2    1    2    0    0  0.10457632581E+03 -0.81068452220E+03 -0.71623794287E+02  0.82594039881E+03  0.94350262443E+02 0.  0.
         11    1    3    3    0    0 -0.84866918482E+01 -0.24013422443E+03 -0.38539775898E+02  0.24335526296E+03  0.00000000000E+00 0.  1.
        -11    1    3    3    0    0  0.11306301765E+03 -0.57055029777E+03 -0.33084018389E+02  0.58258513585E+03  0.00000000000E+00 0. -1.
         22    1    1    2    0    0 -0.10457632581E+03  0.81068452220E+03  0.10120389404E+02  0.81746438745E+03  0.00000000000E+00 0.  1.
<mgrwt>
<rscale>  0 0.16422535E+04</rscale>
<asrwt>0</asrwt>
<pdfrwt beam="1">  1        2 0.12168472E+00 0.16422535E+04</pdfrwt>
<pdfrwt beam="2">  1       -2 0.13114678E+00 0.16422535E+04</pdfrwt>
<totfact> 0.14194297E+01</totfact>
</mgrwt>
</event>
<event>
 6    1  0.5026615E-004  0.1185061E+04  0.7818608E-02  0.9126034E-01
          2   -1    0    0  501    0  0.00000000000E+00  0.00000000000E+00  0.25868443091E+04  0.25868443091E+04  0.00000000000E+00 0.  1.
         -2   -1    0    0    0  501 -0.00000000000E+00 -0.00000000000E+00 -0.13572221078E+03  0.13572221078E+03  0.00000000000E+00 0. -1.
         23    2    1    2    0    0  0.19708011917E+03 -0.12189748169E+03  0.24769655713E+04  0.24893982233E+04  0.89696729020E+02 0.  0.
         11    1    3    3    0    0  0.13217778547E+03 -0.12008905371E+03  0.15732717503E+04  0.15833749866E+04  0.00000000000E+00 0. -1.
        -11    1    3    3    0    0  0.64902333702E+02 -0.18084279743E+01  0.90369382099E+03  0.90602323670E+03  0.00000000000E+00 0.  1.
         22    1    1    2    0    0 -0.19708011917E+03  0.12189748169E+03 -0.25843473042E+02  0.23316829655E+03  0.00000000000E+00 0. -1.
<mgrwt>
<rscale>  0 0.11850607E+04</rscale>
<asrwt>0</asrwt>
<pdfrwt beam="1">  1        2 0.39797601E+00 0.11850607E+04</pdfrwt>
<pdfrwt beam="2">  1       -2 0.20880342E-01 0.11850607E+04</pdfrwt>
<totfact> 0.61098921E+01</totfact>
</mgrwt>
</event>
<event>
 6    1  0.5026615E-004  0.2983193E+04  0.7818608E-02  0.8248547E-01
          2   -1    0    0  501    0  0.00000000000E+00  0.00000000000E+00  0.19085996139E+04  0.19085996139E+04  0.00000000000E+00 0.  1.
         -2   -1    0    0    0  501 -0.00000000000E+00 -0.00000000000E+00 -0.11657026544E+04  0.11657026544E+04  0.00000000000E+00 0. -1.
         23    2    1    2    0    0  0.40209449172E+03  0.22552904222E+03 -0.10885970183E+04  0.11856748513E+04  0.90763735090E+02 0.  0.
         11    1    3    3    0    0  0.22870643317E+03  0.12032479533E+03 -0.49518740936E+03  0.55856535816E+03  0.00000000000E+00 0.  1.
        -11    1    3    3    0    0  0.17338805855E+03  0.10520424689E+03 -0.59340960897E+03  0.62710949317E+03  0.00000000000E+00 0. -1.
         22    1    1    2    0    0 -0.40209449172E+03 -0.22552904222E+03  0.18314939779E+04  0.18886274170E+04  0.00000000000E+00 0.  1.
<mgrwt>
<rscale>  0 0.29831927E+04</rscale>
<asrwt>0</asrwt>
<pdfrwt beam="1">  1        2 0.29363071E+00 0.29831927E+04</pdfrwt>
<pdfrwt beam="2">  1       -2 0.17933887E+00 0.29831927E+04</pdfrwt>
<totfact> 0.11798688E+00</totfact>
</mgrwt>
</event>
<event>
 6    1  0.9225033E-004  0.3625421E+04  0.7818608E-02  0.8084693E-01
         -2   -1    0    0    0  501 -0.00000000000E+00  0.00000000000E+00  0.15429551542E+04  0.15429551542E+04  0.00000000000E+00 0.  1.
          2   -1    0    0  501    0  0.00000000000E+00 -0.00000000000E+00 -0.21296272939E+04  0.21296272939E+04  0.00000000000E+00 0. -1.
         23    2    1    2    0    0  0.32864524896E+03  0.28578525249E+03  0.14868531489E+04  0.15538120422E+04  0.11797739537E+03 0.  0.
         13    1    3    3    0    0  0.23187075588E+03  0.17155029777E+03  0.78870302641E+03  0.83978926879E+03  0.00000000000E+00 0.  1.
        -13    1    3    3    0    0  0.96774493078E+02  0.11423495472E+03  0.69815012253E+03  0.71402277343E+03  0.00000000000E+00 0. -1.
         22    1    1    2    0    0 -0.32864524896E+03 -0.28578525249E+03 -0.20735252887E+04  0.21187704059E+04  0.00000000000E+00 0. -1.
<mgrwt>
<rscale>  0 0.36254210E+04</rscale>
<asrwt>0</asrwt>
<pdfrwt beam="1">  1        2 0.32763497E+00 0.36254210E+04</pdfrwt>
<pdfrwt beam="2">  1       -2 0.23737772E+00 0.36254210E+04</pdfrwt>
<totfact> 0.35377866E-01</totfact>
</mgrwt>
</event>
<event>
 6    1  0.5026615E-004  0.4842041E+04  0.7818608E-02  0.7853347E-01
         -2   -1    0    0    0  501 -0.00000000000E+00  0.00000000000E+00  0.14607404310E+04  0.14607404310E+04  0.00000000000E+00 0. -1.
          2   -1    0    0  501    0  0.00000000000E+00 -0.00000000000E+00 -0.40125824363E+04  0.40125824363E+04  0.00000000000E+00 0.  1.
         23    2    1    2    0    0  0.20167329717E+04 -0.64129227822E+03  0.51004088296E+02  0.21187326610E+04  0.89213264738E+02 0.  0.
         11    1    3    3    0    0  0.61926999377E+03 -0.24013709708E+03  0.11943369505E+02  0.66430700332E+03  0.00000000000E+00 0.  1.
        -11    1    3    3    0    0  0.13974629779E+04 -0.40115518115E+03  0.39060718791E+02  0.14544256577E+04  0.00000000000E+00 0. -1.
         22    1    1    2    0    0 -0.20167329717E+04  0.64129227822E+03 -0.26028460935E+04  0.33545902063E+04  0.00000000000E+00 0.  1.
<mgrwt>
<rscale>  0 0.48420415E+04</rscale>
<asrwt>0</asrwt>
<pdfrwt beam="1">  1        2 0.61732037E+00 0.48420415E+04</pdfrwt>
<pdfrwt beam="2">  1       -2 0.22472930E+00 0.48420415E+04</pdfrwt>
<totfact> 0.22624588E-02</totfact>
</mgrwt>
</event>
<event>
 6    1  0.6662160E-004  0.3033361E+04  0.7818608E-02  0.8234268E-01
         -2   -1    0    0    0  501 -0.00000000000E+00  0.00000000000E+00  0.73568984594E+03  0.73568984594E+03  0.00000000000E+00 0. -1.
          2   -1    0    0  501    0  0.00000000000E+00 -0.00000000000E+00 -0.31267528690E+04  0.31267528690E+04  0.00000000000E+00 0.  1.
         23    2    1    2    0    0  0.62053706076E+03 -0.26440562000E+03  0.53123364822E+03  0.86331043865E+03  0.90106319547E+02 0.  0.
         13    1    3    3    0    0  0.27984775530E+03 -0.13826971559E+03  0.29829044996E+03  0.43175279146E+03  0.00000000000E+00 0.  1.
        -13    1    3    3    0    0  0.34068930546E+03 -0.12613590441E+03  0.23294319826E+03  0.43155764719E+03  0.00000000000E+00 0. -1.
         22    1    1    2    0    0 -0.62053706076E+03  0.26440562000E+03 -0.29222966713E+04  0.29991322763E+04  0.00000000000E+00 0.  1.
<mgrwt>
<rscale>  0 0.30333614E+04</rscale>
<asrwt>0</asrwt>
<pdfrwt beam="1">  1        2 0.48103891E+00 0.30333614E+04</pdfrwt>
<pdfrwt beam="2">  1       -2 0.11318305E+00 0.30333614E+04</pdfrwt>
<totfact> 0.75645907E-01</totfact>
</mgrwt>
</event>
<event>
 6    1  0.5026615E-004  0.6134136E+04  0.7818608E-02  0.7673989E-01
          2   -1    0    0  501    0  0.00000000000E+00  0.00000000000E+00  0.22360215506E+04  0.22360215506E+04  0.00000000000E+00 0.  1.
         -2   -1    0    0    0  501 -0.00000000000E+00 -0.00000000000E+00 -0.42069840839E+04  0.42069840839E+04  0.00000000000E+00 0. -1.
         23    2    1    2    0    0  0.17454662698E+04  0.12718809334E+04 -0.32721257808E+04  0.39216251784E+04  0.89461202179E+02 0.  0.
         11    1    3    3    0    0  0.11350784906E+04  0.77941699307E+03 -0.20498971068E+04  0.24694072522E+04  0.00000000000E+00 0. -1.
        -11    1    3    3    0    0  0.61038777920E+03  0.49246394029E+03 -0.12222286741E+04  0.14522179262E+04  0.00000000000E+00 0.  1.
         22    1    1    2    0    0 -0.17454662698E+04 -0.12718809334E+04  0.13011632476E+04  0.25213804561E+04  0.00000000000E+00 0.  1.
<mgrwt>
<rscale>  0 0.61341363E+04</rscale>
<asrwt>0</asrwt>
<pdfrwt beam="1">  1        2 0.34400332E+00 0.61341363E+04</pdfrwt>
<pdfrwt beam="2">  1       -2 0.64722831E+00 0.61341363E+04</pdfrwt>
<totfact> 0.11523340E-03</totfact>
</mgrwt>
</event>
<event>
 6    1  0.5026615E-004  0.7368535E+03  0.7818608E-02  0.9656204E-01
         -2   -1    0    0    0  501 -0.00000000000E+00  0.00000000000E+00  0.46629463943E+03  0.46629463943E+03  0.00000000000E+00 0. -1.
          2   -1    0    0  501    0  0.00000000000E+00 -0.00000000000E+00 -0.29109975294E+03  0.29109975294E+03  0.00000000000E+00 0.  1.
         23    2    1    2    0    0 -0.75016628709E+02  0.25929325335E+03  0.33890637783E+03  0.44170160148E+03  0.85920230475E+02 0.  0.
         13    1    3    3    0    0 -0.72140659651E+02  0.12135874102E+03  0.20890204143E+03  0.25213544318E+03  0.00000000000E+00 0. -1.
        -13    1    3    3    0    0 -0.28759690571E+01  0.13793451233E+03  0.13000433640E+03  0.18956615830E+03  0.00000000000E+00 0.  1.
         22    1    1    2    0    0  0.75016628709E+02 -0.25929325335E+03 -0.16371149134E+03  0.31569279088E+03  0.00000000000E+00 0.  1.
<mgrwt>
<rscale>  0 0.73685346E+03</rscale>
<asrwt>0</asrwt>
<pdfrwt beam="1">  1        2 0.44784578E-01 0.73685346E+03</pdfrwt>
<pdfrwt beam="2">  1       -2 0.71737637E-01 0.73685346E+03</pdfrwt>
<totfact> 0.20187774E+02</totfact>
</mgrwt>
</event>
<event>
 6    1  0.5026615E-004  0.1119868E+04  0.7818608E-02  0.9186040E-01
         -2   -1    0    0    0  501 -0.00000000000E+00  0.00000000000E+00  0.49567177869E+03  0.49567177869E+03  0.00000000000E+00 0. -1.
          2   -1    0    0  501    0  0.00000000000E+00 -0.00000000000E+00 -0.63252806156E+03  0.63252806156E+03  0.00000000000E+00 0.  1.
         23    2    1    2    0    0 -0.13698129389E+03 -0.32343984811E+03 -0.50577428734E+03  0.61881029948E+03  0.61166549591E+02 0.  0.
         11    1    3    3    0    0 -0.13202430955E+03 -0.32411828365E+03 -0.50380157784E+03  0.61343223744E+03  0.00000000000E+00 0. -1.
        -11    1    3    3    0    0 -0.49569843317E+01  0.67843554111E+00 -0.19727095054E+01  0.53780620339E+01  0.00000000000E+00 0.  1.
         22    1    1    2    0    0  0.13698129389E+03  0.32343984811E+03  0.36891800447E+03  0.50938954076E+03  0.00000000000E+00 0. -1.
<mgrwt>
<rscale>  0 0.11198684E+04</rscale>
<asrwt>0</asrwt>
<pdfrwt beam="1">  1        2 0.97312009E-01 0.11198684E+04</pdfrwt>
<pdfrwt beam="2">  1       -2 0.76257197E-01 0.11198684E+04</pdfrwt>
<totfact> 0.71007412E+01</totfact>
</mgrwt>
</event>
<event>
 6    1  0.5026615E-004  0.1177632E+04  0.7818608E-02  0.9132664E-01
         -2   -1    0    0    0  501 -0.00000000000E+00  0.00000000000E+00  0.11506889642E+04  0.11506889642E+04  0.00000000000E+00 0.  1.
          2   -1    0    0  501    0  0.00000000000E+00 -0.00000000000E+00 -0.30130155006E+03  0.30130155006E+03  0.00000000000E+00 0. -1.
         23    2    1    2    0    0  0.98243491440E+02  0.57488270342E+03  0.48681131285E+03  0.76525669719E+03  0.92144733817E+02 0.  0.
         13    1    3    3    0    0  0.73805060021E+02  0.34315842184E+03  0.34672279056E+03  0.49337772838E+03  0.00000000000E+00 0.  1.
        -13    1    3    3    0    0  0.24438431419E+02  0.23172428158E+03  0.14008852229E+03  0.27187896881E+03  0.00000000000E+00 0. -1.
         22    1    1    2    0    0 -0.98243491440E+02 -0.57488270342E+03  0.36257610131E+03  0.68673381710E+03  0.00000000000E+00 0. -1.
<mgrwt>
<rscale>  0 0.11776321E+04</rscale>
<asrwt>0</asrwt>
<pdfrwt beam="1">  1        2 0.46354085E-01 0.11776321E+04</pdfrwt>
<pdfrwt beam="2">  1       -2 0.17702907E+00 0.11776321E+04</pdfrwt>
<totfact> 0.20507795E+01</totfact>
</mgrwt>
</event>
<event>
 6    1  0.5026615E-004  0.1679054E+04  0.7818608E-02  0.8773402E-01
         -2   -1    0    0    0  501 -0.00000000000E+00  0.00000000000E+00  0.11832243643E+04  0.11832243643E+04  0.00000000000E+00 0. -1.
          2   -1    0    0  501    0  0.00000000000E+00 -0.00000000000E+00 -0.59566515018E+03  0.59566515018E+03  0.00000000000E+00 0.  1.
         23    2    1    2    0    0 -0.23163656570E+03  0.70807020498E+03 -0.10971162771E+03  0.75849471803E+03  0.90877292374E+02 0.  0.
         13    1    3    3    0    0 -0.66643218538E+02  0.10948307739E+03 -0.36603312028E+02  0.13329540601E+03  0.00000000000E+00 0.  1.
        -13    1    3    3    0    0 -0.16499334716E+03  0.59858712759E+03 -0.73108315685E+02  0.62519931202E+03  0.00000000000E+00 0. -1.
         22    1    1    2    0    0  0.23163656570E+03 -0.70807020498E+03  0.69727084187E+03  0.10203947965E+04  0.00000000000E+00 0. -1.
<mgrwt>
<rscale>  0 0.16790539E+04</rscale>
<asrwt>0</asrwt>
<pdfrwt beam="1">  1        2 0.91640793E-01 0.16790539E+04</pdfrwt>
<pdfrwt beam="2">  1       -2 0.18203452E+00 0.16790539E+04</pdfrwt>
<totfact> 0.83645227E+00</totfact>
</mgrwt>
</event>
<event>
 6    1  0.5026615E-004  0.3086069E+04  0.7818608E-02  0.8219571E-01
         -2   -1    0    0    0  501 -0.00000000000E+00  0.00000000000E+00  0.13297245028E+04  0.13297245028E+04  0.00000000000E+00 0. -1.
          2   -1    0    0  501    0  0.00000000000E+00 -0.00000000000E+00 -0.17905634037E+04  0.17905634037E+04  0.00000000000E+00 0.  1.
         23    2    1    2    0    0 -0.81914768414E+03  0.11963956448E+04 -0.76021693517E+03  0.16397499385E+04  0.92111915036E+02 0.  0.
         11    1    3    3    0    0 -0.25836752246E+03  0.45151702456E+03 -0.28803623256E+03  0.59463120621E+03  0.00000000000E+00 0. -1.
        -11    1    3    3    0    0 -0.56078016168E+03  0.74487862026E+03 -0.47218070260E+03  0.10451187323E+04  0.00000000000E+00 0.  1.
         22    1    1    2    0    0  0.81914768414E+03 -0.11963956448E+04  0.29937803426E+03  0.14805379680E+04  0.00000000000E+00 0. -1.
<mgrwt>
<rscale>  0 0.30860694E+04</rscale>
<asrwt>0</asrwt>
<pdfrwt beam="1">  1        2 0.27547129E+00 0.30860694E+04</pdfrwt>
<pdfrwt beam="2">  1       -2 0.20457300E+00 0.30860694E+04</pdfrwt>
<totfact> 0.92172036E-01</totfact>
</mgrwt>
</event>
<event>
 6    1  0.5026615E-004  0.1485667E+04  0.7818608E-02  0.8894041E-01
          2   -1    0    0  501    0  0.00000000000E+00  0.00000000000E+00  0.26611005072E+04  0.26611005072E+04  0.00000000000E+00 0.  1.
         -2   -1    0    0    0  501 -0.00000000000E+00 -0.00000000000E+00 -0.20735841223E+03  0.20735841223E+03  0.00000000000E+00 0. -1.
         23    2    1    2    0    0 -0.52060535004E+03  0.46065043676E+03  0.74043199518E+03  0.10194969800E+04  0.88914551136E+02 0.  0.
         13    1    3    3    0    0 -0.24896019872E+03  0.26785304844E+03  0.42595386278E+03  0.56139391636E+03  0.00000000000E+00 0.  1.
        -13    1    3    3    0    0 -0.27164515132E+03  0.19279738832E+03  0.31447813240E+03  0.45810306366E+03  0.00000000000E+00 0. -1.
         22    1    1    2    0    0  0.52060535004E+03 -0.46065043676E+03  0.17133100998E+04  0.18489619394E+04  0.00000000000E+00 0.  1.
<mgrwt>
<rscale>  0 0.14856670E+04</rscale>
<asrwt>0</asrwt>
<pdfrwt beam="1">  1        2 0.40940005E+00 0.14856670E+04</pdfrwt>
<pdfrwt beam="2">  1       -2 0.31901296E-01 0.14856670E+04</pdfrwt>
<totfact> 0.24855672E+01</totfact>
</mgrwt>
</event>
<event>
 6    1  0.5026615E-004  0.1075491E+04  0.7818608E-02  0.9229415E-01
          2   -1    0    0  501    0  0.00000000000E+00  0.00000000000E+00  0.18422295337E+04  0.18422295337E+04  0.00000000000E+00 0.  1.
         -2   -1    0    0    0  501 -0.00000000000E+00 -0.00000000000E+00 -0.15696758353E+03  0.15696758353E+03  0.00000000000E+00 0. -1.
         23    2    1    2    0    0  0.38895413630E+03 -0.35610383163E+03  0.10009681622E+04  0.11352797327E+04  0.93955046147E+02 0.  0.
         13    1    3    3    0    0  0.97862210235E+02 -0.40518257162E+02  0.21596426779E+03  0.24053961486E+03  0.00000000000E+00 0.  1.
        -13    1    3    3    0    0  0.29109192607E+03 -0.31558557447E+03  0.78500389438E+03  0.89474011782E+03  0.00000000000E+00 0. -1.
         22    1    1    2    0    0 -0.38895413630E+03  0.35610383163E+03  0.68429378803E+03  0.86391738458E+03  0.00000000000E+00 0. -1.
<mgrwt>
<rscale>  0 0.10754912E+04</rscale>
<asrwt>0</asrwt>
<pdfrwt beam="1">  1        2 0.28341991E+00 0.10754912E+04</pdfrwt>
<pdfrwt beam="2">  1       -2 0.24148860E-01 0.10754912E+04</pdfrwt>
<totfact> 0.12429000E+02</totfact>
</mgrwt>
</event>
<event>
 6    1  0.5026615E-004  0.1943294E+04  0.7818608E-02  0.8633601E-01
          2   -1    0    0  501    0  0.00000000000E+00  0.00000000000E+00  0.13427367399E+04  0.13427367399E+04  0.00000000000E+00 0.  1.
         -2   -1    0    0    0  501 -0.00000000000E+00 -0.00000000000E+00 -0.70311497487E+03  0.70311497487E+03  0.00000000000E+00 0. -1.
         23    2    1    2    0    0  0.82545793355E+03  0.14840178000E+03 -0.19144610926E+03  0.86514103894E+03  0.91725220868E+02 0.  0.
         13    1    3    3    0    0  0.27782120869E+03  0.31693390014E+02 -0.10441978583E+03  0.29848381303E+03  0.00000000000E+00 0.  1.
        -13    1    3    3    0    0  0.54763672486E+03  0.11670838998E+03 -0.87026323431E+02  0.56665722591E+03  0.00000000000E+00 0. -1.
         22    1    1    2    0    0 -0.82545793355E+03 -0.14840178000E+03  0.83106787432E+03  0.11807106759E+04  0.00000000000E+00 0.  1.
<mgrwt>
<rscale>  0 0.19432944E+04</rscale>
<asrwt>0</asrwt>
<pdfrwt beam="1">  1        2 0.20657488E+00 0.19432944E+04</pdfrwt>
<pdfrwt beam="2">  1       -2 0.10817154E+00 0.19432944E+04</pdfrwt>
<totfact> 0.99715732E+00</totfact>
</mgrwt>
</event>
<event>
 6    1  0.5026615E-004  0.2801859E+04  0.7818608E-02  0.8302691E-01
          2   -1    0    0  501    0  0.00000000000E+00  0.00000000000E+00  0.26926058331E+04  0.26926058331E+04  0.00000000000E+00 0.  1.
         -2   -1    0    0    0  501 -0.00000000000E+00 -0.00000000000E+00 -0.72888652162E+03  0.72888652162E+03  0.00000000000E+00 0. -1.
         23    2    1    2    0    0 -0.31297416008E+03 -0.89863094117E+03  0.22358811361E+04  0.24317638808E+04  0.93918708178E+02 0.  0.
         11    1    3    3    0    0 -0.21754436561E+03 -0.67131585599E+03  0.15553436221E+04  0.17079473974E+04  0.00000000000E+00 0.  1.
        -11    1    3    3    0    0 -0.95429794480E+02 -0.22731508518E+03  0.68053751400E+03  0.72381648336E+03  0.00000000000E+00 0. -1.
         22    1    1    2    0    0  0.31297416008E+03  0.89863094117E+03 -0.27216182465E+03  0.98972847393E+03  0.00000000000E+00 0. -1.
<mgrwt>
<rscale>  0 0.28018595E+04</rscale>
<asrwt>0</asrwt>
<pdfrwt beam="1">  1        2 0.41424705E+00 0.28018595E+04</pdfrwt>
<pdfrwt beam="2">  1       -2 0.11213639E+00 0.28018595E+04</pdfrwt>
<totfact> 0.14629596E+00</totfact>
</mgrwt>
</event>
<event>
 6    1  0.5026615E-004  0.9284930E+03  0.7818608E-02  0.9390648E-01
         -2   -1    0    0    0  501 -0.00000000000E+00  0.00000000000E+00  0.19369499742E+03  0.19369499742E+03  0.00000000000E+00 0. -1.
          2   -1    0    0  501    0  0.00000000000E+00 -0.00000000000E+00 -0.11127021286E+04  0.11127021286E+04  0.00000000000E+00 0.  1.
         23    2    1    2    0    0 -0.27698571528E+02  0.29293900552E+03  0.33167710168E+02  0.30979419591E+03  0.91059733126E+02 0.  0.
         11    1    3    3    0    0 -0.40397157339E+02  0.20157153535E+03  0.59221628245E+02  0.21393974721E+03  0.00000000000E+00 0. -1.
        -11    1    3    3    0    0  0.12698585811E+02  0.91367470177E+02 -0.26053918076E+02  0.95854448698E+02  0.00000000000E+00 0.  1.
         22    1    1    2    0    0  0.27698571528E+02 -0.29293900552E+03 -0.95217484139E+03  0.99660293016E+03  0.00000000000E+00 0.  1.
<mgrwt>
<rscale>  0 0.92849305E+03</rscale>
<asrwt>0</asrwt>
<pdfrwt beam="1">  1        2 0.17118495E+00 0.92849305E+03</pdfrwt>
<pdfrwt beam="2">  1       -2 0.29799230E-01 0.92849305E+03</pdfrwt>
<totfact> 0.22218276E+02</totfact>
</mgrwt>
</event>
<event>
 6    1  0.5026615E-004  0.2864405E+04  0.7818608E-02  0.8283548E-01
          2   -1    0    0  501    0  0.00000000000E+00  0.00000000000E+00  0.12585115243E+04  0.12585115243E+04  0.00000000000E+00 0.  1.
         -2   -1    0    0    0  501 -0.00000000000E+00 -0.00000000000E+00 -0.16298648038E+04  0.16298648038E+04  0.00000000000E+00 0. -1.
         23    2    1    2    0    0  0.13911454780E+03 -0.14150769031E+04 -0.34637328183E+03  0.14662583655E+04  0.90242146522E+02 0.  0.
         13    1    3    3    0    0  0.37448080144E+01 -0.45993995397E+03 -0.10286706016E+03  0.47131774517E+03  0.00000000000E+00 0.  1.
        -13    1    3    3    0    0  0.13536973978E+03 -0.95513694915E+03 -0.24350622167E+03  0.99494062037E+03  0.00000000000E+00 0. -1.
         22    1    1    2    0    0 -0.13911454780E+03  0.14150769031E+04 -0.24979997701E+02  0.14221179626E+04  0.00000000000E+00 0.  1.
<mgrwt>
<rscale>  0 0.28644047E+04</rscale>
<asrwt>0</asrwt>
<pdfrwt beam="1">  1        2 0.19361716E+00 0.28644047E+04</pdfrwt>
<pdfrwt beam="2">  1       -2 0.25074843E+00 0.28644047E+04</pdfrwt>
<totfact> 0.96227959E-01</totfact>
</mgrwt>
</event>
<event>
 6    1  0.5026615E-004  0.6213668E+04  0.7818608E-02  0.7664460E-01
         -2   -1    0    0    0  501 -0.00000000000E+00  0.00000000000E+00  0.26120900775E+04  0.26120900775E+04  0.00000000000E+00 0. -1.
          2   -1    0    0  501    0  0.00000000000E+00 -0.00000000000E+00 -0.36952848340E+04  0.36952848340E+04  0.00000000000E+00 0.  1.
         23    2    1    2    0    0 -0.27643217452E+03 -0.30048828873E+04 -0.12894477207E+04  0.32827631680E+04  0.90125906775E+02 0.  0.
         13    1    3    3    0    0 -0.16011889691E+03 -0.12670804903E+04 -0.55647275589E+03  0.13931234540E+04  0.00000000000E+00 0. -1.
        -13    1    3    3    0    0 -0.11631327761E+03 -0.17378023970E+04 -0.73297496486E+03  0.18896397140E+04  0.00000000000E+00 0.  1.
         22    1    1    2    0    0  0.27643217452E+03  0.30048828873E+04  0.20625296422E+03  0.30246117435E+04  0.00000000000E+00 0. -1.
<mgrwt>
<rscale>  0 0.62136678E+04</rscale>
<asrwt>0</asrwt>
<pdfrwt beam="1">  1        2 0.56850536E+00 0.62136678E+04</pdfrwt>
<pdfrwt beam="2">  1       -2 0.40186001E+00 0.62136678E+04</pdfrwt>
<totfact> 0.28068115E-03</totfact>
</mgrwt>
</event>
<event>
 6    1  0.5026615E-004  0.1460388E+04  0.7818608E-02  0.8911231E-01
          2   -1    0    0  501    0  0.00000000000E+00  0.00000000000E+00  0.74241064939E+03  0.74241064939E+03  0.00000000000E+00 0.  1.
         -2   -1    0    0    0  501 -0.00000000000E+00 -0.00000000000E+00 -0.71817802143E+03  0.71817802143E+03  0.00000000000E+00 0. -1.
         23    2    1    2    0    0  0.14445774526E+03  0.71325712354E+03  0.18263691433E+02  0.73282539017E+03  0.84236130043E+02 0.  0.
         13    1    3    3    0    0  0.47226010341E+02  0.41133951819E+03  0.32522694204E+02  0.41531701256E+03  0.00000000000E+00 0. -1.
        -13    1    3    3    0    0  0.97231734924E+02  0.30191760535E+03 -0.14259002771E+02  0.31750837762E+03  0.00000000000E+00 0.  1.
         22    1    1    2    0    0 -0.14445774526E+03 -0.71325712354E+03  0.59689365265E+01  0.72776328064E+03  0.00000000000E+00 0. -1.
<mgrwt>
<rscale>  0 0.14603876E+04</rscale>
<asrwt>0</asrwt>
<pdfrwt beam="1">  1        2 0.11421702E+00 0.14603876E+04</pdfrwt>
<pdfrwt beam="2">  1       -2 0.11048893E+00 0.14603876E+04</pdfrwt>
<totfact> 0.23935233E+01</totfact>
</mgrwt>
</event>
<event>
 6    1  0.5026615E-004  0.6763413E+03  0.7818608E-02  0.9758570E-01
         -2   -1    0    0    0  501 -0.00000000000E+00  0.00000000000E+00  0.49104822813E+02  0.49104822813E+02  0.00000000000E+00 0. -1.
          2   -1    0    0  501    0  0.00000000000E+00 -0.00000000000E+00 -0.23288827936E+04  0.23288827936E+04  0.00000000000E+00 0.  1.
         23    2    1    2    0    0  0.16251278594E+03  0.53126601816E+02 -0.21617176130E+04  0.21702110790E+04  0.86949684333E+02 0.  0.
         11    1    3    3    0    0  0.56680634320E+02  0.55156600373E+02 -0.65035427350E+03  0.65514549982E+03  0.00000000000E+00 0.  1.
        -11    1    3    3    0    0  0.10583215162E+03 -0.20299985570E+01 -0.15113633395E+04  0.15150655792E+04  0.00000000000E+00 0. -1.
         22    1    1    2    0    0 -0.16251278594E+03 -0.53126601816E+02 -0.11806035774E+03  0.20777653738E+03  0.00000000000E+00 0. -1.
<mgrwt>
<rscale>  0 0.67634127E+03</rscale>
<asrwt>0</asrwt>
<pdfrwt beam="1">  1        2 0.35828960E+00 0.67634127E+03</pdfrwt>
<pdfrwt beam="2">  1       -2 0.75545893E-02 0.67634127E+03</pdfrwt>
<totfact> 0.48901632E+02</totfact>
</mgrwt>
</event>
<event>
 6    1  0.5339328E-004  0.3504309E+04  0.7818608E-02  0.8112769E-01
          2   -1    0    0  501    0  0.00000000000E+00  0.00000000000E+00  0.28294820451E+04  0.28294820451E+04  0.00000000000E+00 0.  1.
         -2   -1    0    0    0  501 -0.00000000000E+00 -0.00000000000E+00 -0.10850203614E+04  0.10850203614E+04  0.00000000000E+00 0. -1.
         23    2    1    2    0    0 -0.14068777544E+03  0.45223708145E+03 -0.10101959584E+04  0.11194263514E+04  0.91148526867E+02 0.  0.
         13    1    3    3    0    0 -0.68297821472E+02  0.24749130759E+03 -0.64946639437E+03  0.69837177575E+03  0.00000000000E+00 0. -1.
        -13    1    3    3    0    0 -0.72389953967E+02  0.20474577386E+03 -0.36072956403E+03  0.42105457570E+03  0.00000000000E+00 0.  1.
         22    1    1    2    0    0  0.14068777544E+03 -0.45223708145E+03  0.27546576421E+04  0.27950760550E+04  0.00000000000E+00 0.  1.
<mgrwt>
<rscale>  0 0.35043091E+04</rscale>
<asrwt>0</asrwt>
<pdfrwt beam="1">  1        2 0.43530493E+00 0.35043091E+04</pdfrwt>
<pdfrwt beam="2">  1       -2 0.16692621E+00 0.35043091E+04</pdfrwt>
<totfact> 0.40850270E-01</totfact>
</mgrwt>
</event>
<event>
 6    1  0.5026615E-004  0.1669956E+04  0.7818608E-02  0.8778688E-01
         -2   -1    0    0    0  501 -0.00000000000E+00  0.00000000000E+00  0.62642475436E+03  0.62642475436E+03  0.00000000000E+00 0. -1.
          2   -1    0    0  501    0  0.00000000000E+00 -0.00000000000E+00 -0.11129638692E+04  0.11129638692E+04  0.00000000000E+00 0.  1.
         23    2    1    2    0    0 -0.96452817618E+02 -0.56685100933E+03 -0.87107000082E+03  0.10476609206E+04  0.90593849048E+02 0.  0.
         13    1    3    3    0    0 -0.81340722049E+02 -0.24725641578E+03 -0.43252084214E+03  0.50480325583E+03  0.00000000000E+00 0. -1.
        -13    1    3    3    0    0 -0.15112095568E+02 -0.31959459354E+03 -0.43854915868E+03  0.54285766480E+03  0.00000000000E+00 0.  1.
         22    1    1    2    0    0  0.96452817618E+02  0.56685100933E+03  0.38453088595E+03  0.69172770297E+03  0.00000000000E+00 0. -1.
<mgrwt>
<rscale>  0 0.16699558E+04</rscale>
<asrwt>0</asrwt>
<pdfrwt beam="1">  1        2 0.17122521E+00 0.16699558E+04</pdfrwt>
<pdfrwt beam="2">  1       -2 0.96373040E-01 0.16699558E+04</pdfrwt>
<totfact> 0.18387970E+01</totfact>
</mgrwt>
</event>
<event>
 6    1  0.5026615E-004  0.1269963E+04  0.7818608E-02  0.9053730E-01
          2   -1    0    0  501    0  0.00000000000E+00  0.00000000000E+00  0.10083056574E+04  0.10083056574E+04  0.00000000000E+00 0.  1.
         -2   -1    0    0    0  501 -0.00000000000E+00 -0.00000000000E+00 -0.39988025018E+03  0.39988025018E+03  0.00000000000E+00 0. -1.
         23    2    1    2    0    0  0.30696583555E+03  0.10318382100E+03  0.90748486846E+03  0.96737814163E+03  0.86120597553E+02 0.  0.
         11    1    3    3    0    0  0.45511495000E+02  0.49846793347E+02  0.21064407086E+03  0.22119431180E+03  0.00000000000E+00 0.  1.
        -11    1    3    3    0    0  0.26145434055E+03  0.53337027654E+02  0.69684079759E+03  0.74618382983E+03  0.00000000000E+00 0. -1.
         22    1    1    2    0    0 -0.30696583555E+03 -0.10318382100E+03 -0.29905946127E+03  0.44080776591E+03  0.00000000000E+00 0. -1.
<mgrwt>
<rscale>  0 0.12699630E+04</rscale>
<asrwt>0</asrwt>
<pdfrwt beam="1">  1        2 0.15512395E+00 0.12699630E+04</pdfrwt>
<pdfrwt beam="2">  1       -2 0.61520039E-01 0.12699630E+04</pdfrwt>
<totfact> 0.60026851E+01</totfact>
</mgrwt>
</event>
<event>
 6    1  0.5026615E-004  0.1161364E+04  0.7818608E-02  0.9147363E-01
         -2   -1    0    0    0  501 -0.00000000000E+00  0.00000000000E+00  0.31596081266E+03  0.31596081266E+03  0.00000000000E+00 0. -1.
          2   -1    0    0  501    0  0.00000000000E+00 -0.00000000000E+00 -0.10671949016E+04  0.10671949016E+04  0.00000000000E+00 0.  1.
         23    2    1    2    0    0 -0.25426944416E+02  0.52534525745E+03 -0.66072259170E+03  0.84946432387E+03  0.91657652810E+02 0.  0.
         11    1    3    3    0    0  0.34381420816E+02  0.16493521107E+03 -0.20228207930E+03  0.26325604562E+03  0.00000000000E+00 0.  1.
        -11    1    3    3    0    0 -0.59808365232E+02  0.36041004638E+03 -0.45844051240E+03  0.58620827825E+03  0.00000000000E+00 0. -1.
         22    1    1    2    0    0  0.25426944416E+02 -0.52534525745E+03 -0.90511497224E+02  0.53369139037E+03  0.00000000000E+00 0. -1.
<mgrwt>
<rscale>  0 0.11613643E+04</rscale>
<asrwt>0</asrwt>
<pdfrwt beam="1">  1        2 0.16418383E+00 0.11613643E+04</pdfrwt>
<pdfrwt beam="2">  1       -2 0.48609355E-01 0.11613643E+04</pdfrwt>
<totfact> 0.90503319E+01</totfact>
</mgrwt>
</event>
<event>
 6    1  0.5026615E-004  0.5302555E+04  0.7818608E-02  0.7783458E-01
         -2   -1    0    0    0  501 -0.00000000000E+00  0.00000000000E+00  0.15324131616E+04  0.15324131616E+04  0.00000000000E+00 0. -1.
          2   -1    0    0  501    0  0.00000000000E+00 -0.00000000000E+00 -0.45870610070E+04  0.45870610070E+04  0.00000000000E+00 0.  1.
         23    2    1    2    0    0 -0.12645477485E+04 -0.16444309019E+04 -0.34319212123E+04  0.40110223213E+04  0.83563477815E+02 0.  0.
         13    1    3    3    0    0 -0.28229510011E+03 -0.39899347585E+03 -0.86673688627E+03  0.99504730910E+03  0.00000000000E+00 0.  1.
        -13    1    3    3    0    0 -0.98225264835E+03 -0.12454374260E+04 -0.25651843261E+04  0.30159750122E+04  0.00000000000E+00 0. -1.
         22    1    1    2    0    0  0.12645477485E+04  0.16444309019E+04  0.37727336693E+03  0.21084518473E+04  0.00000000000E+00 0. -1.
<mgrwt>
<rscale>  0 0.53025551E+04</rscale>
<asrwt>0</asrwt>
<pdfrwt beam="1">  1        2 0.70570169E+00 0.53025551E+04</pdfrwt>
<pdfrwt beam="2">  1       -2 0.23575587E+00 0.53025551E+04</pdfrwt>
<totfact> 0.55711378E-03</totfact>
</mgrwt>
</event>
<event>
 6    1  0.5026615E-004  0.3969264E+03  0.7818608E-02  0.1044849E+00
          1   -1    0    0  501    0  0.00000000000E+00  0.00000000000E+00  0.15304324888E+03  0.15304324888E+03  0.00000000000E+00 0.  1.
         -1   -1    0    0    0  501 -0.00000000000E+00 -0.00000000000E+00 -0.25736284285E+03  0.25736284285E+03  0.00000000000E+00 0. -1.
         23    2    1    2    0    0  0.16442218626E+03  0.21848668164E+02  0.37168490900E+02  0.19239027168E+03  0.90113818508E+02 0.  0.
         13    1    3    3    0    0 -0.18223684509E+01  0.21082747279E+02  0.11771853211E+02  0.24215280044E+02  0.00000000000E+00 0.  1.
        -13    1    3    3    0    0  0.16624455471E+03  0.76592088533E+00  0.25396637689E+02  0.16817499163E+03  0.00000000000E+00 0. -1.
         22    1    1    2    0    0 -0.16442218626E+03 -0.21848668164E+02 -0.14148808486E+03  0.21801582005E+03  0.00000000000E+00 0. -1.
<mgrwt>
<rscale>  0 0.39692642E+03</rscale>
<asrwt>0</asrwt>
<pdfrwt beam="1">  1        1 0.23545115E-01 0.39692642E+03</pdfrwt>
<pdfrwt beam="2">  1       -1 0.39594283E-01 0.39692642E+03</pdfrwt>
<totfact> 0.13057842E+03</totfact>
</mgrwt>
</event>
<event>
 6    1  0.5026615E-004  0.1572415E+04  0.7818608E-02  0.8837676E-01
         -2   -1    0    0    0  501 -0.00000000000E+00  0.00000000000E+00  0.35134052308E+03  0.35134052308E+03  0.00000000000E+00 0. -1.
          2   -1    0    0  501    0  0.00000000000E+00 -0.00000000000E+00 -0.17593252542E+04  0.17593252542E+04  0.00000000000E+00 0.  1.
         23    2    1    2    0    0 -0.31530343809E+03 -0.64541923611E+03 -0.29271703864E+03  0.78408963007E+03  0.11459072767E+03 0.  0.
         13    1    3    3    0    0 -0.11318003179E+03 -0.13417754367E+03 -0.45651822593E+02  0.18137646410E+03  0.00000000000E+00 0.  1.
        -13    1    3    3    0    0 -0.20212340629E+03 -0.51124169244E+03 -0.24706521604E+03  0.60271316598E+03  0.00000000000E+00 0. -1.
         22    1    1    2    0    0  0.31530343809E+03  0.64541923611E+03 -0.11152676925E+04  0.13265761472E+04  0.00000000000E+00 0.  1.
<mgrwt>
<rscale>  0 0.15724150E+04</rscale>
<asrwt>0</asrwt>
<pdfrwt beam="1">  1        2 0.27066542E+00 0.15724150E+04</pdfrwt>
<pdfrwt beam="2">  1       -2 0.54052389E-01 0.15724150E+04</pdfrwt>
<totfact> 0.28151668E+01</totfact>
</mgrwt>
</event>
<event>
 6    1  0.5026615E-004  0.4349889E+04  0.7818608E-02  0.7937457E-01
          2   -1    0    0  501    0  0.00000000000E+00  0.00000000000E+00  0.31030381899E+04  0.31030381899E+04  0.00000000000E+00 0.  1.
         -2   -1    0    0    0  501 -0.00000000000E+00 -0.00000000000E+00 -0.15244360319E+04  0.15244360319E+04  0.00000000000E+00 0. -1.
         23    2    1    2    0    0 -0.11399243636E+04 -0.12088282112E+04 -0.70177079000E+03  0.18059863199E+04  0.91712307124E+02 0.  0.
         13    1    3    3    0    0 -0.16286186751E+03 -0.21809038386E+03 -0.10038681530E+03  0.29011190273E+03  0.00000000000E+00 0. -1.
        -13    1    3    3    0    0 -0.97706249606E+03 -0.99073782730E+03 -0.60138397470E+03  0.15158744172E+04  0.00000000000E+00 0.  1.
         22    1    1    2    0    0  0.11399243636E+04  0.12088282112E+04  0.22803729479E+04  0.28214879019E+04  0.00000000000E+00 0.  1.
<mgrwt>
<rscale>  0 0.43498888E+04</rscale>
<asrwt>0</asrwt>
<pdfrwt beam="1">  1        2 0.47739049E+00 0.43498888E+04</pdfrwt>
<pdfrwt beam="2">  1       -2 0.23452862E+00 0.43498888E+04</pdfrwt>
<totfact> 0.91970756E-02</totfact>
</mgrwt>
</event>
<event>
 6    1  0.5026615E-004  0.2530604E+04  0.7818608E-02  0.8392163E-01
         -2   -1    0    0    0  501 -0.00000000000E+00  0.00000000000E+00  0.48820275535E+03  0.48820275535E+03  0.00000000000E+00 0. -1.
          2   -1    0    0  501    0  0.00000000000E+00 -0.00000000000E+00 -0.32793541080E+04  0.32793541080E+04  0.00000000000E+00 0.  1.
         23    2    1    2    0    0  0.50557724490E+03  0.91443028815E+03 -0.33985569605E+03  0.11028539721E+04  0.94836107217E+02 0.  0.
         11    1    3    3    0    0  0.33170099438E+03  0.56035577670E+03 -0.25529662324E+03  0.69942870401E+03  0.00000000000E+00 0.  1.
        -11    1    3    3    0    0  0.17387625051E+03  0.35407451145E+03 -0.84559072804E+02  0.40342526811E+03  0.00000000000E+00 0. -1.
         22    1    1    2    0    0 -0.50557724490E+03 -0.91443028815E+03 -0.24512956566E+04  0.26647028912E+04  0.00000000000E+00 0.  1.
<mgrwt>
<rscale>  0 0.25306044E+04</rscale>
<asrwt>0</asrwt>
<pdfrwt beam="1">  1        2 0.50451602E+00 0.25306044E+04</pdfrwt>
<pdfrwt beam="2">  1       -2 0.75108116E-01 0.25306044E+04</pdfrwt>
<totfact> 0.16289140E+00</totfact>
</mgrwt>
</event>
<event>
 6    1  0.5026615E-004  0.4299798E+04  0.7818608E-02  0.7946655E-01
          2   -1    0    0  501    0  0.00000000000E+00  0.00000000000E+00  0.21137349203E+04  0.21137349203E+04  0.00000000000E+00 0.  1.
         -2   -1    0    0    0  501 -0.00000000000E+00 -0.00000000000E+00 -0.21866816429E+04  0.21866816429E+04  0.00000000000E+00 0. -1.
         23    2    1    2    0    0 -0.72323499096E+03  0.82130369075E+03 -0.18861354562E+04  0.21825728513E+04  0.92242546987E+02 0.  0.
         11    1    3    3    0    0 -0.13064562929E+03  0.20630588569E+03 -0.41874259979E+03  0.48474298736E+03  0.00000000000E+00 0.  1.
        -11    1    3    3    0    0 -0.59258936166E+03  0.61499780506E+03 -0.14673928564E+04  0.16978298639E+04  0.00000000000E+00 0. -1.
         22    1    1    2    0    0  0.72323499096E+03 -0.82130369075E+03  0.18131887335E+04  0.21178437119E+04  0.00000000000E+00 0.  1.
<mgrwt>
<rscale>  0 0.42997978E+04</rscale>
<asrwt>0</asrwt>
<pdfrwt beam="1">  1        2 0.32518999E+00 0.42997978E+04</pdfrwt>
<pdfrwt beam="2">  1       -2 0.33641256E+00 0.42997978E+04</pdfrwt>
<totfact> 0.84163102E-02</totfact>
</mgrwt>
</event>
<event>
 6    1  0.5026615E-004  0.1821270E+04  0.7818608E-02  0.8695070E-01
         -2   -1    0    0    0  501 -0.00000000000E+00  0.00000000000E+00  0.79255516967E+03  0.79255516967E+03  0.00000000000E+00 0. -1.
          2   -1    0    0  501    0  0.00000000000E+00 -0.00000000000E+00 -0.10463067184E+04  0.10463067184E+04  0.00000000000E+00 0.  1.
         23    2    1    2    0    0 -0.13955087453E+03 -0.78439446444E+03  0.31323024572E+03  0.86099815641E+03  0.91953880246E+02 0.  0.
         13    1    3    3    0    0  0.10210810882E+02 -0.13646773189E+03  0.47403853044E+02  0.14482688904E+03  0.00000000000E+00 0. -1.
        -13    1    3    3    0    0 -0.14976168541E+03 -0.64792673255E+03  0.26582639268E+03  0.71617126738E+03  0.00000000000E+00 0.  1.
         22    1    1    2    0    0  0.13955087453E+03  0.78439446444E+03 -0.56698179444E+03  0.97786373163E+03  0.00000000000E+00 0.  1.
<mgrwt>
<rscale>  0 0.18212697E+04</rscale>
<asrwt>0</asrwt>
<pdfrwt beam="1">  1        2 0.16097026E+00 0.18212697E+04</pdfrwt>
<pdfrwt beam="2">  1       -2 0.12193156E+00 0.18212697E+04</pdfrwt>
<totfact> 0.11319090E+01</totfact>
</mgrwt>
</event>
<event>
 6    1  0.5026615E-004  0.3498366E+04  0.7818608E-02  0.8114177E-01
          2   -1    0    0  501    0  0.00000000000E+00  0.00000000000E+00  0.19021252697E+04  0.19021252697E+04  0.00000000000E+00 0.  1.
         -2   -1    0    0    0  501 -0.00000000000E+00 -0.00000000000E+00 -0.16085384729E+04  0.16085384729E+04  0.00000000000E+00 0. -1.
         23    2    1    2    0    0  0.28080266628E+02 -0.13880764478E+04  0.12125626701E+04  0.18457128778E+04  0.93824687645E+02 0.  0.
         13    1    3    3    0    0  0.52783871831E+02 -0.84757648205E+03  0.70237061439E+03  0.11020419729E+04  0.00000000000E+00 0. -1.
        -13    1    3    3    0    0 -0.24703605203E+02 -0.54049996573E+03  0.51019205575E+03  0.74367090491E+03  0.00000000000E+00 0.  1.
         22    1    1    2    0    0 -0.28080266628E+02  0.13880764478E+04 -0.91897587332E+03  0.16649508647E+04  0.00000000000E+00 0. -1.
<mgrwt>
<rscale>  0 0.34983663E+04</rscale>
<asrwt>0</asrwt>
<pdfrwt beam="1">  1        2 0.29263466E+00 0.34983663E+04</pdfrwt>
<pdfrwt beam="2">  1       -2 0.24746746E+00 0.34983663E+04</pdfrwt>
<totfact> 0.41458968E-01</totfact>
</mgrwt>
</event>
<event>
 6    1  0.5026615E-004  0.1934620E+04  0.7818608E-02  0.8637813E-01
          2   -1    0    0  501    0  0.00000000000E+00  0.00000000000E+00  0.27465541988E+04  0.27465541988E+04  0.00000000000E+00 0.  1.
         -2   -1    0    0    0  501 -0.00000000000E+00 -0.00000000000E+00 -0.34067734425E+03  0.34067734425E+03  0.00000000000E+00 0. -1.
         23    2    1    2    0    0  0.20809435885E+01 -0.51620704967E+03 -0.95365892089E+02  0.53327591970E+03  0.93885593696E+02 0.  0.
         13    1    3    3    0    0 -0.10094670525E+02 -0.32054136540E+03 -0.13965858687E+02  0.32100422819E+03  0.00000000000E+00 0.  1.
        -13    1    3    3    0    0  0.12175614113E+02 -0.19566568426E+03 -0.81400033402E+02  0.21227169151E+03  0.00000000000E+00 0. -1.
         22    1    1    2    0    0 -0.20809435885E+01  0.51620704967E+03  0.25012427467E+04  0.25539556234E+04  0.00000000000E+00 0.  1.
<mgrwt>
<rscale>  0 0.19346202E+04</rscale>
<asrwt>0</asrwt>
<pdfrwt beam="1">  1        2 0.42254679E+00 0.19346202E+04</pdfrwt>
<pdfrwt beam="2">  1       -2 0.52411901E-01 0.19346202E+04</pdfrwt>
<totfact> 0.80039467E+00</totfact>
</mgrwt>
</event>
<event>
 6    1  0.5026615E-004  0.2279853E+04  0.7818608E-02  0.8485908E-01
         -2   -1    0    0    0  501 -0.00000000000E+00  0.00000000000E+00  0.53551718828E+03  0.53551718828E+03  0.00000000000E+00 0. -1.
          2   -1    0    0  501    0  0.00000000000E+00 -0.00000000000E+00 -0.24264992918E+04  0.24264992918E+04  0.00000000000E+00 0.  1.
         23    2    1    2    0    0 -0.24279919900E+03  0.62738427065E+03 -0.21396889437E+04  0.22447873909E+04  0.90769929424E+02 0.  0.
         13    1    3    3    0    0 -0.88736202545E+02  0.18545302031E+03 -0.53132336576E+03  0.56971173008E+03  0.00000000000E+00 0. -1.
        -13    1    3    3    0    0 -0.15406299645E+03  0.44193125034E+03 -0.16083655780E+04  0.16750756608E+04  0.00000000000E+00 0.  1.
         22    1    1    2    0    0  0.24279919900E+03 -0.62738427065E+03  0.24870684020E+03  0.71722908924E+03  0.00000000000E+00 0. -1.
<mgrwt>
<rscale>  0 0.22798527E+04</rscale>
<asrwt>0</asrwt>
<pdfrwt beam="1">  1        2 0.37330758E+00 0.22798527E+04</pdfrwt>
<pdfrwt beam="2">  1       -2 0.82387259E-01 0.22798527E+04</pdfrwt>
<totfact> 0.45086037E+00</totfact>
</mgrwt>
</event>
<event>
 6    1  0.5026615E-004  0.1328266E+04  0.7818608E-02  0.9007445E-01
         -2   -1    0    0    0  501 -0.00000000000E+00  0.00000000000E+00  0.38991550202E+03  0.38991550202E+03  0.00000000000E+00 0.  1.
          2   -1    0    0  501    0  0.00000000000E+00 -0.00000000000E+00 -0.11312013280E+04  0.11312013280E+04  0.00000000000E+00 0. -1.
         23    2    1    2    0    0  0.17016531074E+03  0.59046138855E+03 -0.93535302804E+02  0.62826654884E+03  0.91482890069E+02 0.  0.
         13    1    3    3    0    0  0.89874907922E+01  0.18086040840E+03 -0.25692081316E+02  0.18289708953E+03  0.00000000000E+00 0.  1.
        -13    1    3    3    0    0  0.16117781995E+03  0.40960098015E+03 -0.67843221488E+02  0.44536945931E+03  0.00000000000E+00 0. -1.
         22    1    1    2    0    0 -0.17016531074E+03 -0.59046138855E+03 -0.64775052322E+03  0.89285028122E+03  0.00000000000E+00 0. -1.
<mgrwt>
<rscale>  0 0.13282664E+04</rscale>
<asrwt>0</asrwt>
<pdfrwt beam="1">  1        2 0.17403097E+00 0.13282664E+04</pdfrwt>
<pdfrwt beam="2">  1       -2 0.59987000E-01 0.13282664E+04</pdfrwt>
<totfact> 0.52839649E+01</totfact>
</mgrwt>
</event>
<event>
 6    1  0.5026615E-004  0.2563443E+04  0.7818608E-02  0.8380726E-01
         -2   -1    0    0    0  501 -0.00000000000E+00  0.00000000000E+00  0.63735700871E+03  0.63735700871E+03  0.00000000000E+00 0. -1.
          2   -1    0    0  501    0  0.00000000000E+00 -0.00000000000E+00 -0.25775355148E+04  0.25775355148E+04  0.00000000000E+00 0.  1.
         23    2    1    2    0    0 -0.81007576281E+03  0.94926765914E+01 -0.22142418487E+04  0.23596594745E+04  0.93877680471E+02 0.  0.
         13    1    3    3    0    0 -0.30285708908E+03  0.30501321043E+02 -0.72648482050E+03  0.78767565749E+03  0.00000000000E+00 0. -1.
        -13    1    3    3    0    0 -0.50721867372E+03 -0.21008644451E+02 -0.14877570282E+04  0.15719838170E+04  0.00000000000E+00 0.  1.
         22    1    1    2    0    0  0.81007576281E+03 -0.94926765914E+01  0.27406334256E+03  0.85523304901E+03  0.00000000000E+00 0. -1.
<mgrwt>
<rscale>  0 0.25634433E+04</rscale>
<asrwt>0</asrwt>
<pdfrwt beam="1">  1        2 0.39654392E+00 0.25634433E+04</pdfrwt>
<pdfrwt beam="2">  1       -2 0.98054926E-01 0.25634433E+04</pdfrwt>
<totfact> 0.24077429E+00</totfact>
</mgrwt>
</event>
<event>
 6    1  0.5026615E-004  0.8426349E+03  0.7818608E-02  0.9500276E-01
         -2   -1    0    0    0  501 -0.00000000000E+00  0.00000000000E+00  0.97781075367E+03  0.97781075367E+03  0.00000000000E+00 0. -1.
          2   -1    0    0  501    0  0.00000000000E+00 -0.00000000000E+00 -0.18153656157E+03  0.18153656157E+03  0.00000000000E+00 0.  1.
         23    2    1    2    0    0 -0.82240081415E+01 -0.32085295056E+03  0.76791477916E+03  0.83713852192E+03  0.89964140883E+02 0.  0.
         11    1    3    3    0    0  0.34231891309E+02 -0.73841906143E+02  0.15789986468E+03  0.17764238444E+03  0.00000000000E+00 0.  1.
        -11    1    3    3    0    0 -0.42455899451E+02 -0.24701104442E+03  0.61001491448E+03  0.65949613748E+03  0.00000000000E+00 0. -1.
         22    1    1    2    0    0  0.82240081415E+01  0.32085295056E+03  0.28359412942E+02  0.32220879332E+03  0.00000000000E+00 0. -1.
<mgrwt>
<rscale>  0 0.84263492E+03</rscale>
<asrwt>0</asrwt>
<pdfrwt beam="1">  1        2 0.27928702E-01 0.84263492E+03</pdfrwt>
<pdfrwt beam="2">  1       -2 0.15043242E+00 0.84263492E+03</pdfrwt>
<totfact> 0.57755506E+01</totfact>
</mgrwt>
</event>
<event>
 6    1  0.5026615E-004  0.2592727E+04  0.7818608E-02  0.8370676E-01
          2   -1    0    0  501    0  0.00000000000E+00  0.00000000000E+00  0.29011469685E+04  0.29011469685E+04  0.00000000000E+00 0.  1.
         -2   -1    0    0    0  501 -0.00000000000E+00 -0.00000000000E+00 -0.57927385098E+03  0.57927385098E+03  0.00000000000E+00 0. -1.
         23    2    1    2    0    0  0.13179116371E+03  0.27376975995E+03  0.28519148281E+04  0.28694682786E+04  0.90062328625E+02 0.  0.
         11    1    3    3    0    0  0.31445433843E+02  0.16855262567E+03  0.15177072787E+04  0.15273618388E+04  0.00000000000E+00 0.  1.
        -11    1    3    3    0    0  0.10034572986E+03  0.10521713428E+03  0.13342075494E+04  0.13421064398E+04  0.00000000000E+00 0. -1.
         22    1    1    2    0    0 -0.13179116371E+03 -0.27376975995E+03 -0.53004171055E+03  0.61095254089E+03  0.00000000000E+00 0. -1.
<mgrwt>
<rscale>  0 0.25927272E+04</rscale>
<asrwt>0</asrwt>
<pdfrwt beam="1">  1        2 0.44633029E+00 0.25927272E+04</pdfrwt>
<pdfrwt beam="2">  1       -2 0.89119056E-01 0.25927272E+04</pdfrwt>
<totfact> 0.19189639E+00</totfact>
</mgrwt>
</event>
<event>
 6    1  0.5026615E-004  0.4688106E+04  0.7818608E-02  0.7878508E-01
          2   -1    0    0  501    0  0.00000000000E+00  0.00000000000E+00  0.38100026313E+04  0.38100026313E+04  0.00000000000E+00 0.  1.
         -2   -1    0    0    0  501 -0.00000000000E+00 -0.00000000000E+00 -0.14421471787E+04  0.14421471787E+04  0.00000000000E+00 0. -1.
         23    2    1    2    0    0  0.20456555288E+04 -0.88698242720E+03  0.37727791407E+03  0.22631962632E+04  0.90963358004E+02 0.  0.
         13    1    3    3    0    0  0.12694960647E+04 -0.50399949078E+03  0.24329870521E+03  0.13873824292E+04  0.00000000000E+00 0. -1.
        -13    1    3    3    0    0  0.77615946413E+03 -0.38298293642E+03  0.13397920886E+03  0.87581383396E+03  0.00000000000E+00 0.  1.
         22    1    1    2    0    0 -0.20456555288E+04  0.88698242720E+03  0.19905775385E+04  0.29889535469E+04  0.00000000000E+00 0.  1.
<mgrwt>
<rscale>  0 0.46881060E+04</rscale>
<asrwt>0</asrwt>
<pdfrwt beam="1">  1        2 0.58615425E+00 0.46881060E+04</pdfrwt>
<pdfrwt beam="2">  1       -2 0.22186880E+00 0.46881060E+04</pdfrwt>
<totfact> 0.34523248E-02</totfact>
</mgrwt>
</event>
<event>
 6    1  0.5026615E-004  0.6568649E+03  0.7818608E-02  0.9793982E-01
          2   -1    0    0  501    0  0.00000000000E+00  0.00000000000E+00  0.13452835400E+03  0.13452835400E+03  0.00000000000E+00 0.  1.
         -2   -1    0    0    0  501 -0.00000000000E+00 -0.00000000000E+00 -0.80182254302E+03  0.80182254302E+03  0.00000000000E+00 0. -1.
         23    2    1    2    0    0  0.91394242872E+02 -0.30242709722E+03 -0.42876667393E+03  0.54048421212E+03  0.92017748899E+02 0.  0.
         13    1    3    3    0    0  0.10572458355E+03 -0.20596662728E+03 -0.29850995671E+03  0.37776730056E+03  0.00000000000E+00 0.  1.
        -13    1    3    3    0    0 -0.14330340677E+02 -0.96460469940E+02 -0.13025671722E+03  0.16271691156E+03  0.00000000000E+00 0. -1.
         22    1    1    2    0    0 -0.91394242872E+02  0.30242709722E+03 -0.23852751508E+03  0.39586668490E+03  0.00000000000E+00 0. -1.
<mgrwt>
<rscale>  0 0.65686488E+03</rscale>
<asrwt>0</asrwt>
<pdfrwt beam="1">  1        2 0.20696670E-01 0.65686488E+03</pdfrwt>
<pdfrwt beam="2">  1       -2 0.12335731E+00 0.65686488E+03</pdfrwt>
<totfact> 0.13697687E+02</totfact>
</mgrwt>
</event>
<event>
 6    1  0.5026615E-004  0.3297248E+04  0.7818608E-02  0.8163596E-01
          2   -1    0    0  501    0  0.00000000000E+00  0.00000000000E+00  0.36281400699E+04  0.36281400699E+04  0.00000000000E+00 0.  1.
         -2   -1    0    0    0  501 -0.00000000000E+00 -0.00000000000E+00 -0.74913335537E+03  0.74913335537E+03  0.00000000000E+00 0. -1.
         23    2    1    2    0    0 -0.10725106990E+04 -0.71837848665E+03  0.27992814587E+04  0.30839432408E+04  0.91555329921E+02 0.  0.
         11    1    3    3    0    0 -0.57466622476E+03 -0.42642323502E+03  0.14784448756E+04  0.16425216270E+04  0.00000000000E+00 0. -1.
        -11    1    3    3    0    0 -0.49784447420E+03 -0.29195525163E+03  0.13208365831E+04  0.14414216138E+04  0.00000000000E+00 0.  1.
         22    1    1    2    0    0  0.10725106990E+04  0.71837848665E+03  0.79725255837E+02  0.12933301844E+04  0.00000000000E+00 0. -1.
<mgrwt>
<rscale>  0 0.32972478E+04</rscale>
<asrwt>0</asrwt>
<pdfrwt beam="1">  1        2 0.55817538E+00 0.32972478E+04</pdfrwt>
<pdfrwt beam="2">  1       -2 0.11525129E+00 0.32972478E+04</pdfrwt>
<totfact> 0.32230018E-01</totfact>
</mgrwt>
</event>
<event>
 6    1  0.5026615E-004  0.1975429E+04  0.7818608E-02  0.8618195E-01
         -2   -1    0    0    0  501 -0.00000000000E+00  0.00000000000E+00  0.40544642248E+03  0.40544642248E+03  0.00000000000E+00 0. -1.
          2   -1    0    0  501    0  0.00000000000E+00 -0.00000000000E+00 -0.24061878902E+04  0.24061878902E+04  0.00000000000E+00 0.  1.
         23    2    1    2    0    0  0.22471623253E+03 -0.25269345635E+03 -0.23201614800E+04  0.23464671252E+04  0.91691373835E+02 0.  0.
         13    1    3    3    0    0  0.28764064899E+02 -0.43018038582E+02 -0.62927146046E+03  0.63139567153E+03  0.00000000000E+00 0.  1.
        -13    1    3    3    0    0  0.19595216763E+03 -0.20967541777E+03 -0.16908900196E+04  0.17150714536E+04  0.00000000000E+00 0. -1.
         22    1    1    2    0    0 -0.22471623253E+03  0.25269345635E+03  0.31942001232E+03  0.46516718749E+03  0.00000000000E+00 0. -1.
<mgrwt>
<rscale>  0 0.19754293E+04</rscale>
<asrwt>0</asrwt>
<pdfrwt beam="1">  1        2 0.37018275E+00 0.19754293E+04</pdfrwt>
<pdfrwt beam="2">  1       -2 0.62376373E-01 0.19754293E+04</pdfrwt>
<totfact> 0.87569108E+00</totfact>
</mgrwt>
</event>
<event>
 6    1  0.5026615E-004  0.1568506E+04  0.7818608E-02  0.8840133E-01
          2   -1    0    0  501    0  0.00000000000E+00  0.00000000000E+00  0.16692086387E+04  0.16692086387E+04  0.00000000000E+00 0. -1.
         -2   -1    0    0    0  501 -0.00000000000E+00 -0.00000000000E+00 -0.36846990758E+03  0.36846990758E+03  0.00000000000E+00 0.  1.
         23    2    1    2    0    0 -0.36454704929E+03  0.26386373954E+03 -0.17784296573E+03  0.49212930460E+03  0.89691180168E+02 0.  0.
         11    1    3    3    0    0 -0.17470898055E+03  0.90490311835E+02 -0.11335908692E+03  0.22707269102E+03  0.00000000000E+00 0.  1.
        -11    1    3    3    0    0 -0.18983806875E+03  0.17337342770E+03 -0.64483878810E+02  0.26505661359E+03  0.00000000000E+00 0. -1.
         22    1    1    2    0    0  0.36454704929E+03 -0.26386373954E+03  0.14785816968E+04  0.15455492417E+04  0.00000000000E+00 0. -1.
<mgrwt>
<rscale>  0 0.15685065E+04</rscale>
<asrwt>0</asrwt>
<pdfrwt beam="1">  1        2 0.25680133E+00 0.15685065E+04</pdfrwt>
<pdfrwt beam="2">  1       -2 0.56687679E-01 0.15685065E+04</pdfrwt>
<totfact> 0.28619879E+01</totfact>
</mgrwt>
</event>
<event>
 6    1  0.5026615E-004  0.4188530E+04  0.7818608E-02  0.7967558E-01
          2   -1    0    0  501    0  0.00000000000E+00  0.00000000000E+00  0.38872160217E+04  0.38872160217E+04  0.00000000000E+00 0.  1.
         -2   -1    0    0    0  501 -0.00000000000E+00 -0.00000000000E+00 -0.11282998611E+04  0.11282998611E+04  0.00000000000E+00 0. -1.
         23    2    1    2    0    0  0.24633500930E+03  0.84069071481E+03  0.36566077619E+04  0.37612065008E+04  0.91935859706E+02 0.  0.
         11    1    3    3    0    0  0.22089077667E+03  0.64253298192E+03  0.27263809869E+04  0.28097677224E+04  0.00000000000E+00 0.  1.
        -11    1    3    3    0    0  0.25444232624E+02  0.19815773289E+03  0.93022677504E+03  0.95143877842E+03  0.00000000000E+00 0. -1.
         22    1    1    2    0    0 -0.24633500930E+03 -0.84069071481E+03 -0.89769160130E+03  0.12543093820E+04  0.00000000000E+00 0. -1.
<mgrwt>
<rscale>  0 0.41885297E+04</rscale>
<asrwt>0</asrwt>
<pdfrwt beam="1">  1        2 0.59803323E+00 0.41885297E+04</pdfrwt>
<pdfrwt beam="2">  1       -2 0.17358460E+00 0.41885297E+04</pdfrwt>
<totfact> 0.65489538E-02</totfact>
</mgrwt>
</event>
<event>
 6    1  0.5026615E-004  0.3692550E+04  0.7818608E-02  0.8069615E-01
          2   -1    0    0  501    0  0.00000000000E+00  0.00000000000E+00  0.15008220717E+04  0.15008220717E+04  0.00000000000E+00 0.  1.
         -2   -1    0    0    0  501 -0.00000000000E+00 -0.00000000000E+00 -0.22712429095E+04  0.22712429095E+04  0.00000000000E+00 0. -1.
         23    2    1    2    0    0  0.10425434337E+04  0.71172405500E+03 -0.17601752793E+04  0.21679883633E+04  0.92242008067E+02 0.  0.
         13    1    3    3    0    0  0.20584020390E+03  0.18579946763E+03 -0.39837779055E+03  0.48538283418E+03  0.00000000000E+00 0. -1.
        -13    1    3    3    0    0  0.83670322976E+03  0.52592458738E+03 -0.13617974888E+04  0.16826055292E+04  0.00000000000E+00 0.  1.
         22    1    1    2    0    0 -0.10425434337E+04 -0.71172405500E+03  0.98975444146E+03  0.16040766178E+04  0.00000000000E+00 0.  1.
<mgrwt>
<rscale>  0 0.36925501E+04</rscale>
<asrwt>0</asrwt>
<pdfrwt beam="1">  1        2 0.23089570E+00 0.36925501E+04</pdfrwt>
<pdfrwt beam="2">  1       -2 0.34942199E+00 0.36925501E+04</pdfrwt>
<totfact> 0.16086278E-01</totfact>
</mgrwt>
</event>
<event>
 6    1  0.5026615E-004  0.2402664E+04  0.7818608E-02  0.8438507E-01
          2   -1    0    0  501    0  0.00000000000E+00  0.00000000000E+00  0.11331310370E+04  0.11331310370E+04  0.00000000000E+00 0.  1.
         -2   -1    0    0    0  501 -0.00000000000E+00 -0.00000000000E+00 -0.12736383471E+04  0.12736383471E+04  0.00000000000E+00 0. -1.
         23    2    1    2    0    0 -0.21956796065E+02 -0.11630993487E+04  0.22327622388E+03  0.11879089920E+04  0.89405286120E+02 0.  0.
         11    1    3    3    0    0 -0.13170943016E+02 -0.77375797044E+02  0.35033394713E+02  0.85952466243E+02  0.00000000000E+00 0. -1.
        -11    1    3    3    0    0 -0.87858530495E+01 -0.10857235517E+04  0.18824282916E+03  0.11019565257E+04  0.00000000000E+00 0.  1.
         22    1    1    2    0    0  0.21956796065E+02  0.11630993487E+04 -0.36378353403E+03  0.12188603921E+04  0.00000000000E+00 0.  1.
<mgrwt>
<rscale>  0 0.24026645E+04</rscale>
<asrwt>0</asrwt>
<pdfrwt beam="1">  1        2 0.17432785E+00 0.24026645E+04</pdfrwt>
<pdfrwt beam="2">  1       -2 0.19594436E+00 0.24026645E+04</pdfrwt>
<totfact> 0.26436145E+00</totfact>
</mgrwt>
</event>
<event>
 6    1  0.5026615E-004  0.1467782E+04  0.7818608E-02  0.8906165E-01
         -2   -1    0    0    0  501 -0.00000000000E+00  0.00000000000E+00  0.17753896096E+04  0.17753896096E+04  0.00000000000E+00 0. -1.
          2   -1    0    0  501    0  0.00000000000E+00 -0.00000000000E+00 -0.30336764234E+03  0.30336764234E+03  0.00000000000E+00 0.  1.
         23    2    1    2    0    0  0.20973538371E+03  0.46007449137E+03 -0.91746336406E+01  0.51363718010E+03  0.89897219599E+02 0.  0.
         11    1    3    3    0    0  0.14282939629E+03  0.35956736074E+03  0.26312738140E+02  0.38779025715E+03  0.00000000000E+00 0.  1.
        -11    1    3    3    0    0  0.66905987419E+02  0.10050713063E+03 -0.35487371780E+02  0.12584692295E+03  0.00000000000E+00 0. -1.
         22    1    1    2    0    0 -0.20973538371E+03 -0.46007449137E+03  0.14811966009E+04  0.15651200719E+04  0.00000000000E+00 0. -1.
<mgrwt>
<rscale>  0 0.14677817E+04</rscale>
<asrwt>0</asrwt>
<pdfrwt beam="1">  1        2 0.46671946E-01 0.14677817E+04</pdfrwt>
<pdfrwt beam="2">  1       -2 0.27313686E+00 0.14677817E+04</pdfrwt>
<totfact> 0.48807446E+00</totfact>
</mgrwt>
</event>
<event>
 6    1  0.5026615E-004  0.4343593E+04  0.7818608E-02  0.7938606E-01
         -2   -1    0    0    0  501 -0.00000000000E+00  0.00000000000E+00  0.30303501554E+04  0.30303501554E+04  0.00000000000E+00 0. -1.
          2   -1    0    0  501    0  0.00000000000E+00 -0.00000000000E+00 -0.15564868797E+04  0.15564868797E+04  0.00000000000E+00 0.  1.
         23    2    1    2    0    0  0.12897531408E+04  0.10895689319E+03  0.25776472038E+04  0.28857568698E+04  0.89402659133E+02 0.  0.
         11    1    3    3    0    0  0.87137540171E+03  0.79130846421E+02  0.18325543620E+04  0.20307171815E+04  0.00000000000E+00 0.  1.
        -11    1    3    3    0    0  0.41837773909E+03  0.29826046770E+02  0.74509284178E+03  0.85503968827E+03  0.00000000000E+00 0. -1.
         22    1    1    2    0    0 -0.12897531408E+04 -0.10895689319E+03 -0.11037839281E+04  0.17010801653E+04  0.00000000000E+00 0.  1.
<mgrwt>
<rscale>  0 0.43435931E+04</rscale>
<asrwt>0</asrwt>
<pdfrwt beam="1">  1        2 0.23945952E+00 0.43435931E+04</pdfrwt>
<pdfrwt beam="2">  1       -2 0.46620772E+00 0.43435931E+04</pdfrwt>
<totfact> 0.24609826E-02</totfact>
</mgrwt>
</event>
<event>
 6    1  0.5026615E-004  0.2817647E+04  0.7818608E-02  0.8297810E-01
          2   -1    0    0  501    0  0.00000000000E+00  0.00000000000E+00  0.21800478645E+04  0.21800478645E+04  0.00000000000E+00 0.  1.
         -2   -1    0    0    0  501 -0.00000000000E+00 -0.00000000000E+00 -0.91043135808E+03  0.91043135808E+03  0.00000000000E+00 0. -1.
         23    2    1    2    0    0 -0.66006682482E+03  0.11156116120E+04  0.12366245308E+04  0.17938042624E+04  0.90642260979E+02 0.  0.
         13    1    3    3    0    0 -0.64064465966E+02  0.16978761983E+03  0.17135278367E+03  0.24958739575E+03  0.00000000000E+00 0. -1.
        -13    1    3    3    0    0 -0.59600235886E+03  0.94582399218E+03  0.10652717471E+04  0.15442168666E+04  0.00000000000E+00 0.  1.
         22    1    1    2    0    0  0.66006682482E+03 -0.11156116120E+04  0.32991975661E+02  0.12966749603E+04  0.00000000000E+00 0. -1.
<mgrwt>
<rscale>  0 0.28176472E+04</rscale>
<asrwt>0</asrwt>
<pdfrwt beam="1">  1        2 0.33539198E+00 0.28176472E+04</pdfrwt>
<pdfrwt beam="2">  1       -2 0.14006636E+00 0.28176472E+04</pdfrwt>
<totfact> 0.16516007E+00</totfact>
</mgrwt>
</event>
<event>
 6    1  0.5026615E-004  0.1772307E+04  0.7818608E-02  0.8721167E-01
         -1   -1    0    0    0  501 -0.00000000000E+00  0.00000000000E+00  0.12955358217E+04  0.12955358217E+04  0.00000000000E+00 0.  1.
          1   -1    0    0  501    0  0.00000000000E+00 -0.00000000000E+00 -0.60613361915E+03  0.60613361915E+03  0.00000000000E+00 0. -1.
         23    2    1    2    0    0  0.14222172885E+03  0.73853688584E+03 -0.15277106078E+03  0.77254608294E+03  0.88457341988E+02 0.  0.
         13    1    3    3    0    0  0.13434207288E+03  0.48588594933E+03 -0.89876559353E+02  0.51206517576E+03  0.00000000000E+00 0.  1.
        -13    1    3    3    0    0  0.78796559721E+01  0.25265093650E+03 -0.62894501425E+02  0.26048090718E+03  0.00000000000E+00 0. -1.
         22    1    1    2    0    0 -0.14222172885E+03 -0.73853688584E+03  0.84217326334E+03  0.11291233579E+04  0.00000000000E+00 0.  1.
<mgrwt>
<rscale>  0 0.17723068E+04</rscale>
<asrwt>0</asrwt>
<pdfrwt beam="1">  1        1 0.93251327E-01 0.17723068E+04</pdfrwt>
<pdfrwt beam="2">  1       -1 0.19931320E+00 0.17723068E+04</pdfrwt>
<totfact> 0.48558327E+00</totfact>
</mgrwt>
</event>
<event>
 6    1  0.5026615E-004  0.3201909E+04  0.7818608E-02  0.8188313E-01
         -2   -1    0    0    0  501 -0.00000000000E+00  0.00000000000E+00  0.14178653131E+04  0.14178653131E+04  0.00000000000E+00 0. -1.
          2   -1    0    0  501    0  0.00000000000E+00 -0.00000000000E+00 -0.18076856192E+04  0.18076856192E+04  0.00000000000E+00 0.  1.
         23    2    1    2    0    0 -0.71723877825E+03  0.11498560406E+03 -0.16310823206E+04  0.17873629951E+04  0.81140530288E+02 0.  0.
         13    1    3    3    0    0 -0.69101991744E+03  0.96720472196E+02 -0.15360377073E+04  0.16870907546E+04  0.00000000000E+00 0. -1.
        -13    1    3    3    0    0 -0.26218860810E+02  0.18265131860E+02 -0.95044613248E+02  0.10027224048E+03  0.00000000000E+00 0.  1.
         22    1    1    2    0    0  0.71723877825E+03 -0.11498560406E+03  0.12412620144E+04  0.14381879372E+04  0.00000000000E+00 0. -1.
<mgrwt>
<rscale>  0 0.32019086E+04</rscale>
<asrwt>0</asrwt>
<pdfrwt beam="1">  1        2 0.27810548E+00 0.32019086E+04</pdfrwt>
<pdfrwt beam="2">  1       -2 0.21813312E+00 0.32019086E+04</pdfrwt>
<totfact> 0.73073765E-01</totfact>
</mgrwt>
</event>
<event>
 6    1  0.5026615E-004  0.1894273E+04  0.7818608E-02  0.8657712E-01
          2   -1    0    0  501    0  0.00000000000E+00  0.00000000000E+00  0.16859393628E+04  0.16859393628E+04  0.00000000000E+00 0.  1.
         -2   -1    0    0    0  501 -0.00000000000E+00 -0.00000000000E+00 -0.53208764168E+03  0.53208764168E+03  0.00000000000E+00 0. -1.
         23    2    1    2    0    0 -0.29137052775E+03 -0.41357293069E+03  0.15127866752E+04  0.15977257432E+04  0.90910242698E+02 0.  0.
         13    1    3    3    0    0 -0.13502855865E+03 -0.11814126330E+03  0.55650072253E+03  0.58470772521E+03  0.00000000000E+00 0. -1.
        -13    1    3    3    0    0 -0.15634196910E+03 -0.29543166739E+03  0.95628595267E+03  0.10130180179E+04  0.00000000000E+00 0.  1.
         22    1    1    2    0    0  0.29137052775E+03  0.41357293069E+03 -0.35893495413E+03  0.62030126127E+03  0.00000000000E+00 0. -1.
<mgrwt>
<rscale>  0 0.18942729E+04</rscale>
<asrwt>0</asrwt>
<pdfrwt beam="1">  1        2 0.25937528E+00 0.18942729E+04</pdfrwt>
<pdfrwt beam="2">  1       -2 0.81859638E-01 0.18942729E+04</pdfrwt>
<totfact> 0.12278757E+01</totfact>
</mgrwt>
</event>
<event>
 6    1  0.5026615E-004  0.1944675E+04  0.7818608E-02  0.8632933E-01
         -2   -1    0    0    0  501 -0.00000000000E+00  0.00000000000E+00  0.61978180547E+03  0.61978180547E+03  0.00000000000E+00 0.  1.
          2   -1    0    0  501    0  0.00000000000E+00 -0.00000000000E+00 -0.15254404031E+04  0.15254404031E+04  0.00000000000E+00 0. -1.
         23    2    1    2    0    0  0.95333035564E+03  0.17216133317E+03 -0.51517892500E+03  0.11007354129E+04  0.87925154230E+02 0.  0.
         11    1    3    3    0    0  0.56985603439E+03  0.96012791064E+02 -0.25867941610E+03  0.63314247709E+03  0.00000000000E+00 0. -1.
        -11    1    3    3    0    0  0.38347432125E+03  0.76148542105E+02 -0.25649950890E+03  0.46759293578E+03  0.00000000000E+00 0.  1.
         22    1    1    2    0    0 -0.95333035564E+03 -0.17216133317E+03 -0.39047967262E+03  0.10444867957E+04  0.00000000000E+00 0. -1.
<mgrwt>
<rscale>  0 0.19446750E+04</rscale>
<asrwt>0</asrwt>
<pdfrwt beam="1">  1        2 0.23468314E+00 0.19446750E+04</pdfrwt>
<pdfrwt beam="2">  1       -2 0.95351047E-01 0.19446750E+04</pdfrwt>
<totfact> 0.10590518E+01</totfact>
</mgrwt>
</event>
<event>
 6    1  0.5026615E-004  0.1059135E+04  0.7818608E-02  0.9245963E-01
         -2   -1    0    0    0  501 -0.00000000000E+00  0.00000000000E+00  0.31295414828E+03  0.31295414828E+03  0.00000000000E+00 0. -1.
          2   -1    0    0  501    0  0.00000000000E+00 -0.00000000000E+00 -0.89611138650E+03  0.89611138650E+03  0.00000000000E+00 0.  1.
         23    2    1    2    0    0  0.17256128273E+03 -0.43172607263E+03 -0.13878161341E+02  0.47405297336E+03  0.91481255455E+02 0.  0.
         13    1    3    3    0    0  0.96681323550E+02 -0.16100744652E+03 -0.38895390166E+02  0.19179032179E+03  0.00000000000E+00 0. -1.
        -13    1    3    3    0    0  0.75879959184E+02 -0.27071862611E+03  0.25017228825E+02  0.28226265156E+03  0.00000000000E+00 0.  1.
         22    1    1    2    0    0 -0.17256128273E+03  0.43172607263E+03 -0.56927907687E+03  0.73501256142E+03  0.00000000000E+00 0.  1.
<mgrwt>
<rscale>  0 0.10591351E+04</rscale>
<asrwt>0</asrwt>
<pdfrwt beam="1">  1        2 0.13786329E+00 0.10591351E+04</pdfrwt>
<pdfrwt beam="2">  1       -2 0.48146793E-01 0.10591351E+04</pdfrwt>
<totfact> 0.11995480E+02</totfact>
</mgrwt>
</event>
<event>
 6    1  0.5026615E-004  0.1576713E+04  0.7818608E-02  0.8834983E-01
          2   -1    0    0  501    0  0.00000000000E+00  0.00000000000E+00  0.73805018468E+03  0.73805018468E+03  0.00000000000E+00 0. -1.
         -2   -1    0    0    0  501 -0.00000000000E+00 -0.00000000000E+00 -0.84209122269E+03  0.84209122269E+03  0.00000000000E+00 0.  1.
         23    2    1    2    0    0  0.98403960066E+02  0.77881962384E+03 -0.81872707798E+02  0.79481677341E+03  0.93740157774E+02 0.  0.
         11    1    3    3    0    0  0.64977643771E+02  0.32529520292E+03 -0.74589388581E+02  0.34000388251E+03  0.00000000000E+00 0.  1.
        -11    1    3    3    0    0  0.33426316295E+02  0.45352442092E+03 -0.72833192177E+01  0.45481289090E+03  0.00000000000E+00 0. -1.
         22    1    1    2    0    0 -0.98403960066E+02 -0.77881962384E+03 -0.22168330220E+02  0.78532463396E+03  0.00000000000E+00 0. -1.
<mgrwt>
<rscale>  0 0.15767125E+04</rscale>
<asrwt>0</asrwt>
<pdfrwt beam="1">  1        2 0.11354618E+00 0.15767125E+04</pdfrwt>
<pdfrwt beam="2">  1       -2 0.12955250E+00 0.15767125E+04</pdfrwt>
<totfact> 0.16110409E+01</totfact>
</mgrwt>
</event>
<event>
 6    1  0.5026615E-004  0.3709323E+04  0.7818608E-02  0.8065899E-01
         -2   -1    0    0    0  501 -0.00000000000E+00  0.00000000000E+00  0.11924838364E+04  0.11924838364E+04  0.00000000000E+00 0. -1.
          2   -1    0    0  501    0  0.00000000000E+00 -0.00000000000E+00 -0.28845419568E+04  0.28845419568E+04  0.00000000000E+00 0.  1.
         23    2    1    2    0    0 -0.11950811900E+04  0.11809733952E+04  0.13848423275E+02  0.16826502280E+04  0.90569310640E+02 0.  0.
         11    1    3    3    0    0 -0.99095197595E+03  0.10085160891E+04 -0.14130025709E+02  0.14139625802E+04  0.00000000000E+00 0. -1.
        -11    1    3    3    0    0 -0.20412921407E+03  0.17245730614E+03  0.27978448984E+02  0.26868764780E+03  0.00000000000E+00 0.  1.
         22    1    1    2    0    0  0.11950811900E+04 -0.11809733952E+04 -0.17059065437E+04  0.23943755651E+04  0.00000000000E+00 0.  1.
<mgrwt>
<rscale>  0 0.37093232E+04</rscale>
<asrwt>0</asrwt>
<pdfrwt beam="1">  1        2 0.44377569E+00 0.37093232E+04</pdfrwt>
<pdfrwt beam="2">  1       -2 0.18345905E+00 0.37093232E+04</pdfrwt>
<totfact> 0.28461530E-01</totfact>
</mgrwt>
</event>
<event>
 6    1  0.5026615E-004  0.3730511E+04  0.7818608E-02  0.8061234E-01
          2   -1    0    0  501    0  0.00000000000E+00  0.00000000000E+00  0.19086026158E+04  0.19086026158E+04  0.00000000000E+00 0. -1.
         -2   -1    0    0    0  501 -0.00000000000E+00 -0.00000000000E+00 -0.18228927070E+04  0.18228927070E+04  0.00000000000E+00 0.  1.
         23    2    1    2    0    0  0.37138927677E+03  0.14934248613E+04 -0.10094767193E+04  0.18426645836E+04  0.90120528143E+02 0.  0.
         11    1    3    3    0    0  0.13631543696E+03  0.38470511904E+03 -0.27310356522E+03  0.49108602537E+03  0.00000000000E+00 0.  1.
        -11    1    3    3    0    0  0.23507383981E+03  0.11087197422E+04 -0.73637315413E+03  0.13515785582E+04  0.00000000000E+00 0. -1.
         22    1    1    2    0    0 -0.37138927677E+03 -0.14934248613E+04  0.10951866281E+04  0.18888307393E+04  0.00000000000E+00 0. -1.
<mgrwt>
<rscale>  0 0.37305108E+04</rscale>
<asrwt>0</asrwt>
<pdfrwt beam="1">  1        2 0.29363117E+00 0.37305108E+04</pdfrwt>
<pdfrwt beam="2">  1       -2 0.28044503E+00 0.37305108E+04</pdfrwt>
<totfact> 0.25346362E-01</totfact>
</mgrwt>
</event>
<event>
 6    1  0.5026615E-004  0.2254666E+04  0.7818608E-02  0.8496013E-01
          2   -1    0    0  501    0  0.00000000000E+00  0.00000000000E+00  0.50573890160E+03  0.50573890160E+03  0.00000000000E+00 0.  1.
         -2   -1    0    0    0  501 -0.00000000000E+00 -0.00000000000E+00 -0.25129157181E+04  0.25129157181E+04  0.00000000000E+00 0. -1.
         23    2    1    2    0    0 -0.32551129403E+03 -0.89121334067E+03 -0.19475078836E+03  0.97290123069E+03  0.91597565334E+02 0.  0.
         13    1    3    3    0    0 -0.80577568876E+02 -0.34721172664E+03 -0.81786736457E+02  0.36570178832E+03  0.00000000000E+00 0. -1.
        -13    1    3    3    0    0 -0.24493372515E+03 -0.54400161404E+03 -0.11296405191E+03  0.60719944237E+03  0.00000000000E+00 0.  1.
         22    1    1    2    0    0  0.32551129403E+03  0.89121334067E+03 -0.18124260281E+04  0.20457533890E+04  0.00000000000E+00 0. -1.
<mgrwt>
<rscale>  0 0.22546656E+04</rscale>
<asrwt>0</asrwt>
<pdfrwt beam="1">  1        2 0.77805984E-01 0.22546656E+04</pdfrwt>
<pdfrwt beam="2">  1       -2 0.38660242E+00 0.22546656E+04</pdfrwt>
<totfact> 0.50245692E-01</totfact>
</mgrwt>
</event>
<event>
 6    1  0.5026615E-004  0.2411730E+04  0.7818608E-02  0.8435125E-01
          2   -1    0    0  501    0  0.00000000000E+00  0.00000000000E+00  0.19538838251E+04  0.19538838251E+04  0.00000000000E+00 0.  1.
         -2   -1    0    0    0  501 -0.00000000000E+00 -0.00000000000E+00 -0.74421559159E+03  0.74421559159E+03  0.00000000000E+00 0. -1.
         23    2    1    2    0    0  0.59902392821E+02  0.11915945779E+04  0.78780341404E+03  0.14326130041E+04  0.90883802123E+02 0.  0.
         13    1    3    3    0    0 -0.38203245041E+01  0.62231138573E+03  0.44471207879E+03  0.76488880807E+03  0.00000000000E+00 0. -1.
        -13    1    3    3    0    0  0.63722717325E+02  0.56928319216E+03  0.34309133525E+03  0.66772419598E+03  0.00000000000E+00 0.  1.
         22    1    1    2    0    0 -0.59902392821E+02 -0.11915945779E+04  0.42186481950E+03  0.12654864127E+04  0.00000000000E+00 0. -1.
<mgrwt>
<rscale>  0 0.24117303E+04</rscale>
<asrwt>0</asrwt>
<pdfrwt beam="1">  1        2 0.30059751E+00 0.24117303E+04</pdfrwt>
<pdfrwt beam="2">  1       -2 0.11449471E+00 0.24117303E+04</pdfrwt>
<totfact> 0.37951164E+00</totfact>
</mgrwt>
</event>
<event>
 6    1  0.5026615E-004  0.1111976E+04  0.7818608E-02  0.9193597E-01
         -4   -1    0    0    0  501 -0.00000000000E+00  0.00000000000E+00  0.68972560677E+03  0.68972560677E+03  0.00000000000E+00 0. -1.
          4   -1    0    0  501    0  0.00000000000E+00 -0.00000000000E+00 -0.44818204555E+03  0.44818204555E+03  0.00000000000E+00 0.  1.
         23    2    1    2    0    0  0.22613160580E+03  0.35311482862E+03 -0.24628987225E+03  0.49462929566E+03  0.90409366874E+02 0.  0.
         11    1    3    3    0    0  0.42285343725E+02  0.14118572826E+03 -0.10112914236E+03  0.17874161125E+03  0.00000000000E+00 0. -1.
        -11    1    3    3    0    0  0.18384626208E+03  0.21192910036E+03 -0.14516072988E+03  0.31588768441E+03  0.00000000000E+00 0.  1.
         22    1    1    2    0    0 -0.22613160580E+03 -0.35311482862E+03  0.48783343347E+03  0.64327835666E+03  0.00000000000E+00 0. -1.
<mgrwt>
<rscale>  0 0.11119760E+04</rscale>
<asrwt>0</asrwt>
<pdfrwt beam="1">  1        4 0.68951084E-01 0.11119760E+04</pdfrwt>
<pdfrwt beam="2">  1       -4 0.10611163E+00 0.11119760E+04</pdfrwt>
<totfact> 0.27377576E+00</totfact>
</mgrwt>
</event>
<event>
 6    1  0.5026615E-004  0.2040835E+04  0.7818608E-02  0.8587763E-01
          2   -1    0    0  501    0  0.00000000000E+00  0.00000000000E+00  0.92112006512E+03  0.92112006512E+03  0.00000000000E+00 0.  1.
         -2   -1    0    0    0  501 -0.00000000000E+00 -0.00000000000E+00 -0.11304196442E+04  0.11304196442E+04  0.00000000000E+00 0. -1.
         23    2    1    2    0    0 -0.85629999271E+03  0.22699168621E+03 -0.61010035666E+03  0.10792145753E+04  0.87788103716E+02 0.  0.
         11    1    3    3    0    0 -0.30879515476E+03  0.54615770947E+02 -0.25569372050E+03  0.40461909092E+03  0.00000000000E+00 0. -1.
        -11    1    3    3    0    0 -0.54750483795E+03  0.17237591527E+03 -0.35440663616E+03  0.67459548435E+03  0.00000000000E+00 0.  1.
         22    1    1    2    0    0  0.85629999271E+03 -0.22699168621E+03  0.40080077753E+03  0.97232513410E+03  0.00000000000E+00 0.  1.
<mgrwt>
<rscale>  0 0.20408353E+04</rscale>
<asrwt>0</asrwt>
<pdfrwt beam="1">  1        2 0.14171078E+00 0.20408353E+04</pdfrwt>
<pdfrwt beam="2">  1       -2 0.17391071E+00 0.20408353E+04</pdfrwt>
<totfact> 0.52530967E+00</totfact>
</mgrwt>
</event>
<event>
 6    1  0.5026615E-004  0.2576390E+04  0.7818608E-02  0.8376266E-01
         -2   -1    0    0    0  501 -0.00000000000E+00  0.00000000000E+00  0.10738292672E+04  0.10738292672E+04  0.00000000000E+00 0. -1.
          2   -1    0    0  501    0  0.00000000000E+00 -0.00000000000E+00 -0.15453535773E+04  0.15453535773E+04  0.00000000000E+00 0.  1.
         23    2    1    2    0    0  0.10965970066E+04  0.25819171629E+03  0.39572960237E+03  0.11974524531E+04  0.90013898216E+02 0.  0.
         11    1    3    3    0    0  0.49696819347E+03  0.14585746945E+03  0.14470275206E+03  0.53776451460E+03  0.00000000000E+00 0. -1.
        -11    1    3    3    0    0  0.59962881316E+03  0.11233424684E+03  0.25102685031E+03  0.65968793847E+03  0.00000000000E+00 0.  1.
         22    1    1    2    0    0 -0.10965970066E+04 -0.25819171629E+03 -0.86725391242E+03  0.14217303914E+04  0.00000000000E+00 0.  1.
<mgrwt>
<rscale>  0 0.25763896E+04</rscale>
<asrwt>0</asrwt>
<pdfrwt beam="1">  1        2 0.23774670E+00 0.25763896E+04</pdfrwt>
<pdfrwt beam="2">  1       -2 0.16520450E+00 0.25763896E+04</pdfrwt>
<totfact> 0.24477331E+00</totfact>
</mgrwt>
</event>
<event>
 6    1  0.5026615E-004  0.1950415E+04  0.7818608E-02  0.8630161E-01
          2   -1    0    0  501    0  0.00000000000E+00  0.00000000000E+00  0.13635530195E+04  0.13635530195E+04  0.00000000000E+00 0.  1.
         -2   -1    0    0    0  501 -0.00000000000E+00 -0.00000000000E+00 -0.69746448190E+03  0.69746448190E+03  0.00000000000E+00 0. -1.
         23    2    1    2    0    0 -0.56137477324E+03 -0.79157725237E+03  0.40891009081E+03  0.10570867588E+04  0.92134525008E+02 0.  0.
         13    1    3    3    0    0 -0.38012152293E+03 -0.47585975672E+03  0.22552035510E+03  0.64945693531E+03  0.00000000000E+00 0. -1.
        -13    1    3    3    0    0 -0.18125325031E+03 -0.31571749565E+03  0.18338973571E+03  0.40762982345E+03  0.00000000000E+00 0.  1.
         22    1    1    2    0    0  0.56137477324E+03  0.79157725237E+03  0.25717844679E+03  0.10039307426E+04  0.00000000000E+00 0.  1.
<mgrwt>
<rscale>  0 0.19504151E+04</rscale>
<asrwt>0</asrwt>
<pdfrwt beam="1">  1        2 0.20977739E+00 0.19504151E+04</pdfrwt>
<pdfrwt beam="2">  1       -2 0.10730223E+00 0.19504151E+04</pdfrwt>
<totfact> 0.98843281E+00</totfact>
</mgrwt>
</event>
<event>
 6    1  0.5026615E-004  0.8171522E+03  0.7818608E-02  0.9535517E-01
         -1   -1    0    0    0  501 -0.00000000000E+00  0.00000000000E+00  0.10709988574E+03  0.10709988574E+03  0.00000000000E+00 0. -1.
          1   -1    0    0  501    0  0.00000000000E+00 -0.00000000000E+00 -0.15586797942E+04  0.15586797942E+04  0.00000000000E+00 0.  1.
         23    2    1    2    0    0 -0.16890271720E+03  0.29979223748E+03 -0.11637474719E+04  0.12171695763E+04  0.93755456438E+02 0.  0.
         11    1    3    3    0    0 -0.94083264095E+02  0.93716375927E+02 -0.34803808945E+03  0.37251165271E+03  0.00000000000E+00 0.  1.
        -11    1    3    3    0    0 -0.74819453107E+02  0.20607586155E+03 -0.81570938246E+03  0.84465792360E+03  0.00000000000E+00 0. -1.
         22    1    1    2    0    0  0.16890271720E+03 -0.29979223748E+03 -0.28783243654E+03  0.44861010360E+03  0.00000000000E+00 0. -1.
<mgrwt>
<rscale>  0 0.81715220E+03</rscale>
<asrwt>0</asrwt>
<pdfrwt beam="1">  1        1 0.23979688E+00 0.81715220E+03</pdfrwt>
<pdfrwt beam="2">  1       -1 0.16476906E-01 0.81715220E+03</pdfrwt>
<totfact> 0.17058983E+02</totfact>
</mgrwt>
</event>
<event>
 6    1  0.5026615E-004  0.2505397E+04  0.7818608E-02  0.8401065E-01
         -2   -1    0    0    0  501 -0.00000000000E+00  0.00000000000E+00  0.74333054314E+03  0.74333054314E+03  0.00000000000E+00 0. -1.
          2   -1    0    0  501    0  0.00000000000E+00 -0.00000000000E+00 -0.21111119672E+04  0.21111119672E+04  0.00000000000E+00 0.  1.
         23    2    1    2    0    0 -0.11552454550E+03  0.56814571312E+03  0.57809660971E+03  0.82402954883E+03  0.93239129304E+02 0.  0.
         11    1    3    3    0    0 -0.78229245397E+02  0.29274288687E+03  0.36135649788E+03  0.47158957920E+03  0.00000000000E+00 0.  1.
        -11    1    3    3    0    0 -0.37295300105E+02  0.27540282625E+03  0.21674011183E+03  0.35243996963E+03  0.00000000000E+00 0. -1.
         22    1    1    2    0    0  0.11552454550E+03 -0.56814571312E+03 -0.19458780338E+04  0.20304129615E+04  0.00000000000E+00 0.  1.
<mgrwt>
<rscale>  0 0.25053974E+04</rscale>
<asrwt>0</asrwt>
<pdfrwt beam="1">  1        2 0.32478646E+00 0.25053974E+04</pdfrwt>
<pdfrwt beam="2">  1       -2 0.11435854E+00 0.25053974E+04</pdfrwt>
<totfact> 0.30865041E+00</totfact>
</mgrwt>
</event>
<event>
 6    1  0.5026615E-004  0.1775396E+04  0.7818608E-02  0.8719494E-01
          2   -1    0    0  501    0  0.00000000000E+00  0.00000000000E+00  0.52166564942E+03  0.52166564942E+03  0.00000000000E+00 0.  1.
         -2   -1    0    0    0  501 -0.00000000000E+00 -0.00000000000E+00 -0.15105617253E+04  0.15105617253E+04  0.00000000000E+00 0. -1.
         23    2    1    2    0    0 -0.15204112121E+03 -0.22353196002E+03  0.46919650616E+03  0.54928536051E+03  0.92119521206E+02 0.  0.
         11    1    3    3    0    0 -0.82431499956E+02 -0.59649345168E+02  0.22625990743E+03  0.24808575589E+03  0.00000000000E+00 0. -1.
        -11    1    3    3    0    0 -0.69609621259E+02 -0.16388261485E+03  0.24293659874E+03  0.30119960463E+03  0.00000000000E+00 0.  1.
         22    1    1    2    0    0  0.15204112121E+03  0.22353196002E+03 -0.14580925821E+04  0.14829420142E+04  0.00000000000E+00 0. -1.
<mgrwt>
<rscale>  0 0.17753965E+04</rscale>
<asrwt>0</asrwt>
<pdfrwt beam="1">  1        2 0.80256253E-01 0.17753965E+04</pdfrwt>
<pdfrwt beam="2">  1       -2 0.23239411E+00 0.17753965E+04</pdfrwt>
<totfact> 0.45763830E+00</totfact>
</mgrwt>
</event>
<event>
 6    1  0.5026615E-004  0.3459947E+04  0.7818608E-02  0.8123348E-01
          2   -1    0    0  501    0  0.00000000000E+00  0.00000000000E+00  0.16462634314E+04  0.16462634314E+04  0.00000000000E+00 0. -1.
         -2   -1    0    0    0  501 -0.00000000000E+00 -0.00000000000E+00 -0.18179399678E+04  0.18179399678E+04  0.00000000000E+00 0.  1.
         23    2    1    2    0    0 -0.12809722375E+04 -0.45226197708E+03  0.98463902566E+03  0.16802481172E+04  0.91043699612E+02 0.  0.
         11    1    3    3    0    0 -0.14904818273E+03 -0.72508841084E+02  0.14962591642E+03  0.22329533734E+03  0.00000000000E+00 0.  1.
        -11    1    3    3    0    0 -0.11319240548E+04 -0.37975313599E+03  0.83501310924E+03  0.14569527798E+04  0.00000000000E+00 0. -1.
         22    1    1    2    0    0  0.12809722375E+04  0.45226197708E+03 -0.11563155621E+04  0.17839552820E+04  0.00000000000E+00 0.  1.
<mgrwt>
<rscale>  0 0.34599469E+04</rscale>
<asrwt>0</asrwt>
<pdfrwt beam="1">  1        2 0.25327130E+00 0.34599469E+04</pdfrwt>
<pdfrwt beam="2">  1       -2 0.27968307E+00 0.34599469E+04</pdfrwt>
<totfact> 0.36640337E-01</totfact>
</mgrwt>
</event>
<event>
 6    1  0.5026615E-004  0.2150082E+04  0.7818608E-02  0.8539497E-01
         -2   -1    0    0    0  501 -0.00000000000E+00  0.00000000000E+00  0.11675427555E+04  0.11675427555E+04  0.00000000000E+00 0. -1.
          2   -1    0    0  501    0  0.00000000000E+00 -0.00000000000E+00 -0.98986754180E+03  0.98986754180E+03  0.00000000000E+00 0.  1.
         23    2    1    2    0    0 -0.10176221846E+04  0.22911088089E+03 -0.16399474093E+03  0.10597832822E+04  0.90551774406E+02 0.  0.
         11    1    3    3    0    0 -0.79853099538E+03  0.21747081266E+03 -0.13073188399E+03  0.83787596363E+03  0.00000000000E+00 0. -1.
        -11    1    3    3    0    0 -0.21909118924E+03  0.11640068231E+02 -0.33262856938E+02  0.22190731859E+03  0.00000000000E+00 0.  1.
         22    1    1    2    0    0  0.10176221846E+04 -0.22911088089E+03  0.34166995466E+03  0.10976270151E+04  0.00000000000E+00 0. -1.
<mgrwt>
<rscale>  0 0.21500816E+04</rscale>
<asrwt>0</asrwt>
<pdfrwt beam="1">  1        2 0.15228731E+00 0.21500816E+04</pdfrwt>
<pdfrwt beam="2">  1       -2 0.17962196E+00 0.21500816E+04</pdfrwt>
<totfact> 0.42802030E+00</totfact>
</mgrwt>
</event>
<event>
 6    1  0.5026615E-004  0.1834772E+04  0.7818608E-02  0.8688024E-01
          2   -1    0    0  501    0  0.00000000000E+00  0.00000000000E+00  0.56769531401E+03  0.56769531401E+03  0.00000000000E+00 0.  1.
         -2   -1    0    0    0  501 -0.00000000000E+00 -0.00000000000E+00 -0.14824795504E+04  0.14824795504E+04  0.00000000000E+00 0. -1.
         23    2    1    2    0    0 -0.36733334844E+03 -0.56350123589E+03 -0.11519237803E+04  0.13369409653E+04  0.89528304077E+02 0.  0.
         13    1    3    3    0    0 -0.23985436906E+03 -0.37363910950E+03 -0.67371085120E+03  0.80685972358E+03  0.00000000000E+00 0. -1.
        -13    1    3    3    0    0 -0.12747897937E+03 -0.18986212639E+03 -0.47821292910E+03  0.53008124168E+03  0.00000000000E+00 0.  1.
         22    1    1    2    0    0  0.36733334844E+03  0.56350123589E+03  0.23713954386E+03  0.71323389921E+03  0.00000000000E+00 0.  1.
<mgrwt>
<rscale>  0 0.18347716E+04</rscale>
<asrwt>0</asrwt>
<pdfrwt beam="1">  1        2 0.87337741E-01 0.18347716E+04</pdfrwt>
<pdfrwt beam="2">  1       -2 0.22807378E+00 0.18347716E+04</pdfrwt>
<totfact> 0.43850331E+00</totfact>
</mgrwt>
</event>
<event>
 6    1  0.5026615E-004  0.4365714E+04  0.7818608E-02  0.7934577E-01
          2   -1    0    0  501    0  0.00000000000E+00  0.00000000000E+00  0.28650510214E+04  0.28650510214E+04  0.00000000000E+00 0.  1.
         -2   -1    0    0    0  501 -0.00000000000E+00 -0.00000000000E+00 -0.16630994605E+04  0.16630994605E+04  0.00000000000E+00 0. -1.
         23    2    1    2    0    0  0.58784037975E+03 -0.10875361501E+04 -0.12635551940E+04  0.17700687666E+04  0.90997365916E+02 0.  0.
         13    1    3    3    0    0  0.41368165871E+03 -0.76172723662E+03 -0.94405141037E+03  0.12816372198E+04  0.00000000000E+00 0.  1.
        -13    1    3    3    0    0  0.17415872104E+03 -0.32580891347E+03 -0.31950378362E+03  0.48843154685E+03  0.00000000000E+00 0. -1.
         22    1    1    2    0    0 -0.58784037975E+03  0.10875361501E+04  0.24655067549E+04  0.27580817153E+04  0.00000000000E+00 0.  1.
<mgrwt>
<rscale>  0 0.43657141E+04</rscale>
<asrwt>0</asrwt>
<pdfrwt beam="1">  1        2 0.44077708E+00 0.43657141E+04</pdfrwt>
<pdfrwt beam="2">  1       -2 0.25586146E+00 0.43657141E+04</pdfrwt>
<totfact> 0.95600460E-02</totfact>
</mgrwt>
</event>
<event>
 6    1  0.5026615E-004  0.7189982E+04  0.7818608E-02  0.7558154E-01
         -2   -1    0    0    0  501 -0.00000000000E+00  0.00000000000E+00  0.30094876497E+04  0.30094876497E+04  0.00000000000E+00 0. -1.
          2   -1    0    0  501    0  0.00000000000E+00 -0.00000000000E+00 -0.42944051820E+04  0.42944051820E+04  0.00000000000E+00 0.  1.
         23    2    1    2    0    0 -0.19209275366E+04  0.26638314854E+04 -0.21264512859E+04  0.39135919834E+04  0.91904066485E+02 0.  0.
         11    1    3    3    0    0 -0.11708299952E+04  0.15463863589E+04 -0.12542784061E+04  0.23098415462E+04  0.00000000000E+00 0. -1.
        -11    1    3    3    0    0 -0.75009754140E+03  0.11174451266E+04 -0.87217287979E+03  0.16037504372E+04  0.00000000000E+00 0.  1.
         22    1    1    2    0    0  0.19209275366E+04 -0.26638314854E+04  0.84153375363E+03  0.33903008483E+04  0.00000000000E+00 0. -1.
<mgrwt>
<rscale>  0 0.71899817E+04</rscale>
<asrwt>0</asrwt>
<pdfrwt beam="1">  1        2 0.66067772E+00 0.71899817E+04</pdfrwt>
<pdfrwt beam="2">  1       -2 0.46299810E+00 0.71899817E+04</pdfrwt>
<totfact> 0.33569964E-04</totfact>
</mgrwt>
</event>
<event>
 6    1  0.5026615E-004  0.1961833E+04  0.7818608E-02  0.8624676E-01
         -2   -1    0    0    0  501 -0.00000000000E+00  0.00000000000E+00  0.53180641941E+03  0.53180641941E+03  0.00000000000E+00 0. -1.
          2   -1    0    0  501    0  0.00000000000E+00 -0.00000000000E+00 -0.18092996482E+04  0.18092996482E+04  0.00000000000E+00 0.  1.
         23    2    1    2    0    0 -0.39004261917E+03 -0.73401749958E+03 -0.12568554004E+04  0.15096369735E+04  0.91669841081E+02 0.  0.
         11    1    3    3    0    0 -0.26173220942E+03 -0.44663492075E+03 -0.71002903605E+03  0.87870799127E+03  0.00000000000E+00 0. -1.
        -11    1    3    3    0    0 -0.12831040975E+03 -0.28738257883E+03 -0.54682636435E+03  0.63092898223E+03  0.00000000000E+00 0.  1.
         22    1    1    2    0    0  0.39004261917E+03  0.73401749958E+03 -0.20637828346E+02  0.83146909408E+03  0.00000000000E+00 0. -1.
<mgrwt>
<rscale>  0 0.19618330E+04</rscale>
<asrwt>0</asrwt>
<pdfrwt beam="1">  1        2 0.27835380E+00 0.19618330E+04</pdfrwt>
<pdfrwt beam="2">  1       -2 0.81816371E-01 0.19618330E+04</pdfrwt>
<totfact> 0.10440844E+01</totfact>
</mgrwt>
</event>
<event>
 6    1  0.5026615E-004  0.2873603E+04  0.7818608E-02  0.8280775E-01
          2   -1    0    0  501    0  0.00000000000E+00  0.00000000000E+00  0.25589388553E+04  0.25589388553E+04  0.00000000000E+00 0.  1.
         -2   -1    0    0    0  501 -0.00000000000E+00 -0.00000000000E+00 -0.80673982749E+03  0.80673982749E+03  0.00000000000E+00 0. -1.
         23    2    1    2    0    0 -0.19324314715E+03  0.14122562670E+04  0.68002081323E+03  0.15820372386E+04  0.92751497563E+02 0.  0.
         13    1    3    3    0    0 -0.10868527683E+03  0.10569519729E+04  0.52717174468E+03  0.11861155133E+04  0.00000000000E+00 0. -1.
        -13    1    3    3    0    0 -0.84557870320E+02  0.35530429405E+03  0.15284906855E+03  0.39592172530E+03  0.00000000000E+00 0.  1.
         22    1    1    2    0    0  0.19324314715E+03 -0.14122562670E+04  0.10721782146E+04  0.17836414442E+04  0.00000000000E+00 0.  1.
<mgrwt>
<rscale>  0 0.28736025E+04</rscale>
<asrwt>0</asrwt>
<pdfrwt beam="1">  1        2 0.39368290E+00 0.28736025E+04</pdfrwt>
<pdfrwt beam="2">  1       -2 0.12411382E+00 0.28736025E+04</pdfrwt>
<totfact> 0.13576701E+00</totfact>
</mgrwt>
</event>
<event>
 6    1  0.5026615E-004  0.1867678E+04  0.7818608E-02  0.8671114E-01
          4   -1    0    0  501    0  0.00000000000E+00  0.00000000000E+00  0.14414223273E+04  0.14414223273E+04  0.00000000000E+00 0.  1.
         -4   -1    0    0    0  501 -0.00000000000E+00 -0.00000000000E+00 -0.60499667702E+03  0.60499667702E+03  0.00000000000E+00 0. -1.
         23    2    1    2    0    0  0.67805810509E+03 -0.63064026645E+03  0.30734904967E+03  0.97993319152E+03  0.91299956014E+02 0.  0.
         13    1    3    3    0    0  0.33801149063E+03 -0.26292217662E+03  0.16858475312E+03  0.46021805455E+03  0.00000000000E+00 0. -1.
        -13    1    3    3    0    0  0.34004661446E+03 -0.36771808983E+03  0.13876429656E+03  0.51971513697E+03  0.00000000000E+00 0.  1.
         22    1    1    2    0    0 -0.67805810509E+03  0.63064026645E+03  0.52907660056E+03  0.10664858128E+04  0.00000000000E+00 0. -1.
<mgrwt>
<rscale>  0 0.18676785E+04</rscale>
<asrwt>0</asrwt>
<pdfrwt beam="1">  1        4 0.22175728E+00 0.18676785E+04</pdfrwt>
<pdfrwt beam="2">  1       -4 0.93076412E-01 0.18676785E+04</pdfrwt>
<totfact> 0.17475306E-01</totfact>
</mgrwt>
</event>
<event>
 6    1  0.5026615E-004  0.2637239E+04  0.7818608E-02  0.8355661E-01
          2   -1    0    0  501    0  0.00000000000E+00  0.00000000000E+00  0.92661512619E+03  0.92661512619E+03  0.00000000000E+00 0.  1.
         -2   -1    0    0    0  501 -0.00000000000E+00 -0.00000000000E+00 -0.18764615330E+04  0.18764615330E+04  0.00000000000E+00 0. -1.
         23    2    1    2    0    0  0.67691355367E+02 -0.12998657200E+04 -0.68925366767E+03  0.14756198480E+04  0.90279054979E+02 0.  0.
         13    1    3    3    0    0  0.29999874707E+02 -0.74947737955E+03 -0.34749444827E+03  0.82666119210E+03  0.00000000000E+00 0.  1.
        -13    1    3    3    0    0  0.37691480660E+02 -0.55038834049E+03 -0.34175921941E+03  0.64895865593E+03  0.00000000000E+00 0. -1.
         22    1    1    2    0    0 -0.67691355367E+02  0.12998657200E+04 -0.26059273909E+03  0.13274568111E+04  0.00000000000E+00 0.  1.
<mgrwt>
<rscale>  0 0.26372392E+04</rscale>
<asrwt>0</asrwt>
<pdfrwt beam="1">  1        2 0.14255617E+00 0.26372392E+04</pdfrwt>
<pdfrwt beam="2">  1       -2 0.28868639E+00 0.26372392E+04</pdfrwt>
<totfact> 0.92484997E-01</totfact>
</mgrwt>
</event>
<event>
 6    1  0.5026615E-004  0.1025770E+04  0.7818608E-02  0.9280724E-01
          2   -1    0    0  501    0  0.00000000000E+00  0.00000000000E+00  0.10719154598E+04  0.10719154598E+04  0.00000000000E+00 0.  1.
         -2   -1    0    0    0  501 -0.00000000000E+00 -0.00000000000E+00 -0.24540254919E+03  0.24540254919E+03  0.00000000000E+00 0. -1.
         23    2    1    2    0    0 -0.48650030554E+03  0.19616900799E+02  0.22690542481E+03  0.54492140937E+03  0.91574562449E+02 0.  0.
         11    1    3    3    0    0 -0.32072317134E+03  0.36351361947E+02  0.18901653065E+03  0.37404815600E+03  0.00000000000E+00 0.  1.
        -11    1    3    3    0    0 -0.16577713421E+03 -0.16734461148E+02  0.37888894159E+02  0.17087325337E+03  0.00000000000E+00 0. -1.
         22    1    1    2    0    0  0.48650030554E+03 -0.19616900799E+02  0.59960748581E+03  0.77239659964E+03  0.00000000000E+00 0. -1.
<mgrwt>
<rscale>  0 0.10257695E+04</rscale>
<asrwt>0</asrwt>
<pdfrwt beam="1">  1        2 0.16491007E+00 0.10257695E+04</pdfrwt>
<pdfrwt beam="2">  1       -2 0.37754239E-01 0.10257695E+04</pdfrwt>
<totfact> 0.14953148E+02</totfact>
</mgrwt>
</event>
<event>
 6    1  0.5026615E-004  0.2545608E+04  0.7818608E-02  0.8386915E-01
          2   -1    0    0  501    0  0.00000000000E+00  0.00000000000E+00  0.82800364083E+03  0.82800364083E+03  0.00000000000E+00 0. -1.
         -2   -1    0    0    0  501 -0.00000000000E+00 -0.00000000000E+00 -0.19565499639E+04  0.19565499639E+04  0.00000000000E+00 0.  1.
         23    2    1    2    0    0 -0.58748301996E+03 -0.11266989754E+04 -0.60358150396E+03  0.14097172722E+04  0.91680291005E+02 0.  0.
         13    1    3    3    0    0 -0.15194109479E+03 -0.21600090251E+03 -0.13941308871E+03  0.29862768705E+03  0.00000000000E+00 0.  1.
        -13    1    3    3    0    0 -0.43554192517E+03 -0.91069807290E+03 -0.46416841525E+03  0.11110895852E+04  0.00000000000E+00 0. -1.
         22    1    1    2    0    0  0.58748301996E+03  0.11266989754E+04 -0.52496481913E+03  0.13748363325E+04  0.00000000000E+00 0.  1.
<mgrwt>
<rscale>  0 0.25456084E+04</rscale>
<asrwt>0</asrwt>
<pdfrwt beam="1">  1        2 0.12738518E+00 0.25456084E+04</pdfrwt>
<pdfrwt beam="2">  1       -2 0.30100768E+00 0.25456084E+04</pdfrwt>
<totfact> 0.91590119E-01</totfact>
</mgrwt>
</event>
<event>
 6    1  0.5026615E-004  0.2412475E+04  0.7818608E-02  0.8434848E-01
          2   -1    0    0  501    0  0.00000000000E+00  0.00000000000E+00  0.83364658383E+03  0.83364658383E+03  0.00000000000E+00 0.  1.
         -2   -1    0    0    0  501 -0.00000000000E+00 -0.00000000000E+00 -0.17453545682E+04  0.17453545682E+04  0.00000000000E+00 0. -1.
         23    2    1    2    0    0 -0.27327854441E+03 -0.55136670464E+03  0.65121853113E+03  0.89929114770E+03  0.77153011741E+02 0.  0.
         13    1    3    3    0    0 -0.21288936880E+03 -0.47035164508E+03  0.51057649249E+03  0.72611356416E+03  0.00000000000E+00 0. -1.
        -13    1    3    3    0    0 -0.60389175609E+02 -0.81015059562E+02  0.14064203865E+03  0.17317758354E+03  0.00000000000E+00 0.  1.
         22    1    1    2    0    0  0.27327854441E+03  0.55136670464E+03 -0.15629265155E+04  0.16797100044E+04  0.00000000000E+00 0. -1.
<mgrwt>
<rscale>  0 0.24124750E+04</rscale>
<asrwt>0</asrwt>
<pdfrwt beam="1">  1        2 0.12825332E+00 0.24124750E+04</pdfrwt>
<pdfrwt beam="2">  1       -2 0.26851609E+00 0.24124750E+04</pdfrwt>
<totfact> 0.14487897E+00</totfact>
</mgrwt>
</event>
<event>
 6    1  0.5026615E-004  0.2846743E+04  0.7818608E-02  0.8288902E-01
          2   -1    0    0  501    0  0.00000000000E+00  0.00000000000E+00  0.88307997364E+03  0.88307997364E+03  0.00000000000E+00 0.  1.
         -2   -1    0    0    0  501 -0.00000000000E+00 -0.00000000000E+00 -0.22942277109E+04  0.22942277109E+04  0.00000000000E+00 0. -1.
         23    2    1    2    0    0  0.11358193476E+04  0.74947673825E+03 -0.11668052144E+04  0.17947360806E+04  0.88556303311E+02 0.  0.
         11    1    3    3    0    0  0.84222251994E+02  0.46201266759E+02 -0.11236802415E+03  0.14783273532E+03  0.00000000000E+00 0. -1.
        -11    1    3    3    0    0  0.10515970957E+04  0.70327547149E+03 -0.10544371903E+04  0.16469033453E+04  0.00000000000E+00 0.  1.
         22    1    1    2    0    0 -0.11358193476E+04 -0.74947673825E+03 -0.24434252284E+03  0.13825716040E+04  0.00000000000E+00 0.  1.
<mgrwt>
<rscale>  0 0.28467431E+04</rscale>
<asrwt>0</asrwt>
<pdfrwt beam="1">  1        2 0.13585846E+00 0.28467431E+04</pdfrwt>
<pdfrwt beam="2">  1       -2 0.35295811E+00 0.28467431E+04</pdfrwt>
<totfact> 0.38893652E-01</totfact>
</mgrwt>
</event>
<event>
 6    1  0.5026615E-004  0.3178251E+04  0.7818608E-02  0.8194585E-01
          2   -1    0    0  501    0  0.00000000000E+00  0.00000000000E+00  0.30380422454E+04  0.30380422454E+04  0.00000000000E+00 0.  1.
         -2   -1    0    0    0  501 -0.00000000000E+00 -0.00000000000E+00 -0.83123261873E+03  0.83123261873E+03  0.00000000000E+00 0. -1.
         23    2    1    2    0    0  0.72076965558E+03 -0.86744323138E+03 -0.25644798759E+03  0.11601043766E+04  0.90055195618E+02 0.  0.
         11    1    3    3    0    0  0.41874841072E+03 -0.48847539528E+03 -0.10159485496E+03  0.65136775928E+03  0.00000000000E+00 0. -1.
        -11    1    3    3    0    0  0.30202124487E+03 -0.37896783610E+03 -0.15485313263E+03  0.50873661735E+03  0.00000000000E+00 0.  1.
         22    1    1    2    0    0 -0.72076965558E+03  0.86744323138E+03  0.24632576143E+04  0.27091704875E+04  0.00000000000E+00 0. -1.
<mgrwt>
<rscale>  0 0.31782510E+04</rscale>
<asrwt>0</asrwt>
<pdfrwt beam="1">  1        2 0.46739111E+00 0.31782510E+04</pdfrwt>
<pdfrwt beam="2">  1       -2 0.12788194E+00 0.31782510E+04</pdfrwt>
<totfact> 0.62881098E-01</totfact>
</mgrwt>
</event>
<event>
 6    1  0.5069749E-004  0.2345754E+04  0.7818608E-02  0.8460096E-01
          2   -1    0    0  501    0  0.00000000000E+00  0.00000000000E+00  0.11779527458E+04  0.11779527458E+04  0.00000000000E+00 0.  1.
         -2   -1    0    0    0  501 -0.00000000000E+00 -0.00000000000E+00 -0.11678231737E+04  0.11678231737E+04  0.00000000000E+00 0. -1.
         23    2    1    2    0    0 -0.30332040227E+03  0.68050002500E+03  0.90867302388E+03  0.11785296364E+04  0.90343174370E+02 0.  0.
         13    1    3    3    0    0 -0.15259189902E+03  0.44268759920E+03  0.59176080605E+03  0.75461079353E+03  0.00000000000E+00 0.  1.
        -13    1    3    3    0    0 -0.15072850324E+03  0.23781242580E+03  0.31691221783E+03  0.42391884290E+03  0.00000000000E+00 0. -1.
         22    1    1    2    0    0  0.30332040227E+03 -0.68050002500E+03 -0.89854345179E+03  0.11672462830E+04  0.00000000000E+00 0. -1.
<mgrwt>
<rscale>  0 0.23457540E+04</rscale>
<asrwt>0</asrwt>
<pdfrwt beam="1">  1        2 0.18122350E+00 0.23457540E+04</pdfrwt>
<pdfrwt beam="2">  1       -2 0.17966510E+00 0.23457540E+04</pdfrwt>
<totfact> 0.32152241E+00</totfact>
</mgrwt>
</event>
<event>
 6    1  0.5026615E-004  0.3070517E+04  0.7818608E-02  0.8223876E-01
         -2   -1    0    0    0  501 -0.00000000000E+00  0.00000000000E+00  0.95986238586E+03  0.95986238586E+03  0.00000000000E+00 0. -1.
          2   -1    0    0  501    0  0.00000000000E+00 -0.00000000000E+00 -0.24555796212E+04  0.24555796212E+04  0.00000000000E+00 0.  1.
         23    2    1    2    0    0  0.14227627071E+04 -0.24874383766E+03 -0.13231037132E+04  0.19608208724E+04  0.89932419937E+02 0.  0.
         13    1    3    3    0    0  0.29328689778E+03 -0.14598884725E+02 -0.26885741888E+03  0.39813897514E+03  0.00000000000E+00 0. -1.
        -13    1    3    3    0    0  0.11294758093E+04 -0.23414495294E+03 -0.10542462943E+04  0.15626818972E+04  0.00000000000E+00 0.  1.
         22    1    1    2    0    0 -0.14227627071E+04  0.24874383766E+03 -0.17261352212E+03  0.14546211347E+04  0.00000000000E+00 0. -1.
<mgrwt>
<rscale>  0 0.30705169E+04</rscale>
<asrwt>0</asrwt>
<pdfrwt beam="1">  1        2 0.37778148E+00 0.30705169E+04</pdfrwt>
<pdfrwt beam="2">  1       -2 0.14767114E+00 0.30705169E+04</pdfrwt>
<totfact> 0.98145888E-01</totfact>
</mgrwt>
</event>
<event>
 6    1  0.5026615E-004  0.1638027E+04  0.7818608E-02  0.8797521E-01
         -2   -1    0    0    0  501 -0.00000000000E+00  0.00000000000E+00  0.63574156028E+03  0.63574156028E+03  0.00000000000E+00 0. -1.
          2   -1    0    0  501    0  0.00000000000E+00 -0.00000000000E+00 -0.10551196068E+04  0.10551196068E+04  0.00000000000E+00 0.  1.
         23    2    1    2    0    0 -0.12980439282E+02 -0.14095895595E+03 -0.10403087576E+04  0.10539994340E+04  0.92922423441E+02 0.  0.
         13    1    3    3    0    0 -0.11291780131E+02 -0.14545391888E+03 -0.77296204819E+03  0.78660960760E+03  0.00000000000E+00 0. -1.
        -13    1    3    3    0    0 -0.16886591518E+01  0.44949629336E+01 -0.26734670939E+03  0.26738982644E+03  0.00000000000E+00 0.  1.
         22    1    1    2    0    0  0.12980439282E+02  0.14095895595E+03  0.62093071107E+03  0.63686173304E+03  0.00000000000E+00 0. -1.
<mgrwt>
<rscale>  0 0.16380273E+04</rscale>
<asrwt>0</asrwt>
<pdfrwt beam="1">  1        2 0.16232609E+00 0.16380273E+04</pdfrwt>
<pdfrwt beam="2">  1       -2 0.97806396E-01 0.16380273E+04</pdfrwt>
<totfact> 0.19341726E+01</totfact>
</mgrwt>
</event>
<event>
 6    1  0.5026615E-004  0.2112780E+04  0.7818608E-02  0.8555634E-01
         -2   -1    0    0    0  501 -0.00000000000E+00  0.00000000000E+00  0.96472841689E+03  0.96472841689E+03  0.00000000000E+00 0. -1.
          2   -1    0    0  501    0  0.00000000000E+00 -0.00000000000E+00 -0.11567611191E+04  0.11567611191E+04  0.00000000000E+00 0.  1.
         23    2    1    2    0    0 -0.17425777866E+03 -0.69238251292E+03 -0.87527663270E+03  0.11332681103E+04  0.91804729884E+02 0.  0.
         13    1    3    3    0    0 -0.17098227553E+02 -0.24631228779E+03 -0.29911978337E+03  0.38785917200E+03  0.00000000000E+00 0. -1.
        -13    1    3    3    0    0 -0.15715955111E+03 -0.44607022512E+03 -0.57615684933E+03  0.74540893829E+03  0.00000000000E+00 0.  1.
         22    1    1    2    0    0  0.17425777866E+03  0.69238251292E+03  0.68324393050E+03  0.98822142568E+03  0.00000000000E+00 0. -1.
<mgrwt>
<rscale>  0 0.21127805E+04</rscale>
<asrwt>0</asrwt>
<pdfrwt beam="1">  1        2 0.17796325E+00 0.21127805E+04</pdfrwt>
<pdfrwt beam="2">  1       -2 0.14841976E+00 0.21127805E+04</pdfrwt>
<totfact> 0.57054396E+00</totfact>
</mgrwt>
</event>
<event>
 6    1  0.5026615E-004  0.6705346E+03  0.7818608E-02  0.9768992E-01
         -2   -1    0    0    0  501 -0.00000000000E+00  0.00000000000E+00  0.28001973869E+03  0.28001973869E+03  0.00000000000E+00 0. -1.
          2   -1    0    0  501    0  0.00000000000E+00 -0.00000000000E+00 -0.40141519600E+03  0.40141519600E+03  0.00000000000E+00 0.  1.
         23    2    1    2    0    0  0.93345474680E+01 -0.20216572438E+03 -0.32572493636E+03  0.39384381888E+03  0.89766951683E+02 0.  0.
         13    1    3    3    0    0  0.18710883627E+02 -0.16171096605E+03 -0.30863883056E+03  0.34893905118E+03  0.00000000000E+00 0.  1.
        -13    1    3    3    0    0 -0.93763361595E+01 -0.40454758321E+02 -0.17086105794E+02  0.44904767695E+02  0.00000000000E+00 0. -1.
         22    1    1    2    0    0 -0.93345474680E+01  0.20216572438E+03  0.20432947904E+03  0.28759111581E+03  0.00000000000E+00 0. -1.
<mgrwt>
<rscale>  0 0.67053465E+03</rscale>
<asrwt>0</asrwt>
<pdfrwt beam="1">  1        2 0.61756184E-01 0.67053465E+03</pdfrwt>
<pdfrwt beam="2">  1       -2 0.43079960E-01 0.67053465E+03</pdfrwt>
<totfact> 0.40811117E+02</totfact>
</mgrwt>
</event>
<event>
 6    1  0.5026615E-004  0.1572295E+04  0.7818608E-02  0.8837751E-01
          2   -1    0    0  501    0  0.00000000000E+00  0.00000000000E+00  0.19033854639E+04  0.19033854639E+04  0.00000000000E+00 0.  1.
         -2   -1    0    0    0  501 -0.00000000000E+00 -0.00000000000E+00 -0.32469932370E+03  0.32469932370E+03  0.00000000000E+00 0. -1.
         23    2    1    2    0    0  0.32367670143E+02 -0.37621873949E+03  0.17647442886E+04  0.18071265466E+04  0.93785635120E+02 0.  0.
         13    1    3    3    0    0 -0.24476559047E+02 -0.12812268297E+03  0.72818479059E+03  0.73977538015E+03  0.00000000000E+00 0. -1.
        -13    1    3    3    0    0  0.56844229189E+02 -0.24809605652E+03  0.10365594980E+04  0.10673511665E+04  0.00000000000E+00 0.  1.
         22    1    1    2    0    0 -0.32367670143E+02  0.37621873949E+03 -0.18605814844E+03  0.42095824094E+03  0.00000000000E+00 0. -1.
<mgrwt>
<rscale>  0 0.15722951E+04</rscale>
<asrwt>0</asrwt>
<pdfrwt beam="1">  1        2 0.29282853E+00 0.15722951E+04</pdfrwt>
<pdfrwt beam="2">  1       -2 0.49953743E-01 0.15722951E+04</pdfrwt>
<totfact> 0.27548473E+01</totfact>
</mgrwt>
</event>
<event>
 6    1  0.5026615E-004  0.3657217E+04  0.7818608E-02  0.8077510E-01
          2   -1    0    0  501    0  0.00000000000E+00  0.00000000000E+00  0.23308949831E+04  0.23308949831E+04  0.00000000000E+00 0.  1.
         -2   -1    0    0    0  501 -0.00000000000E+00 -0.00000000000E+00 -0.14345604314E+04  0.14345604314E+04  0.00000000000E+00 0. -1.
         23    2    1    2    0    0  0.21388009625E+03 -0.58876367111E+03  0.22160272570E+04  0.23046418766E+04  0.90609160888E+02 0.  0.
         13    1    3    3    0    0  0.33316800138E+01 -0.62076216600E+02  0.30227700868E+03  0.30860321893E+03  0.00000000000E+00 0. -1.
        -13    1    3    3    0    0  0.21054841624E+03 -0.52668745451E+03  0.19137502483E+04  0.19960386577E+04  0.00000000000E+00 0.  1.
         22    1    1    2    0    0 -0.21388009625E+03  0.58876367111E+03 -0.13196927053E+04  0.14608135379E+04  0.00000000000E+00 0. -1.
<mgrwt>
<rscale>  0 0.36572174E+04</rscale>
<asrwt>0</asrwt>
<pdfrwt beam="1">  1        2 0.35859923E+00 0.36572174E+04</pdfrwt>
<pdfrwt beam="2">  1       -2 0.22070160E+00 0.36572174E+04</pdfrwt>
<totfact> 0.34553730E-01</totfact>
</mgrwt>
</event>
<event>
 6    1  0.5026615E-004  0.1645112E+04  0.7818608E-02  0.8793303E-01
         -2   -1    0    0    0  501 -0.00000000000E+00  0.00000000000E+00  0.64481482348E+03  0.64481482348E+03  0.00000000000E+00 0. -1.
          2   -1    0    0  501    0  0.00000000000E+00 -0.00000000000E+00 -0.10492909203E+04  0.10492909203E+04  0.00000000000E+00 0.  1.
         23    2    1    2    0    0 -0.34733623321E+03  0.21048126966E+02  0.56180821965E+03  0.66707562600E+03  0.90972152803E+02 0.  0.
         11    1    3    3    0    0 -0.18255584599E+03 -0.20515487166E+02  0.35220805953E+03  0.39723801343E+03  0.00000000000E+00 0. -1.
        -11    1    3    3    0    0 -0.16478038723E+03  0.41563614132E+02  0.20960016012E+03  0.26983761257E+03  0.00000000000E+00 0.  1.
         22    1    1    2    0    0  0.34733623321E+03 -0.21048126966E+02 -0.96628431652E+03  0.10270301178E+04  0.00000000000E+00 0.  1.
<mgrwt>
<rscale>  0 0.16451120E+04</rscale>
<asrwt>0</asrwt>
<pdfrwt beam="1">  1        2 0.16142937E+00 0.16451120E+04</pdfrwt>
<pdfrwt beam="2">  1       -2 0.99202281E-01 0.16451120E+04</pdfrwt>
<totfact> 0.18853965E+01</totfact>
</mgrwt>
</event>
<event>
 6    1  0.5026615E-004  0.6054121E+04  0.7818608E-02  0.7683727E-01
         -2   -1    0    0    0  501 -0.00000000000E+00  0.00000000000E+00  0.39224919870E+04  0.39224919870E+04  0.00000000000E+00 0. -1.
          2   -1    0    0  501    0  0.00000000000E+00 -0.00000000000E+00 -0.23360395394E+04  0.23360395394E+04  0.00000000000E+00 0.  1.
         23    2    1    2    0    0  0.15173388453E+04  0.22445810357E+04  0.21874217171E+04  0.34833513052E+04  0.91985595164E+02 0.  0.
         11    1    3    3    0    0  0.71516910748E+03  0.11207615770E+04  0.11110911816E+04  0.17326560474E+04  0.00000000000E+00 0. -1.
        -11    1    3    3    0    0  0.80216973781E+03  0.11238194588E+04  0.10763305355E+04  0.17506952578E+04  0.00000000000E+00 0.  1.
         22    1    1    2    0    0 -0.15173388453E+04 -0.22445810357E+04 -0.60096926940E+03  0.27751802212E+04  0.00000000000E+00 0.  1.
<mgrwt>
<rscale>  0 0.60541214E+04</rscale>
<asrwt>0</asrwt>
<pdfrwt beam="1">  1        2 0.35939070E+00 0.60541214E+04</pdfrwt>
<pdfrwt beam="2">  1       -2 0.60346030E+00 0.60541214E+04</pdfrwt>
<totfact> 0.14575301E-03</totfact>
</mgrwt>
</event>
<event>
 6    1  0.5026615E-004  0.1728981E+04  0.7818608E-02  0.8745006E-01
         -2   -1    0    0    0  501 -0.00000000000E+00  0.00000000000E+00  0.30650810527E+03  0.30650810527E+03  0.00000000000E+00 0. -1.
          2   -1    0    0  501    0  0.00000000000E+00 -0.00000000000E+00 -0.24382512135E+04  0.24382512135E+04  0.00000000000E+00 0.  1.
         23    2    1    2    0    0 -0.65213028137E+02 -0.72114953369E+03 -0.32759587005E+03  0.80072828867E+03  0.97659352915E+02 0.  0.
         11    1    3    3    0    0 -0.39419672582E+02 -0.82502041768E+02 -0.43930413025E+02  0.10144150369E+03  0.00000000000E+00 0. -1.
        -11    1    3    3    0    0 -0.25793355555E+02 -0.63864749192E+03 -0.28366545703E+03  0.69928678498E+03  0.00000000000E+00 0.  1.
         22    1    1    2    0    0  0.65213028137E+02  0.72114953369E+03 -0.18041472381E+04  0.19440310301E+04  0.00000000000E+00 0. -1.
<mgrwt>
<rscale>  0 0.17289809E+04</rscale>
<asrwt>0</asrwt>
<pdfrwt beam="1">  1        2 0.37511559E+00 0.17289809E+04</pdfrwt>
<pdfrwt beam="2">  1       -2 0.47155091E-01 0.17289809E+04</pdfrwt>
<totfact> 0.15313013E+01</totfact>
</mgrwt>
</event>
<event>
 6    1  0.5026615E-004  0.1829046E+04  0.7818608E-02  0.8691004E-01
         -2   -1    0    0    0  501 -0.00000000000E+00  0.00000000000E+00  0.49682261587E+03  0.49682261587E+03  0.00000000000E+00 0. -1.
          2   -1    0    0  501    0  0.00000000000E+00 -0.00000000000E+00 -0.16834022288E+04  0.16834022288E+04  0.00000000000E+00 0.  1.
         23    2    1    2    0    0  0.25957764219E+03 -0.41729783560E+03 -0.15109002209E+04  0.15914108735E+04  0.90835318051E+02 0.  0.
         11    1    3    3    0    0  0.18079033749E+03 -0.22288438178E+03 -0.78533420679E+03  0.83612942188E+03  0.00000000000E+00 0. -1.
        -11    1    3    3    0    0  0.78787304703E+02 -0.19441345382E+03 -0.72556601408E+03  0.75528145164E+03  0.00000000000E+00 0.  1.
         22    1    1    2    0    0 -0.25957764219E+03  0.41729783560E+03  0.32432060793E+03  0.58881397117E+03  0.00000000000E+00 0. -1.
<mgrwt>
<rscale>  0 0.18290460E+04</rscale>
<asrwt>0</asrwt>
<pdfrwt beam="1">  1        2 0.25898496E+00 0.18290460E+04</pdfrwt>
<pdfrwt beam="2">  1       -2 0.76434249E-01 0.18290460E+04</pdfrwt>
<totfact> 0.14444132E+01</totfact>
</mgrwt>
</event>
<event>
 6    1  0.5026615E-004  0.3114147E+04  0.7818608E-02  0.8211866E-01
          2   -1    0    0  501    0  0.00000000000E+00  0.00000000000E+00  0.12395056384E+04  0.12395056384E+04  0.00000000000E+00 0.  1.
         -2   -1    0    0    0  501 -0.00000000000E+00 -0.00000000000E+00 -0.19560044395E+04  0.19560044395E+04  0.00000000000E+00 0. -1.
         23    2    1    2    0    0  0.10145756315E+04 -0.11043637574E+04  0.66089062685E+02  0.15039348400E+04  0.92028354669E+02 0.  0.
         11    1    3    3    0    0  0.25813817566E+03 -0.25325775570E+03 -0.18675854215E+02  0.36210992266E+03  0.00000000000E+00 0. -1.
        -11    1    3    3    0    0  0.75643745584E+03 -0.85110600170E+03  0.84764916900E+02  0.11418249173E+04  0.00000000000E+00 0.  1.
         22    1    1    2    0    0 -0.10145756315E+04  0.11043637574E+04 -0.78258786379E+03  0.16915752378E+04  0.00000000000E+00 0. -1.
<mgrwt>
<rscale>  0 0.31141474E+04</rscale>
<asrwt>0</asrwt>
<pdfrwt beam="1">  1        2 0.19069318E+00 0.31141474E+04</pdfrwt>
<pdfrwt beam="2">  1       -2 0.30092376E+00 0.31141474E+04</pdfrwt>
<totfact> 0.47730347E-01</totfact>
</mgrwt>
</event>
<event>
 6    1  0.5026615E-004  0.2414689E+04  0.7818608E-02  0.8434025E-01
         -2   -1    0    0    0  501 -0.00000000000E+00  0.00000000000E+00  0.94365838289E+03  0.94365838289E+03  0.00000000000E+00 0. -1.
          2   -1    0    0  501    0  0.00000000000E+00 -0.00000000000E+00 -0.15447124781E+04  0.15447124781E+04  0.00000000000E+00 0.  1.
         23    2    1    2    0    0  0.80793839075E+03 -0.89428087301E+03 -0.33992897537E+03  0.12552086448E+04  0.86569687032E+02 0.  0.
         11    1    3    3    0    0  0.29668590155E+03 -0.26856454029E+03 -0.11998266839E+03  0.41778616204E+03  0.00000000000E+00 0.  1.
        -11    1    3    3    0    0  0.51125248920E+03 -0.62571633272E+03 -0.21994630698E+03  0.83742248280E+03  0.00000000000E+00 0. -1.
         22    1    1    2    0    0 -0.80793839075E+03  0.89428087301E+03 -0.26112511983E+03  0.12331622161E+04  0.00000000000E+00 0. -1.
<mgrwt>
<rscale>  0 0.24146891E+04</rscale>
<asrwt>0</asrwt>
<pdfrwt beam="1">  1        2 0.23764807E+00 0.24146891E+04</pdfrwt>
<pdfrwt beam="2">  1       -2 0.14517821E+00 0.24146891E+04</pdfrwt>
<totfact> 0.35143604E+00</totfact>
</mgrwt>
</event>
<event>
 6    1  0.5026615E-004  0.2989297E+04  0.7818608E-02  0.8246794E-01
          2   -1    0    0  501    0  0.00000000000E+00  0.00000000000E+00  0.29164743282E+04  0.29164743282E+04  0.00000000000E+00 0.  1.
         -2   -1    0    0    0  501 -0.00000000000E+00 -0.00000000000E+00 -0.76598447322E+03  0.76598447322E+03  0.00000000000E+00 0. -1.
         23    2    1    2    0    0 -0.82154670888E+03  0.94964919493E+03  0.80742132739E+02  0.12615853595E+04  0.91135826636E+02 0.  0.
         13    1    3    3    0    0 -0.38595751841E+03  0.49804090610E+03  0.70904730709E+02  0.63406263965E+03  0.00000000000E+00 0. -1.
        -13    1    3    3    0    0 -0.43558919047E+03  0.45160828884E+03  0.98374020298E+01  0.62752271981E+03  0.00000000000E+00 0.  1.
         22    1    1    2    0    0  0.82154670888E+03 -0.94964919493E+03  0.20697477223E+04  0.24208734420E+04  0.00000000000E+00 0.  1.
<mgrwt>
<rscale>  0 0.29892969E+04</rscale>
<asrwt>0</asrwt>
<pdfrwt beam="1">  1        2 0.44868835E+00 0.29892969E+04</pdfrwt>
<pdfrwt beam="2">  1       -2 0.11784377E+00 0.29892969E+04</pdfrwt>
<totfact> 0.93340246E-01</totfact>
</mgrwt>
</event>
<event>
 6    1  0.5026615E-004  0.2762384E+04  0.7818608E-02  0.8315043E-01
          1   -1    0    0  501    0  0.00000000000E+00  0.00000000000E+00  0.31039420255E+04  0.31039420255E+04  0.00000000000E+00 0.  1.
         -1   -1    0    0    0  501 -0.00000000000E+00 -0.00000000000E+00 -0.61460294904E+03  0.61460294904E+03  0.00000000000E+00 0. -1.
         23    2    1    2    0    0 -0.79481603982E+03 -0.99075341754E+03  0.52077115318E+03  0.13757721430E+04  0.90672620006E+02 0.  0.
         11    1    3    3    0    0 -0.48281338955E+03 -0.64004078566E+03  0.36781927919E+03  0.88207255857E+03  0.00000000000E+00 0.  1.
        -11    1    3    3    0    0 -0.31200265027E+03 -0.35071263188E+03  0.15295187399E+03  0.49369958446E+03  0.00000000000E+00 0. -1.
         22    1    1    2    0    0  0.79481603982E+03  0.99075341754E+03  0.19685679233E+04  0.23427728315E+04  0.00000000000E+00 0.  1.
<mgrwt>
<rscale>  0 0.27623844E+04</rscale>
<asrwt>0</asrwt>
<pdfrwt beam="1">  1        1 0.47752953E+00 0.27623844E+04</pdfrwt>
<pdfrwt beam="2">  1       -1 0.94554302E-01 0.27623844E+04</pdfrwt>
<totfact> 0.47088697E-01</totfact>
</mgrwt>
</event>
<event>
 6    1  0.5026615E-004  0.3808463E+04  0.7818608E-02  0.8044341E-01
          2   -1    0    0  501    0  0.00000000000E+00  0.00000000000E+00  0.17152547623E+04  0.17152547623E+04  0.00000000000E+00 0.  1.
         -2   -1    0    0    0  501 -0.00000000000E+00 -0.00000000000E+00 -0.21140290559E+04  0.21140290559E+04  0.00000000000E+00 0. -1.
         23    2    1    2    0    0  0.88927845333E+03  0.12733530764E+04 -0.13054267845E+04  0.20308781454E+04  0.89903987260E+02 0.  0.
         13    1    3    3    0    0  0.10286535193E+03  0.14767984124E+03 -0.19059794614E+03  0.26214155185E+03  0.00000000000E+00 0. -1.
        -13    1    3    3    0    0  0.78641310139E+03  0.11256732352E+04 -0.11148288384E+04  0.17687365935E+04  0.00000000000E+00 0.  1.
         22    1    1    2    0    0 -0.88927845333E+03 -0.12733530764E+04  0.90665249094E+03  0.17984056728E+04  0.00000000000E+00 0.  1.
<mgrwt>
<rscale>  0 0.38084634E+04</rscale>
<asrwt>0</asrwt>
<pdfrwt beam="1">  1        2 0.26388535E+00 0.38084634E+04</pdfrwt>
<pdfrwt beam="2">  1       -2 0.32523524E+00 0.38084634E+04</pdfrwt>
<totfact> 0.17121045E-01</totfact>
</mgrwt>
</event>
<event>
 6    1  0.5026615E-004  0.3004332E+04  0.7818608E-02  0.8242495E-01
          2   -1    0    0  501    0  0.00000000000E+00  0.00000000000E+00  0.12281403655E+04  0.12281403655E+04  0.00000000000E+00 0.  1.
         -2   -1    0    0    0  501 -0.00000000000E+00 -0.00000000000E+00 -0.18373334392E+04  0.18373334392E+04  0.00000000000E+00 0. -1.
         23    2    1    2    0    0 -0.23686944127E+03  0.11611376132E+03 -0.18123563902E+04  0.18337305264E+04  0.91336851557E+02 0.  0.
         13    1    3    3    0    0 -0.13552747611E+03  0.10568521412E+03 -0.13030336552E+04  0.13143187467E+04  0.00000000000E+00 0. -1.
        -13    1    3    3    0    0 -0.10134196515E+03  0.10428547203E+02 -0.50932273495E+03  0.51941177965E+03  0.00000000000E+00 0.  1.
         22    1    1    2    0    0  0.23686944127E+03 -0.11611376132E+03  0.12031633165E+04  0.12317432784E+04  0.00000000000E+00 0.  1.
<mgrwt>
<rscale>  0 0.30043324E+04</rscale>
<asrwt>0</asrwt>
<pdfrwt beam="1">  1        2 0.18894467E+00 0.30043324E+04</pdfrwt>
<pdfrwt beam="2">  1       -2 0.28266668E+00 0.30043324E+04</pdfrwt>
<totfact> 0.63252056E-01</totfact>
</mgrwt>
</event>
<event>
 6    1  0.5026615E-004  0.8130680E+03  0.7818608E-02  0.9541292E-01
          2   -1    0    0  501    0  0.00000000000E+00  0.00000000000E+00  0.30132264307E+04  0.30132264307E+04  0.00000000000E+00 0.  1.
         -2   -1    0    0    0  501 -0.00000000000E+00 -0.00000000000E+00 -0.54848150898E+02  0.54848150898E+02  0.00000000000E+00 0. -1.
         23    2    1    2    0    0  0.58417343487E+01  0.23976356004E+03  0.27126580345E+04  0.27247101549E+04  0.89504890398E+02 0.  0.
         11    1    3    3    0    0 -0.40808130433E+02  0.11155024926E+03  0.11573732804E+04  0.11634524794E+04  0.00000000000E+00 0.  1.
        -11    1    3    3    0    0  0.46649864782E+02  0.12821331078E+03  0.15552847542E+04  0.15612576756E+04  0.00000000000E+00 0. -1.
         22    1    1    2    0    0 -0.58417343487E+01 -0.23976356004E+03  0.24572024531E+03  0.34336442672E+03  0.00000000000E+00 0. -1.
<mgrwt>
<rscale>  0 0.81306801E+03</rscale>
<asrwt>0</asrwt>
<pdfrwt beam="1">  1        2 0.46357317E+00 0.81306801E+03</pdfrwt>
<pdfrwt beam="2">  1       -2 0.84381794E-02 0.81306801E+03</pdfrwt>
<totfact> 0.16175073E+02</totfact>
</mgrwt>
</event>
<event>
 6    1  0.5026615E-004  0.7834445E+03  0.7818608E-02  0.9584295E-01
         -4   -1    0    0    0  501 -0.00000000000E+00  0.00000000000E+00  0.79993983296E+03  0.79993983296E+03  0.00000000000E+00 0. -1.
          4   -1    0    0  501    0  0.00000000000E+00 -0.00000000000E+00 -0.19182232261E+03  0.19182232261E+03  0.00000000000E+00 0.  1.
         23    2    1    2    0    0 -0.18700326794E+03 -0.31586827275E+03  0.46247856231E+03  0.59685243027E+03  0.87197562901E+02 0.  0.
         13    1    3    3    0    0 -0.18732677732E+03 -0.28637147421E+03  0.44869219336E+03  0.56429126090E+03  0.00000000000E+00 0.  1.
        -13    1    3    3    0    0  0.32350937565E+00 -0.29496798540E+02  0.13786368951E+02  0.32561169378E+02  0.00000000000E+00 0. -1.
         22    1    1    2    0    0  0.18700326794E+03  0.31586827275E+03  0.14563894803E+03  0.39490972530E+03  0.00000000000E+00 0.  1.
<mgrwt>
<rscale>  0 0.78344449E+03</rscale>
<asrwt>0</asrwt>
<pdfrwt beam="1">  1        4 0.29511127E-01 0.78344449E+03</pdfrwt>
<pdfrwt beam="2">  1       -4 0.12306766E+00 0.78344449E+03</pdfrwt>
<totfact> 0.10986634E+01</totfact>
</mgrwt>
</event>
<event>
 6    1  0.5026615E-004  0.2938170E+04  0.7818608E-02  0.8261611E-01
         -1   -1    0    0    0  501 -0.00000000000E+00  0.00000000000E+00  0.10466142005E+04  0.10466142005E+04  0.00000000000E+00 0. -1.
          1   -1    0    0  501    0  0.00000000000E+00 -0.00000000000E+00 -0.20620877093E+04  0.20620877093E+04  0.00000000000E+00 0.  1.
         23    2    1    2    0    0  0.21859560015E+03  0.10414834203E+04 -0.15764889759E+04  0.19057014503E+04  0.11793547162E+03 0.  0.
         13    1    3    3    0    0  0.14401833684E+03  0.42000738362E+03 -0.68940550270E+03  0.82001672592E+03  0.00000000000E+00 0. -1.
        -13    1    3    3    0    0  0.74577263309E+02  0.62147603668E+03 -0.88708347323E+03  0.10856847244E+04  0.00000000000E+00 0.  1.
         22    1    1    2    0    0 -0.21859560015E+03 -0.10414834203E+04  0.56101546706E+03  0.12030004594E+04  0.00000000000E+00 0. -1.
<mgrwt>
<rscale>  0 0.29381697E+04</rscale>
<asrwt>0</asrwt>
<pdfrwt beam="1">  1        1 0.31724426E+00 0.29381697E+04</pdfrwt>
<pdfrwt beam="2">  1       -1 0.16101757E+00 0.29381697E+04</pdfrwt>
<totfact> 0.66420412E-01</totfact>
</mgrwt>
</event>
<event>
 6    1  0.5026615E-004  0.3449326E+04  0.7818608E-02  0.8125905E-01
          2   -1    0    0  501    0  0.00000000000E+00  0.00000000000E+00  0.29789777580E+04  0.29789777580E+04  0.00000000000E+00 0. -1.
         -2   -1    0    0    0  501 -0.00000000000E+00 -0.00000000000E+00 -0.99848420967E+03  0.99848420967E+03  0.00000000000E+00 0.  1.
         23    2    1    2    0    0 -0.15832142020E+04  0.17464639803E+03  0.23207763357E+03  0.16122924632E+04  0.92511539474E+02 0.  0.
         13    1    3    3    0    0 -0.10921207475E+04  0.87236136812E+02  0.13177116809E+03  0.11034951343E+04  0.00000000000E+00 0. -1.
        -13    1    3    3    0    0 -0.49109345458E+03  0.87410261217E+02  0.10030646547E+03  0.50879732891E+03  0.00000000000E+00 0.  1.
         22    1    1    2    0    0  0.15832142020E+04 -0.17464639803E+03  0.17484159147E+04  0.23651695045E+04  0.00000000000E+00 0.  1.
<mgrwt>
<rscale>  0 0.34493259E+04</rscale>
<asrwt>0</asrwt>
<pdfrwt beam="1">  1        2 0.45830427E+00 0.34493259E+04</pdfrwt>
<pdfrwt beam="2">  1       -2 0.15361296E+00 0.34493259E+04</pdfrwt>
<totfact> 0.41614927E-01</totfact>
</mgrwt>
</event>
<event>
 6    1  0.5026615E-004  0.2644752E+04  0.7818608E-02  0.8353157E-01
         -2   -1    0    0    0  501 -0.00000000000E+00  0.00000000000E+00  0.44757161534E+03  0.44757161534E+03  0.00000000000E+00 0. -1.
          2   -1    0    0  501    0  0.00000000000E+00 -0.00000000000E+00 -0.39070344559E+04  0.39070344559E+04  0.00000000000E+00 0.  1.
         23    2    1    2    0    0  0.99135839553E+03  0.39048937530E+03 -0.44638079681E+03  0.11586810372E+04  0.89512622923E+02 0.  0.
         13    1    3    3    0    0  0.58272951933E+03  0.18213512705E+03 -0.25943319940E+03  0.66336451681E+03  0.00000000000E+00 0.  1.
        -13    1    3    3    0    0  0.40862887620E+03  0.20835424825E+03 -0.18694759741E+03  0.49531652042E+03  0.00000000000E+00 0. -1.
         22    1    1    2    0    0 -0.99135839553E+03 -0.39048937530E+03 -0.30130820438E+04  0.31959250340E+04  0.00000000000E+00 0.  1.
<mgrwt>
<rscale>  0 0.26447516E+04</rscale>
<asrwt>0</asrwt>
<pdfrwt beam="1">  1        2 0.60108223E+00 0.26447516E+04</pdfrwt>
<pdfrwt beam="2">  1       -2 0.68857171E-01 0.26447516E+04</pdfrwt>
<totfact> 0.69037461E-01</totfact>
</mgrwt>
</event>
<event>
 6    1  0.5026615E-004  0.2331612E+04  0.7818608E-02  0.8465560E-01
          2   -1    0    0  501    0  0.00000000000E+00  0.00000000000E+00  0.31756880560E+04  0.31756880560E+04  0.00000000000E+00 0.  1.
         -2   -1    0    0    0  501 -0.00000000000E+00 -0.00000000000E+00 -0.42797138263E+03  0.42797138263E+03  0.00000000000E+00 0. -1.
         23    2    1    2    0    0  0.43287743177E+03 -0.97547901235E+03  0.65695841048E+03  0.12562753013E+04  0.87698945435E+02 0.  0.
         13    1    3    3    0    0  0.71525336510E+02 -0.24922579163E+03  0.14567810796E+03  0.29740793553E+03  0.00000000000E+00 0. -1.
        -13    1    3    3    0    0  0.36135209526E+03 -0.72625322072E+03  0.51128030252E+03  0.95886736575E+03  0.00000000000E+00 0.  1.
         22    1    1    2    0    0 -0.43287743177E+03  0.97547901235E+03  0.20907582629E+04  0.23473841373E+04  0.00000000000E+00 0.  1.
<mgrwt>
<rscale>  0 0.23316120E+04</rscale>
<asrwt>0</asrwt>
<pdfrwt beam="1">  1        2 0.48856738E+00 0.23316120E+04</pdfrwt>
<pdfrwt beam="2">  1       -2 0.65841753E-01 0.23316120E+04</pdfrwt>
<totfact> 0.25855630E+00</totfact>
</mgrwt>
</event>
<event>
 6    1  0.5026615E-004  0.1693254E+04  0.7818608E-02  0.8765221E-01
         -2   -1    0    0    0  501 -0.00000000000E+00  0.00000000000E+00  0.72126610834E+03  0.72126610834E+03  0.00000000000E+00 0. -1.
          2   -1    0    0  501    0  0.00000000000E+00 -0.00000000000E+00 -0.99377693492E+03  0.99377693492E+03  0.00000000000E+00 0.  1.
         23    2    1    2    0    0  0.97780030200E+02  0.83843499638E+03 -0.12946960212E+03  0.85889178948E+03  0.91643606977E+02 0.  0.
         11    1    3    3    0    0  0.95397266730E+01  0.42583614015E+03 -0.87915989216E+02  0.43492142486E+03  0.00000000000E+00 0. -1.
        -11    1    3    3    0    0  0.88240303527E+02  0.41259885623E+03 -0.41553612903E+02  0.42397036462E+03  0.00000000000E+00 0.  1.
         22    1    1    2    0    0 -0.97780030200E+02 -0.83843499638E+03 -0.14304122446E+03  0.85615125378E+03  0.00000000000E+00 0. -1.
<mgrwt>
<rscale>  0 0.16932544E+04</rscale>
<asrwt>0</asrwt>
<pdfrwt beam="1">  1        2 0.15288876E+00 0.16932544E+04</pdfrwt>
<pdfrwt beam="2">  1       -2 0.11096402E+00 0.16932544E+04</pdfrwt>
<totfact> 0.15570864E+01</totfact>
</mgrwt>
</event>
<event>
 6    1  0.5026615E-004  0.1837867E+04  0.7818608E-02  0.8686418E-01
         -2   -1    0    0    0  501 -0.00000000000E+00  0.00000000000E+00  0.59944820358E+03  0.59944820358E+03  0.00000000000E+00 0.  1.
          2   -1    0    0  501    0  0.00000000000E+00 -0.00000000000E+00 -0.14086930880E+04  0.14086930880E+04  0.00000000000E+00 0. -1.
         23    2    1    2    0    0 -0.42776224276E+03 -0.81047860086E+03 -0.42581440514E+03  0.10147254516E+04  0.92161465162E+02 0.  0.
         13    1    3    3    0    0 -0.30649219583E+03 -0.52521715405E+03 -0.32022545414E+03  0.68726622680E+03  0.00000000000E+00 0. -1.
        -13    1    3    3    0    0 -0.12127004692E+03 -0.28526144681E+03 -0.10558895100E+03  0.32745922477E+03  0.00000000000E+00 0.  1.
         22    1    1    2    0    0  0.42776224276E+03  0.81047860086E+03 -0.38343047931E+03  0.99341584004E+03  0.00000000000E+00 0.  1.
<mgrwt>
<rscale>  0 0.18378667E+04</rscale>
<asrwt>0</asrwt>
<pdfrwt beam="1">  1        2 0.21672201E+00 0.18378667E+04</pdfrwt>
<pdfrwt beam="2">  1       -2 0.92222802E-01 0.18378667E+04</pdfrwt>
<totfact> 0.13449143E+01</totfact>
</mgrwt>
</event>
<event>
 6    1  0.5026615E-004  0.1748173E+04  0.7818608E-02  0.8734357E-01
          2   -1    0    0  501    0  0.00000000000E+00  0.00000000000E+00  0.21519749059E+04  0.21519749059E+04  0.00000000000E+00 0.  1.
         -2   -1    0    0    0  501 -0.00000000000E+00 -0.00000000000E+00 -0.35503524988E+03  0.35503524988E+03  0.00000000000E+00 0. -1.
         23    2    1    2    0    0 -0.58579679530E+03 -0.58127704248E+03  0.49677870890E+03  0.96705581427E+03  0.85831094652E+02 0.  0.
         11    1    3    3    0    0 -0.54630420298E+03 -0.53674979998E+03  0.48460489800E+03  0.90630598428E+03  0.00000000000E+00 0. -1.
        -11    1    3    3    0    0 -0.39492592314E+02 -0.44527242497E+02  0.12173810896E+02  0.60749829990E+02  0.00000000000E+00 0.  1.
         22    1    1    2    0    0  0.58579679530E+03  0.58127704248E+03  0.13001609471E+04  0.15399543415E+04  0.00000000000E+00 0.  1.
<mgrwt>
<rscale>  0 0.17481727E+04</rscale>
<asrwt>0</asrwt>
<pdfrwt beam="1">  1        2 0.33107305E+00 0.17481727E+04</pdfrwt>
<pdfrwt beam="2">  1       -2 0.54620809E-01 0.17481727E+04</pdfrwt>
<totfact> 0.16434115E+01</totfact>
</mgrwt>
</event>
<event>
 6    1  0.5026615E-004  0.4409393E+03  0.7818608E-02  0.1030459E+00
         -2   -1    0    0    0  501 -0.00000000000E+00  0.00000000000E+00  0.58950268143E+02  0.58950268143E+02  0.00000000000E+00 0. -1.
          2   -1    0    0  501    0  0.00000000000E+00 -0.00000000000E+00 -0.82454008833E+03  0.82454008833E+03  0.00000000000E+00 0.  1.
         23    2    1    2    0    0  0.55088814031E+02  0.19935797651E+03 -0.47938987259E+03  0.53037735723E+03  0.93311901106E+02 0.  0.
         11    1    3    3    0    0  0.66713516426E+02  0.15347250813E+03 -0.28676828580E+03  0.33202492944E+03  0.00000000000E+00 0.  1.
        -11    1    3    3    0    0 -0.11624702394E+02  0.45885468385E+02 -0.19262158678E+03  0.19835242779E+03  0.00000000000E+00 0. -1.
         22    1    1    2    0    0 -0.55088814031E+02 -0.19935797651E+03 -0.28619994760E+03  0.35311299925E+03  0.00000000000E+00 0. -1.
<mgrwt>
<rscale>  0 0.44093927E+03</rscale>
<asrwt>0</asrwt>
<pdfrwt beam="1">  1        2 0.12685232E+00 0.44093927E+03</pdfrwt>
<pdfrwt beam="2">  1       -2 0.90692724E-02 0.44093927E+03</pdfrwt>
<totfact> 0.26568212E+03</totfact>
</mgrwt>
</event>
<event>
 6    1  0.5026615E-004  0.1751825E+04  0.7818608E-02  0.8732346E-01
         -2   -1    0    0    0  501 -0.00000000000E+00  0.00000000000E+00  0.70825041379E+03  0.70825041379E+03  0.00000000000E+00 0. -1.
          2   -1    0    0  501    0  0.00000000000E+00 -0.00000000000E+00 -0.10832647444E+04  0.10832647444E+04  0.00000000000E+00 0.  1.
         23    2    1    2    0    0 -0.33243029378E+03  0.78937113163E+03 -0.13066202387E+02  0.86166402430E+03  0.93153000263E+02 0.  0.
         11    1    3    3    0    0 -0.18780476643E+03  0.53459564496E+03 -0.36269678824E+02  0.56778395847E+03  0.00000000000E+00 0.  1.
        -11    1    3    3    0    0 -0.14462552736E+03  0.25477548667E+03  0.23203476437E+02  0.29388006583E+03  0.00000000000E+00 0. -1.
         22    1    1    2    0    0  0.33243029378E+03 -0.78937113163E+03 -0.36194812824E+03  0.92985113390E+03  0.00000000000E+00 0.  1.
<mgrwt>
<rscale>  0 0.17518250E+04</rscale>
<asrwt>0</asrwt>
<pdfrwt beam="1">  1        2 0.16665611E+00 0.17518250E+04</pdfrwt>
<pdfrwt beam="2">  1       -2 0.10896160E+00 0.17518250E+04</pdfrwt>
<totfact> 0.14218050E+01</totfact>
</mgrwt>
</event>
<event>
 6    1  0.5026615E-004  0.2058390E+04  0.7818608E-02  0.8579798E-01
          2   -1    0    0  501    0  0.00000000000E+00  0.00000000000E+00  0.24609943113E+04  0.24609943113E+04  0.00000000000E+00 0. -1.
         -2   -1    0    0    0  501 -0.00000000000E+00 -0.00000000000E+00 -0.43041245734E+03  0.43041245734E+03  0.00000000000E+00 0.  1.
         23    2    1    2    0    0  0.23971941237E+03 -0.26172638669E+03  0.23713309172E+04  0.23993945510E+04  0.88981986337E+02 0.  0.
         13    1    3    3    0    0  0.17117850730E+03 -0.14598206765E+03  0.12569705655E+04  0.12769447317E+04  0.00000000000E+00 0. -1.
        -13    1    3    3    0    0  0.68540905068E+02 -0.11574431904E+03  0.11143603518E+04  0.11224498192E+04  0.00000000000E+00 0.  1.
         22    1    1    2    0    0 -0.23971941237E+03  0.26172638669E+03 -0.34074906332E+03  0.49201221765E+03  0.00000000000E+00 0.  1.
<mgrwt>
<rscale>  0 0.20583903E+04</rscale>
<asrwt>0</asrwt>
<pdfrwt beam="1">  1        2 0.37861450E+00 0.20583903E+04</pdfrwt>
<pdfrwt beam="2">  1       -2 0.66217302E-01 0.20583903E+04</pdfrwt>
<totfact> 0.71142368E+00</totfact>
</mgrwt>
</event>
<event>
 6    1  0.5026615E-004  0.1524026E+04  0.7818608E-02  0.8868632E-01
          2   -1    0    0  501    0  0.00000000000E+00  0.00000000000E+00  0.39453425308E+04  0.39453425308E+04  0.00000000000E+00 0.  1.
         -2   -1    0    0    0  501 -0.00000000000E+00 -0.00000000000E+00 -0.14717694605E+03  0.14717694605E+03  0.00000000000E+00 0. -1.
         23    2    1    2    0    0 -0.28571762780E+03  0.67875882883E+03  0.24017446591E+04  0.25138049643E+04  0.92140547569E+02 0.  0.
         13    1    3    3    0    0 -0.80998230620E+02  0.16057217293E+03  0.46697731571E+03  0.50041177991E+03  0.00000000000E+00 0.  1.
        -13    1    3    3    0    0 -0.20471939718E+03  0.51818665590E+03  0.19347673434E+04  0.20133931844E+04  0.00000000000E+00 0. -1.
         22    1    1    2    0    0  0.28571762780E+03 -0.67875882883E+03  0.13964209257E+04  0.15787145126E+04  0.00000000000E+00 0. -1.
<mgrwt>
<rscale>  0 0.15240255E+04</rscale>
<asrwt>0</asrwt>
<pdfrwt beam="1">  1        2 0.60697569E+00 0.15240255E+04</pdfrwt>
<pdfrwt beam="2">  1       -2 0.22642610E-01 0.15240255E+04</pdfrwt>
<totfact> 0.63979644E+00</totfact>
</mgrwt>
</event>
<event>
 6    1  0.5026615E-004  0.2541495E+04  0.7818608E-02  0.8388350E-01
         -2   -1    0    0    0  501 -0.00000000000E+00  0.00000000000E+00  0.58809593753E+03  0.58809593753E+03  0.00000000000E+00 0. -1.
          2   -1    0    0  501    0  0.00000000000E+00 -0.00000000000E+00 -0.27458083586E+04  0.27458083586E+04  0.00000000000E+00 0.  1.
         23    2    1    2    0    0 -0.10156518438E+04 -0.46349362765E+03 -0.28842332511E+03  0.11566085571E+04  0.90445172472E+02 0.  0.
         11    1    3    3    0    0 -0.39340067299E+03 -0.13166234615E+03 -0.10348620776E+03  0.42756105775E+03  0.00000000000E+00 0.  1.
        -11    1    3    3    0    0 -0.62225117084E+03 -0.33183128151E+03 -0.18493711735E+03  0.72904749939E+03  0.00000000000E+00 0. -1.
         22    1    1    2    0    0  0.10156518438E+04  0.46349362765E+03 -0.18692890959E+04  0.21772957390E+04  0.00000000000E+00 0.  1.
<mgrwt>
<rscale>  0 0.25414946E+04</rscale>
<asrwt>0</asrwt>
<pdfrwt beam="1">  1        2 0.42243205E+00 0.25414946E+04</pdfrwt>
<pdfrwt beam="2">  1       -2 0.90476300E-01 0.25414946E+04</pdfrwt>
<totfact> 0.23131377E+00</totfact>
</mgrwt>
</event>
<event>
 6    1  0.5026615E-004  0.2649706E+04  0.7818608E-02  0.8351511E-01
         -1   -1    0    0    0  501 -0.00000000000E+00  0.00000000000E+00  0.16146706817E+04  0.16146706817E+04  0.00000000000E+00 0.  1.
          1   -1    0    0  501    0  0.00000000000E+00 -0.00000000000E+00 -0.10870547447E+04  0.10870547447E+04  0.00000000000E+00 0. -1.
         23    2    1    2    0    0 -0.11759835355E+04  0.50099989928E+03  0.61319456888E+03  0.14206079934E+04  0.90450632140E+02 0.  0.
         13    1    3    3    0    0 -0.42190145183E+03  0.13305014873E+03  0.20970461839E+03  0.48957042814E+03  0.00000000000E+00 0. -1.
        -13    1    3    3    0    0 -0.75408208364E+03  0.36794975055E+03  0.40348995049E+03  0.93103756527E+03  0.00000000000E+00 0.  1.
         22    1    1    2    0    0  0.11759835355E+04 -0.50099989928E+03 -0.85578631825E+02  0.12811174330E+04  0.00000000000E+00 0.  1.
<mgrwt>
<rscale>  0 0.26497060E+04</rscale>
<asrwt>0</asrwt>
<pdfrwt beam="1">  1        1 0.16723919E+00 0.26497060E+04</pdfrwt>
<pdfrwt beam="2">  1       -1 0.24841087E+00 0.26497060E+04</pdfrwt>
<totfact> 0.81201016E-01</totfact>
</mgrwt>
</event>
<event>
 6    1  0.5026615E-004  0.2743172E+04  0.7818608E-02  0.8321132E-01
          2   -1    0    0  501    0  0.00000000000E+00  0.00000000000E+00  0.32791211710E+04  0.32791211710E+04  0.00000000000E+00 0.  1.
         -2   -1    0    0    0  501 -0.00000000000E+00 -0.00000000000E+00 -0.57370503059E+03  0.57370503059E+03  0.00000000000E+00 0. -1.
         23    2    1    2    0    0  0.15093654699E+03  0.13083163173E+04  0.82419954929E+03  0.15564270006E+04  0.93202381362E+02 0.  0.
         11    1    3    3    0    0  0.90061809144E+02  0.10856432935E+04  0.67391482306E+03  0.12809737229E+04  0.00000000000E+00 0. -1.
        -11    1    3    3    0    0  0.60874737845E+02  0.22267302385E+03  0.15028472622E+03  0.27545327770E+03  0.00000000000E+00 0.  1.
         22    1    1    2    0    0 -0.15093654699E+03 -0.13083163173E+04  0.18812165911E+04  0.22963992010E+04  0.00000000000E+00 0.  1.
<mgrwt>
<rscale>  0 0.27431721E+04</rscale>
<asrwt>0</asrwt>
<pdfrwt beam="1">  1        2 0.50448017E+00 0.27431721E+04</pdfrwt>
<pdfrwt beam="2">  1       -2 0.88262314E-01 0.27431721E+04</pdfrwt>
<totfact> 0.11111470E+00</totfact>
</mgrwt>
</event>
<event>
 6    1  0.5026615E-004  0.2302131E+04  0.7818608E-02  0.8477081E-01
          2   -1    0    0  501    0  0.00000000000E+00  0.00000000000E+00  0.26005497140E+04  0.26005497140E+04  0.00000000000E+00 0.  1.
         -2   -1    0    0    0  501 -0.00000000000E+00 -0.00000000000E+00 -0.50948911936E+03  0.50948911936E+03  0.00000000000E+00 0. -1.
         23    2    1    2    0    0 -0.12248349869E+03  0.85013261301E+03  0.20786493330E+04  0.22510384221E+04  0.93076639926E+02 0.  0.
         11    1    3    3    0    0 -0.83990988310E+02  0.40268062052E+03  0.10950215791E+04  0.11697343403E+04  0.00000000000E+00 0.  1.
        -11    1    3    3    0    0 -0.38492510380E+02  0.44745199249E+03  0.98362775392E+03  0.10813040818E+04  0.00000000000E+00 0. -1.
         22    1    1    2    0    0  0.12248349869E+03 -0.85013261301E+03  0.12411261616E+02  0.85900041127E+03  0.00000000000E+00 0. -1.
<mgrwt>
<rscale>  0 0.23021310E+04</rscale>
<asrwt>0</asrwt>
<pdfrwt beam="1">  1        2 0.40008456E+00 0.23021310E+04</pdfrwt>
<pdfrwt beam="2">  1       -2 0.78382943E-01 0.23021310E+04</pdfrwt>
<totfact> 0.39894142E+00</totfact>
</mgrwt>
</event>
<event>
 6    1  0.5026615E-004  0.1597381E+04  0.7818608E-02  0.8822159E-01
          2   -1    0    0  501    0  0.00000000000E+00  0.00000000000E+00  0.96170403607E+03  0.96170403607E+03  0.00000000000E+00 0.  1.
         -2   -1    0    0    0  501 -0.00000000000E+00 -0.00000000000E+00 -0.66330823427E+03  0.66330823427E+03  0.00000000000E+00 0. -1.
         23    2    1    2    0    0  0.71493389880E+03 -0.26653297667E+03  0.38060820452E+03  0.85759505235E+03  0.91849666080E+02 0.  0.
         13    1    3    3    0    0  0.32592639634E+03 -0.13559422051E+03  0.22510864594E+03  0.41867375240E+03  0.00000000000E+00 0. -1.
        -13    1    3    3    0    0  0.38900750245E+03 -0.13093875616E+03  0.15549955857E+03  0.43892129995E+03  0.00000000000E+00 0.  1.
         22    1    1    2    0    0 -0.71493389880E+03  0.26653297667E+03 -0.82212402716E+02  0.76741721799E+03  0.00000000000E+00 0.  1.
<mgrwt>
<rscale>  0 0.15973806E+04</rscale>
<asrwt>0</asrwt>
<pdfrwt beam="1">  1        2 0.14795447E+00 0.15973806E+04</pdfrwt>
<pdfrwt beam="2">  1       -2 0.10204742E+00 0.15973806E+04</pdfrwt>
<totfact> 0.20139114E+01</totfact>
</mgrwt>
</event>
<event>
 6    1  0.5026615E-004  0.2203002E+04  0.7818608E-02  0.8517180E-01
          2   -1    0    0  501    0  0.00000000000E+00  0.00000000000E+00  0.34308092272E+04  0.34308092272E+04  0.00000000000E+00 0.  1.
         -2   -1    0    0    0  501 -0.00000000000E+00 -0.00000000000E+00 -0.35364966222E+03  0.35364966222E+03  0.00000000000E+00 0. -1.
         23    2    1    2    0    0  0.11783392288E+01  0.97057522304E+03  0.65193071659E+03  0.11722275407E+04  0.84178951757E+02 0.  0.
         13    1    3    3    0    0  0.15415630654E+02  0.93836994614E+03  0.62092727004E+03  0.11253117222E+04  0.00000000000E+00 0.  1.
        -13    1    3    3    0    0 -0.14237291425E+02  0.32205276903E+02  0.31003446542E+02  0.46915818494E+02  0.00000000000E+00 0. -1.
         22    1    1    2    0    0 -0.11783392288E+01 -0.97057522304E+03  0.24252288484E+04  0.26122313487E+04  0.00000000000E+00 0.  1.
<mgrwt>
<rscale>  0 0.22030021E+04</rscale>
<asrwt>0</asrwt>
<pdfrwt beam="1">  1        2 0.52781678E+00 0.22030021E+04</pdfrwt>
<pdfrwt beam="2">  1       -2 0.54407642E-01 0.22030021E+04</pdfrwt>
<totfact> 0.26469141E+00</totfact>
</mgrwt>
</event>
<event>
 6    1  0.5026615E-004  0.2752417E+04  0.7818608E-02  0.8318195E-01
         -2   -1    0    0    0  501 -0.00000000000E+00  0.00000000000E+00  0.10877426879E+04  0.10877426879E+04  0.00000000000E+00 0. -1.
          2   -1    0    0  501    0  0.00000000000E+00 -0.00000000000E+00 -0.17411750672E+04  0.17411750672E+04  0.00000000000E+00 0.  1.
         23    2    1    2    0    0 -0.75462088677E+03 -0.11458105608E+04 -0.23808828707E+03  0.13954446165E+04  0.90802649882E+02 0.  0.
         13    1    3    3    0    0 -0.18332664347E+03 -0.21280605027E+03 -0.42457763502E+02  0.28407346747E+03  0.00000000000E+00 0.  1.
        -13    1    3    3    0    0 -0.57129424329E+03 -0.93300451057E+03 -0.19563052356E+03  0.11113711490E+04  0.00000000000E+00 0. -1.
         22    1    1    2    0    0  0.75462088677E+03  0.11458105608E+04 -0.41534409218E+03  0.14334731386E+04  0.00000000000E+00 0. -1.
<mgrwt>
<rscale>  0 0.27524174E+04</rscale>
<asrwt>0</asrwt>
<pdfrwt beam="1">  1        2 0.26787308E+00 0.27524174E+04</pdfrwt>
<pdfrwt beam="2">  1       -2 0.16734503E+00 0.27524174E+04</pdfrwt>
<totfact> 0.18097965E+00</totfact>
</mgrwt>
</event>
<event>
 6    1  0.5026615E-004  0.3711356E+04  0.7818608E-02  0.8065450E-01
         -2   -1    0    0    0  501 -0.00000000000E+00  0.00000000000E+00  0.20223651066E+04  0.20223651066E+04  0.00000000000E+00 0. -1.
          2   -1    0    0  501    0  0.00000000000E+00 -0.00000000000E+00 -0.17027295197E+04  0.17027295197E+04  0.00000000000E+00 0.  1.
         23    2    1    2    0    0  0.11567367413E+04  0.41929060855E+03 -0.12328867336E+04  0.17441428200E+04  0.90443217108E+02 0.  0.
         11    1    3    3    0    0  0.31520971326E+03  0.12284083575E+03 -0.28441066631E+03  0.44196884660E+03  0.00000000000E+00 0. -1.
        -11    1    3    3    0    0  0.84152702807E+03  0.29644977280E+03 -0.94847606729E+03  0.13021739734E+04  0.00000000000E+00 0.  1.
         22    1    1    2    0    0 -0.11567367413E+04 -0.41929060855E+03  0.15525223205E+04  0.19809518063E+04  0.00000000000E+00 0. -1.
<mgrwt>
<rscale>  0 0.37113560E+04</rscale>
<asrwt>0</asrwt>
<pdfrwt beam="1">  1        2 0.26195839E+00 0.37113560E+04</pdfrwt>
<pdfrwt beam="2">  1       -2 0.31113309E+00 0.37113560E+04</pdfrwt>
<totfact> 0.21431540E-01</totfact>
</mgrwt>
</event>
<event>
 6    1  0.5026615E-004  0.1865970E+04  0.7818608E-02  0.8671983E-01
          2   -1    0    0  501    0  0.00000000000E+00  0.00000000000E+00  0.15725715085E+04  0.15725715085E+04  0.00000000000E+00 0.  1.
         -2   -1    0    0    0  501 -0.00000000000E+00 -0.00000000000E+00 -0.55352721830E+03  0.55352721830E+03  0.00000000000E+00 0. -1.
         23    2    1    2    0    0  0.58575235428E+03  0.71672399485E+03  0.62213798550E+03  0.11189573663E+04  0.90613515674E+02 0.  0.
         11    1    3    3    0    0  0.44738014607E+03  0.58795319975E+03  0.52574171272E+03  0.90677577641E+03  0.00000000000E+00 0. -1.
        -11    1    3    3    0    0  0.13837220821E+03  0.12877079510E+03  0.96396272787E+02  0.21218158987E+03  0.00000000000E+00 0.  1.
         22    1    1    2    0    0 -0.58575235428E+03 -0.71672399485E+03  0.39690630467E+03  0.10071413605E+04  0.00000000000E+00 0. -1.
<mgrwt>
<rscale>  0 0.18659701E+04</rscale>
<asrwt>0</asrwt>
<pdfrwt beam="1">  1        2 0.24193408E+00 0.18659701E+04</pdfrwt>
<pdfrwt beam="2">  1       -2 0.85158034E-01 0.18659701E+04</pdfrwt>
<totfact> 0.13018339E+01</totfact>
</mgrwt>
</event>
<event>
 6    1  0.5026615E-004  0.5779368E+03  0.7818608E-02  0.9952268E-01
         -2   -1    0    0    0  501 -0.00000000000E+00  0.00000000000E+00  0.68861192857E+02  0.68861192857E+02  0.00000000000E+00 0. -1.
          2   -1    0    0  501    0  0.00000000000E+00 -0.00000000000E+00 -0.12126240693E+04  0.12126240693E+04  0.00000000000E+00 0.  1.
         23    2    1    2    0    0  0.23085561314E+03 -0.13952364107E+03 -0.40673930792E+03  0.49665094773E+03  0.92000754047E+02 0.  0.
         11    1    3    3    0    0  0.16623967693E+02 -0.39987713196E+02 -0.32711441441E+02  0.54271649226E+02  0.00000000000E+00 0. -1.
        -11    1    3    3    0    0  0.21423164545E+03 -0.99535927874E+02 -0.37402786648E+03  0.44237929851E+03  0.00000000000E+00 0.  1.
         22    1    1    2    0    0 -0.23085561314E+03  0.13952364107E+03 -0.73702356857E+03  0.78483431447E+03  0.00000000000E+00 0.  1.
<mgrwt>
<rscale>  0 0.57793681E+03</rscale>
<asrwt>0</asrwt>
<pdfrwt beam="1">  1        2 0.18655754E+00 0.57793681E+03</pdfrwt>
<pdfrwt beam="2">  1       -2 0.10594030E-01 0.57793681E+03</pdfrwt>
<totfact> 0.11770642E+03</totfact>
</mgrwt>
</event>
<event>
 6    1  0.5026615E-004  0.1302511E+04  0.7818608E-02  0.9027576E-01
          2   -1    0    0  501    0  0.00000000000E+00  0.00000000000E+00  0.16812902065E+04  0.16812902065E+04  0.00000000000E+00 0.  1.
         -2   -1    0    0    0  501 -0.00000000000E+00 -0.00000000000E+00 -0.25226686188E+03  0.25226686188E+03  0.00000000000E+00 0. -1.
         23    2    1    2    0    0  0.60936125122E+03 -0.19151214022E+03  0.88030639593E+03  0.10914832449E+04  0.91642178783E+02 0.  0.
         11    1    3    3    0    0  0.37443958797E+03 -0.71871068490E+02  0.53877119330E+03  0.66003397962E+03  0.00000000000E+00 0. -1.
        -11    1    3    3    0    0  0.23492166325E+03 -0.11964107173E+03  0.34153520262E+03  0.43144926531E+03  0.00000000000E+00 0.  1.
         22    1    1    2    0    0 -0.60936125122E+03  0.19151214022E+03  0.54871694866E+03  0.84207382342E+03  0.00000000000E+00 0.  1.
<mgrwt>
<rscale>  0 0.13025111E+04</rscale>
<asrwt>0</asrwt>
<pdfrwt beam="1">  1        2 0.25866002E+00 0.13025111E+04</pdfrwt>
<pdfrwt beam="2">  1       -2 0.38810287E-01 0.13025111E+04</pdfrwt>
<totfact> 0.61750127E+01</totfact>
</mgrwt>
</event>
<event>
 6    1  0.5026615E-004  0.1078046E+04  0.7818608E-02  0.9226858E-01
          2   -1    0    0  501    0  0.00000000000E+00  0.00000000000E+00  0.11783697201E+04  0.11783697201E+04  0.00000000000E+00 0.  1.
         -2   -1    0    0    0  501 -0.00000000000E+00 -0.00000000000E+00 -0.24656569779E+03  0.24656569779E+03  0.00000000000E+00 0. -1.
         23    2    1    2    0    0  0.35123768414E+03 -0.25369262212E+02 -0.65255065413E+02  0.36751481348E+03  0.82446372495E+02 0.  0.
         13    1    3    3    0    0  0.24168963003E+03 -0.55641244515E+02 -0.45996276330E+02  0.25224092212E+03  0.00000000000E+00 0. -1.
        -13    1    3    3    0    0  0.10954805411E+03  0.30271982303E+02 -0.19258789084E+02  0.11527389136E+03  0.00000000000E+00 0.  1.
         22    1    1    2    0    0 -0.35123768414E+03  0.25369262212E+02  0.99705908768E+03  0.10574206044E+04  0.00000000000E+00 0.  1.
<mgrwt>
<rscale>  0 0.10780456E+04</rscale>
<asrwt>0</asrwt>
<pdfrwt beam="1">  1        2 0.18128765E+00 0.10780456E+04</pdfrwt>
<pdfrwt beam="2">  1       -2 0.37933185E-01 0.10780456E+04</pdfrwt>
<totfact> 0.12714058E+02</totfact>
</mgrwt>
</event>
<event>
 6    1  0.5026615E-004  0.7398360E+03  0.7818608E-02  0.9651432E-01
         -2   -1    0    0    0  501 -0.00000000000E+00  0.00000000000E+00  0.31581924171E+03  0.31581924171E+03  0.00000000000E+00 0. -1.
          2   -1    0    0  501    0  0.00000000000E+00 -0.00000000000E+00 -0.43328374608E+03  0.43328374608E+03  0.00000000000E+00 0.  1.
         23    2    1    2    0    0 -0.23124445063E+03  0.16660399878E+03  0.17014589602E+03  0.34419481205E+03  0.91046989791E+02 0.  0.
         13    1    3    3    0    0 -0.69868860496E+02  0.10401082477E+03  0.59022343677E+02  0.13850468003E+03  0.00000000000E+00 0.  1.
        -13    1    3    3    0    0 -0.16137559014E+03  0.62593174010E+02  0.11112355235E+03  0.20569013202E+03  0.00000000000E+00 0. -1.
         22    1    1    2    0    0  0.23124445063E+03 -0.16660399878E+03 -0.28761040040E+03  0.40490817574E+03  0.00000000000E+00 0.  1.
<mgrwt>
<rscale>  0 0.73983605E+03</rscale>
<asrwt>0</asrwt>
<pdfrwt beam="1">  1        2 0.66659038E-01 0.73983605E+03</pdfrwt>
<pdfrwt beam="2">  1       -2 0.48587575E-01 0.73983605E+03</pdfrwt>
<totfact> 0.29381719E+02</totfact>
</mgrwt>
</event>
<event>
 6    1  0.5026615E-004  0.1130836E+04  0.7818608E-02  0.9175648E-01
         -2   -1    0    0    0  501 -0.00000000000E+00  0.00000000000E+00  0.22622241155E+03  0.22622241155E+03  0.00000000000E+00 0. -1.
          2   -1    0    0  501    0  0.00000000000E+00 -0.00000000000E+00 -0.14131994824E+04  0.14131994824E+04  0.00000000000E+00 0.  1.
         23    2    1    2    0    0  0.13850988257E+03  0.49272272493E+03 -0.25972288357E+03  0.58028970245E+03  0.85554025520E+02 0.  0.
         11    1    3    3    0    0  0.42077589526E+02  0.30152410349E+03 -0.16272366238E+03  0.34520472017E+03  0.00000000000E+00 0.  1.
        -11    1    3    3    0    0  0.96432293047E+02  0.19119862144E+03 -0.96999221191E+02  0.23508498228E+03  0.00000000000E+00 0. -1.
         22    1    1    2    0    0 -0.13850988257E+03 -0.49272272493E+03 -0.92725418730E+03  0.10591321915E+04  0.00000000000E+00 0.  1.
<mgrwt>
<rscale>  0 0.11308358E+04</rscale>
<asrwt>0</asrwt>
<pdfrwt beam="1">  1        2 0.21741531E+00 0.11308358E+04</pdfrwt>
<pdfrwt beam="2">  1       -2 0.34803447E-01 0.11308358E+04</pdfrwt>
<totfact> 0.10904964E+02</totfact>
</mgrwt>
</event>
<event>
 6    1  0.5026615E-004  0.1483072E+04  0.7818608E-02  0.8895789E-01
         -2   -1    0    0    0  501 -0.00000000000E+00  0.00000000000E+00  0.69998231888E+03  0.69998231888E+03  0.00000000000E+00 0. -1.
          2   -1    0    0  501    0  0.00000000000E+00 -0.00000000000E+00 -0.78555632861E+03  0.78555632861E+03  0.00000000000E+00 0.  1.
         23    2    1    2    0    0 -0.43959647201E+03  0.96725376535E+02  0.54391494474E+03  0.71168000376E+03  0.89688928926E+02 0.  0.
         11    1    3    3    0    0 -0.25129935770E+03  0.41489432496E+02  0.24027384613E+03  0.35014891307E+03  0.00000000000E+00 0.  1.
        -11    1    3    3    0    0 -0.18829711431E+03  0.55235944038E+02  0.30364109861E+03  0.36153109069E+03  0.00000000000E+00 0. -1.
         22    1    1    2    0    0  0.43959647201E+03 -0.96725376535E+02 -0.62948895447E+03  0.77385864373E+03  0.00000000000E+00 0.  1.
<mgrwt>
<rscale>  0 0.14830719E+04</rscale>
<asrwt>0</asrwt>
<pdfrwt beam="1">  1        2 0.12085482E+00 0.14830719E+04</pdfrwt>
<pdfrwt beam="2">  1       -2 0.10768959E+00 0.14830719E+04</pdfrwt>
<totfact> 0.23615414E+01</totfact>
</mgrwt>
</event>
<event>
 6    1  0.5026615E-004  0.1068555E+04  0.7818608E-02  0.9236394E-01
          2   -1    0    0  501    0  0.00000000000E+00  0.00000000000E+00  0.45949658755E+03  0.45949658755E+03  0.00000000000E+00 0.  1.
         -2   -1    0    0    0  501 -0.00000000000E+00 -0.00000000000E+00 -0.62122910673E+03  0.62122910673E+03  0.00000000000E+00 0. -1.
         23    2    1    2    0    0 -0.26646398886E+03  0.38036993948E+03  0.17739630709E+03  0.50566681988E+03  0.92439897976E+02 0.  0.
         11    1    3    3    0    0 -0.98272351157E+02  0.82136782112E+02  0.23223352578E+02  0.13016616335E+03  0.00000000000E+00 0. -1.
        -11    1    3    3    0    0 -0.16819163771E+03  0.29823315737E+03  0.15417295451E+03  0.37550065653E+03  0.00000000000E+00 0.  1.
         22    1    1    2    0    0  0.26646398886E+03 -0.38036993948E+03 -0.33912882626E+03  0.57505887440E+03  0.00000000000E+00 0.  1.
<mgrwt>
<rscale>  0 0.10685554E+04</rscale>
<asrwt>0</asrwt>
<pdfrwt beam="1">  1        2 0.70691783E-01 0.10685554E+04</pdfrwt>
<pdfrwt beam="2">  1       -2 0.95573709E-01 0.10685554E+04</pdfrwt>
<totfact> 0.62089932E+01</totfact>
</mgrwt>
</event>
<event>
 6    1  0.5026615E-004  0.5308862E+03  0.7818608E-02  0.1006017E+00
         -2   -1    0    0    0  501 -0.00000000000E+00  0.00000000000E+00  0.81013324971E+02  0.81013324971E+02  0.00000000000E+00 0. -1.
          2   -1    0    0  501    0  0.00000000000E+00 -0.00000000000E+00 -0.86973408239E+03  0.86973408239E+03  0.00000000000E+00 0.  1.
         23    2    1    2    0    0  0.84528366490E+02 -0.16237294913E+03 -0.73130567914E+03  0.75889717785E+03  0.87217606319E+02 0.  0.
         11    1    3    3    0    0  0.55735519352E+02 -0.12112031681E+03 -0.35442141240E+03  0.37867019533E+03  0.00000000000E+00 0. -1.
        -11    1    3    3    0    0  0.28792847138E+02 -0.41252632316E+02 -0.37688426674E+03  0.38022698252E+03  0.00000000000E+00 0.  1.
         22    1    1    2    0    0 -0.84528366490E+02  0.16237294913E+03 -0.57415078279E+02  0.19185022951E+03  0.00000000000E+00 0. -1.
<mgrwt>
<rscale>  0 0.53088624E+03</rscale>
<asrwt>0</asrwt>
<pdfrwt beam="1">  1        2 0.13380524E+00 0.53088624E+03</pdfrwt>
<pdfrwt beam="2">  1       -2 0.12463589E-01 0.53088624E+03</pdfrwt>
<totfact> 0.14769273E+03</totfact>
</mgrwt>
</event>
<event>
 6    1  0.5026615E-004  0.2323791E+04  0.7818608E-02  0.8468599E-01
         -2   -1    0    0    0  501 -0.00000000000E+00  0.00000000000E+00  0.11356511284E+04  0.11356511284E+04  0.00000000000E+00 0. -1.
          2   -1    0    0  501    0  0.00000000000E+00 -0.00000000000E+00 -0.11887459321E+04  0.11887459321E+04  0.00000000000E+00 0.  1.
         23    2    1    2    0    0  0.95670337705E+03 -0.38157031426E+03  0.50733421915E+03  0.11518110526E+04  0.91670248692E+02 0.  0.
         13    1    3    3    0    0  0.71709809361E+03 -0.29026040864E+03  0.33605870096E+03  0.84345493725E+03  0.00000000000E+00 0.  1.
        -13    1    3    3    0    0  0.23960528344E+03 -0.91309905621E+02  0.17127551819E+03  0.30835611531E+03  0.00000000000E+00 0. -1.
         22    1    1    2    0    0 -0.95670337705E+03  0.38157031426E+03 -0.56042902291E+03  0.11725860080E+04  0.00000000000E+00 0.  1.
<mgrwt>
<rscale>  0 0.23237906E+04</rscale>
<asrwt>0</asrwt>
<pdfrwt beam="1">  1        2 0.18288399E+00 0.23237906E+04</pdfrwt>
<pdfrwt beam="2">  1       -2 0.17471556E+00 0.23237906E+04</pdfrwt>
<totfact> 0.34359110E+00</totfact>
</mgrwt>
</event>
<event>
 6    1  0.5026615E-004  0.3315888E+04  0.7818608E-02  0.8158864E-01
          1   -1    0    0  501    0  0.00000000000E+00  0.00000000000E+00  0.30926040683E+04  0.30926040683E+04  0.00000000000E+00 0. -1.
         -1   -1    0    0    0  501 -0.00000000000E+00 -0.00000000000E+00 -0.88882331093E+03  0.88882331093E+03  0.00000000000E+00 0.  1.
         23    2    1    2    0    0  0.47447461351E+03  0.19948376598E+03  0.29934735898E+04  0.30388061926E+04  0.92406772785E+02 0.  0.
         11    1    3    3    0    0  0.32251796350E+03  0.17420052794E+03  0.19713417006E+04  0.20051313576E+04  0.00000000000E+00 0. -1.
        -11    1    3    3    0    0  0.15195665001E+03  0.25283238040E+02  0.10221318892E+04  0.10336748350E+04  0.00000000000E+00 0.  1.
         22    1    1    2    0    0 -0.47447461351E+03 -0.19948376598E+03 -0.78969283246E+03  0.94262118658E+03  0.00000000000E+00 0.  1.
<mgrwt>
<rscale>  0 0.33158882E+04</rscale>
<asrwt>0</asrwt>
<pdfrwt beam="1">  1        1 0.47578524E+00 0.33158882E+04</pdfrwt>
<pdfrwt beam="2">  1       -1 0.13674205E+00 0.33158882E+04</pdfrwt>
<totfact> 0.18853686E-01</totfact>
</mgrwt>
</event>
<event>
 6    1  0.5026615E-004  0.3854840E+04  0.7818608E-02  0.8034488E-01
         -2   -1    0    0    0  501 -0.00000000000E+00  0.00000000000E+00  0.18100971582E+04  0.18100971582E+04  0.00000000000E+00 0. -1.
          2   -1    0    0  501    0  0.00000000000E+00 -0.00000000000E+00 -0.20523469317E+04  0.20523469317E+04  0.00000000000E+00 0.  1.
         23    2    1    2    0    0  0.11152158348E+03  0.13612749137E+04 -0.14821981697E+04  0.20177277215E+04  0.93847161723E+02 0.  0.
         13    1    3    3    0    0  0.95317533940E+02  0.92944583899E+03 -0.10702661852E+04  0.14207127461E+04  0.00000000000E+00 0. -1.
        -13    1    3    3    0    0  0.16204049542E+02  0.43182907473E+03 -0.41193198451E+03  0.59701497541E+03  0.00000000000E+00 0.  1.
         22    1    1    2    0    0 -0.11152158348E+03 -0.13612749137E+04  0.12399483962E+04  0.18447163683E+04  0.00000000000E+00 0. -1.
<mgrwt>
<rscale>  0 0.38548397E+04</rscale>
<asrwt>0</asrwt>
<pdfrwt beam="1">  1        2 0.31574568E+00 0.38548397E+04</pdfrwt>
<pdfrwt beam="2">  1       -2 0.27847649E+00 0.38548397E+04</pdfrwt>
<totfact> 0.21455686E-01</totfact>
</mgrwt>
</event>
<event>
 6    1  0.5026615E-004  0.1631585E+04  0.7818608E-02  0.8801376E-01
         -2   -1    0    0    0  501 -0.00000000000E+00  0.00000000000E+00  0.37595972985E+03  0.37595972985E+03  0.00000000000E+00 0. -1.
          2   -1    0    0  501    0  0.00000000000E+00 -0.00000000000E+00 -0.17701818434E+04  0.17701818434E+04  0.00000000000E+00 0.  1.
         23    2    1    2    0    0  0.51324999015E+03  0.34747901728E+03 -0.13917436497E+04  0.15263243723E+04  0.92458007416E+02 0.  0.
         11    1    3    3    0    0  0.42032711270E+03  0.30869301527E+03 -0.12272679223E+04  0.13334739639E+04  0.00000000000E+00 0.  1.
        -11    1    3    3    0    0  0.92922877449E+02  0.38786002012E+02 -0.16447572739E+03  0.19285040837E+03  0.00000000000E+00 0. -1.
         22    1    1    2    0    0 -0.51324999015E+03 -0.34747901728E+03 -0.24784638610E+01  0.61981720097E+03  0.00000000000E+00 0. -1.
<mgrwt>
<rscale>  0 0.16315846E+04</rscale>
<asrwt>0</asrwt>
<pdfrwt beam="1">  1        2 0.27233567E+00 0.16315846E+04</pdfrwt>
<pdfrwt beam="2">  1       -2 0.57839958E-01 0.16315846E+04</pdfrwt>
<totfact> 0.23993046E+01</totfact>
</mgrwt>
</event>
<event>
 6    1  0.6427077E-004  0.3813171E+04  0.7818608E-02  0.8043334E-01
         -2   -1    0    0    0  501 -0.00000000000E+00  0.00000000000E+00  0.19978106138E+04  0.19978106138E+04  0.00000000000E+00 0. -1.
          2   -1    0    0  501    0  0.00000000000E+00 -0.00000000000E+00 -0.18195258102E+04  0.18195258102E+04  0.00000000000E+00 0.  1.
         23    2    1    2    0    0 -0.70395196578E+03  0.79538110876E+03 -0.14944440531E+04  0.18358719891E+04  0.94252078067E+02 0.  0.
         11    1    3    3    0    0 -0.15591770373E+03  0.20740575138E+03 -0.30696151337E+03  0.40193637150E+03  0.00000000000E+00 0. -1.
        -11    1    3    3    0    0 -0.54803426204E+03  0.58797535738E+03 -0.11874825397E+04  0.14339356176E+04  0.00000000000E+00 0.  1.
         22    1    1    2    0    0  0.70395196578E+03 -0.79538110876E+03  0.16727288568E+04  0.19814644349E+04  0.00000000000E+00 0. -1.
<mgrwt>
<rscale>  0 0.38131708E+04</rscale>
<asrwt>0</asrwt>
<pdfrwt beam="1">  1        2 0.27992705E+00 0.38131708E+04</pdfrwt>
<pdfrwt beam="2">  1       -2 0.30735548E+00 0.38131708E+04</pdfrwt>
<totfact> 0.19309913E-01</totfact>
</mgrwt>
</event>
<event>
 6    1  0.5026615E-004  0.2143080E+04  0.7818608E-02  0.8542500E-01
         -2   -1    0    0    0  501 -0.00000000000E+00  0.00000000000E+00  0.67868006111E+03  0.67868006111E+03  0.00000000000E+00 0. -1.
          2   -1    0    0  501    0  0.00000000000E+00 -0.00000000000E+00 -0.16918101236E+04  0.16918101236E+04  0.00000000000E+00 0.  1.
         23    2    1    2    0    0  0.39823266934E+03  0.49066377890E+03  0.44704273369E+03  0.77943870926E+03  0.91308777764E+02 0.  0.
         11    1    3    3    0    0  0.17462487740E+03  0.18187233248E+03  0.13048613853E+03  0.28389791383E+03  0.00000000000E+00 0. -1.
        -11    1    3    3    0    0  0.22360779194E+03  0.30879144643E+03  0.31655659515E+03  0.49554079543E+03  0.00000000000E+00 0.  1.
         22    1    1    2    0    0 -0.39823266934E+03 -0.49066377890E+03 -0.14601727962E+04  0.15910514755E+04  0.00000000000E+00 0.  1.
<mgrwt>
<rscale>  0 0.21430798E+04</rscale>
<asrwt>0</asrwt>
<pdfrwt beam="1">  1        2 0.26027848E+00 0.21430798E+04</pdfrwt>
<pdfrwt beam="2">  1       -2 0.10441232E+00 0.21430798E+04</pdfrwt>
<totfact> 0.67811119E+00</totfact>
</mgrwt>
</event>
<event>
 6    1  0.5026615E-004  0.1570586E+04  0.7818608E-02  0.8838825E-01
         -1   -1    0    0    0  501 -0.00000000000E+00  0.00000000000E+00  0.94258057751E+03  0.94258057751E+03  0.00000000000E+00 0.  1.
          1   -1    0    0  501    0  0.00000000000E+00 -0.00000000000E+00 -0.65425195307E+03  0.65425195307E+03  0.00000000000E+00 0. -1.
         23    2    1    2    0    0 -0.29867081831E+03 -0.54817895065E+03  0.62466716576E+03  0.88772884703E+03  0.90271912707E+02 0.  0.
         11    1    3    3    0    0 -0.96588508700E+02 -0.14317117582E+03  0.22698022231E+03  0.28521456295E+03  0.00000000000E+00 0.  1.
        -11    1    3    3    0    0 -0.20208230961E+03 -0.40500777483E+03  0.39768694345E+03  0.60251428408E+03  0.00000000000E+00 0. -1.
         22    1    1    2    0    0  0.29867081831E+03  0.54817895065E+03 -0.33633854132E+03  0.70910368355E+03  0.00000000000E+00 0. -1.
<mgrwt>
<rscale>  0 0.15705861E+04</rscale>
<asrwt>0</asrwt>
<pdfrwt beam="1">  1        1 0.10065415E+00 0.15705861E+04</pdfrwt>
<pdfrwt beam="2">  1       -1 0.14501240E+00 0.15705861E+04</pdfrwt>
<totfact> 0.11083554E+01</totfact>
</mgrwt>
</event>
<event>
 6    1  0.5026615E-004  0.2771193E+04  0.7818608E-02  0.8312268E-01
         -2   -1    0    0    0  501 -0.00000000000E+00  0.00000000000E+00  0.12512714457E+04  0.12512714457E+04  0.00000000000E+00 0. -1.
          2   -1    0    0  501    0  0.00000000000E+00 -0.00000000000E+00 -0.15343409690E+04  0.15343409690E+04  0.00000000000E+00 0.  1.
         23    2    1    2    0    0  0.12659238413E+04  0.28314867580E+03 -0.62709641712E+03  0.14435651546E+04  0.88848717165E+02 0.  0.
         11    1    3    3    0    0  0.60074292751E+03  0.88946026030E+02 -0.29260498917E+03  0.67410766217E+03  0.00000000000E+00 0. -1.
        -11    1    3    3    0    0  0.66518091383E+03  0.19420264977E+03 -0.33449142795E+03  0.76945749244E+03  0.00000000000E+00 0.  1.
         22    1    1    2    0    0 -0.12659238413E+04 -0.28314867580E+03  0.34402689378E+03  0.13420472601E+04  0.00000000000E+00 0. -1.
<mgrwt>
<rscale>  0 0.27711926E+04</rscale>
<asrwt>0</asrwt>
<pdfrwt beam="1">  1        2 0.23605246E+00 0.27711926E+04</pdfrwt>
<pdfrwt beam="2">  1       -2 0.19250330E+00 0.27711926E+04</pdfrwt>
<totfact> 0.15792650E+00</totfact>
</mgrwt>
</event>
<event>
 6    1  0.5026615E-004  0.3744665E+04  0.7818608E-02  0.8058135E-01
          2   -1    0    0  501    0  0.00000000000E+00  0.00000000000E+00  0.13762601817E+04  0.13762601817E+04  0.00000000000E+00 0.  1.
         -2   -1    0    0    0  501 -0.00000000000E+00 -0.00000000000E+00 -0.25472140743E+04  0.25472140743E+04  0.00000000000E+00 0. -1.
         23    2    1    2    0    0 -0.37450867309E+03 -0.18158399275E+04 -0.32088337746E+03  0.18838293679E+04  0.91189677121E+02 0.  0.
         13    1    3    3    0    0 -0.30187206114E+03 -0.15586016545E+04 -0.30050788467E+03  0.16157570509E+04  0.00000000000E+00 0. -1.
        -13    1    3    3    0    0 -0.72636611946E+02 -0.25723827297E+03 -0.20375492791E+02  0.26807231708E+03  0.00000000000E+00 0.  1.
         22    1    1    2    0    0  0.37450867309E+03  0.18158399275E+04 -0.85007051515E+03  0.20396448880E+04  0.00000000000E+00 0. -1.
<mgrwt>
<rscale>  0 0.37446652E+04</rscale>
<asrwt>0</asrwt>
<pdfrwt beam="1">  1        2 0.21173234E+00 0.37446652E+04</pdfrwt>
<pdfrwt beam="2">  1       -2 0.39187909E+00 0.37446652E+04</pdfrwt>
<totfact> 0.10078685E-01</totfact>
</mgrwt>
</event>
<event>
 6    1  0.5026615E-004  0.2679984E+04  0.7818608E-02  0.8341529E-01
          2   -1    0    0  501    0  0.00000000000E+00  0.00000000000E+00  0.13156151444E+04  0.13156151444E+04  0.00000000000E+00 0.  1.
         -2   -1    0    0    0  501 -0.00000000000E+00 -0.00000000000E+00 -0.13648207304E+04  0.13648207304E+04  0.00000000000E+00 0. -1.
         23    2    1    2    0    0  0.33854765787E+03 -0.50536934770E+03 -0.12170869902E+04  0.13636368513E+04  0.90509814294E+02 0.  0.
         11    1    3    3    0    0  0.19065391579E+03 -0.23702283714E+03 -0.52499068305E+03  0.60674867797E+03  0.00000000000E+00 0.  1.
        -11    1    3    3    0    0  0.14789374208E+03 -0.26834651056E+03 -0.69209630710E+03  0.75688817337E+03  0.00000000000E+00 0. -1.
         22    1    1    2    0    0 -0.33854765787E+03  0.50536934770E+03  0.11678814041E+04  0.13167990235E+04  0.00000000000E+00 0.  1.
<mgrwt>
<rscale>  0 0.26799842E+04</rscale>
<asrwt>0</asrwt>
<pdfrwt beam="1">  1        2 0.20240233E+00 0.26799842E+04</pdfrwt>
<pdfrwt beam="2">  1       -2 0.20997242E+00 0.26799842E+04</pdfrwt>
<totfact> 0.16296762E+00</totfact>
</mgrwt>
</event>
<event>
 6    1  0.5026615E-004  0.4011271E+04  0.7818608E-02  0.8002277E-01
          2   -1    0    0  501    0  0.00000000000E+00  0.00000000000E+00  0.36357694592E+04  0.36357694592E+04  0.00000000000E+00 0.  1.
         -2   -1    0    0    0  501 -0.00000000000E+00 -0.00000000000E+00 -0.11063886691E+04  0.11063886691E+04  0.00000000000E+00 0. -1.
         23    2    1    2    0    0  0.15643240500E+03 -0.15696505228E+04  0.27274153499E+04  0.31523494769E+04  0.10118731614E+03 0.  0.
         11    1    3    3    0    0  0.14498081680E+03 -0.13512431741E+04  0.24124356281E+04  0.27688848319E+04  0.00000000000E+00 0.  1.
        -11    1    3    3    0    0  0.11451588198E+02 -0.21840734870E+03  0.31497972181E+03  0.38346464504E+03  0.00000000000E+00 0. -1.
         22    1    1    2    0    0 -0.15643240500E+03  0.15696505228E+04 -0.19803455985E+03  0.15898086514E+04  0.00000000000E+00 0. -1.
<mgrwt>
<rscale>  0 0.40112712E+04</rscale>
<asrwt>0</asrwt>
<pdfrwt beam="1">  1        2 0.55934914E+00 0.40112712E+04</pdfrwt>
<pdfrwt beam="2">  1       -2 0.17021364E+00 0.40112712E+04</pdfrwt>
<totfact> 0.10864607E-01</totfact>
</mgrwt>
</event>
<event>
 6    1  0.5026615E-004  0.1097975E+04  0.7818608E-02  0.9207168E-01
          2   -1    0    0  501    0  0.00000000000E+00  0.00000000000E+00  0.81999012432E+03  0.81999012432E+03  0.00000000000E+00 0.  1.
         -2   -1    0    0    0  501 -0.00000000000E+00 -0.00000000000E+00 -0.36754973125E+03  0.36754973125E+03  0.00000000000E+00 0. -1.
         23    2    1    2    0    0 -0.48280070216E+03 -0.14700109477E+02  0.50141359114E+03  0.70203909825E+03  0.90170365789E+02 0.  0.
         13    1    3    3    0    0 -0.28474715648E+03 -0.30170950757E+02  0.23942796053E+03  0.37325189574E+03  0.00000000000E+00 0. -1.
        -13    1    3    3    0    0 -0.19805354569E+03  0.15470841279E+02  0.26198563061E+03  0.32878720251E+03  0.00000000000E+00 0.  1.
         22    1    1    2    0    0  0.48280070216E+03  0.14700109477E+02 -0.48973198061E+02  0.48550075732E+03  0.00000000000E+00 0. -1.
<mgrwt>
<rscale>  0 0.10979748E+04</rscale>
<asrwt>0</asrwt>
<pdfrwt beam="1">  1        2 0.12615233E+00 0.10979748E+04</pdfrwt>
<pdfrwt beam="2">  1       -2 0.56546113E-01 0.10979748E+04</pdfrwt>
<totfact> 0.97118940E+01</totfact>
</mgrwt>
</event>
<event>
 6    1  0.5026615E-004  0.3627096E+04  0.7818608E-02  0.8084313E-01
          2   -1    0    0  501    0  0.00000000000E+00  0.00000000000E+00  0.39089282455E+04  0.39089282455E+04  0.00000000000E+00 0. -1.
         -2   -1    0    0    0  501 -0.00000000000E+00 -0.00000000000E+00 -0.84139588728E+03  0.84139588728E+03  0.00000000000E+00 0.  1.
         23    2    1    2    0    0 -0.46042565263E+03  0.15972456117E+04  0.24806873412E+04  0.29874933413E+04  0.90119107864E+02 0.  0.
         13    1    3    3    0    0 -0.37233643559E+03  0.13187129669E+04  0.19823910951E+04  0.24098781638E+04  0.00000000000E+00 0.  1.
        -13    1    3    3    0    0 -0.88089217038E+02  0.27853264479E+03  0.49829624612E+03  0.57761517749E+03  0.00000000000E+00 0. -1.
         22    1    1    2    0    0  0.46042565263E+03 -0.15972456117E+04  0.58684501700E+03  0.17628307915E+04  0.00000000000E+00 0.  1.
<mgrwt>
<rscale>  0 0.36270959E+04</rscale>
<asrwt>0</asrwt>
<pdfrwt beam="1">  1        2 0.60137357E+00 0.36270959E+04</pdfrwt>
<pdfrwt beam="2">  1       -2 0.12944552E+00 0.36270959E+04</pdfrwt>
<totfact> 0.14402057E-01</totfact>
</mgrwt>
</event>
<event>
 6    1  0.5026615E-004  0.3542583E+04  0.7818608E-02  0.8103772E-01
         -2   -1    0    0    0  501 -0.00000000000E+00  0.00000000000E+00  0.10838172364E+04  0.10838172364E+04  0.00000000000E+00 0. -1.
          2   -1    0    0  501    0  0.00000000000E+00 -0.00000000000E+00 -0.28948360569E+04  0.28948360569E+04  0.00000000000E+00 0.  1.
         23    2    1    2    0    0 -0.16970629419E+04  0.11840007727E+03 -0.35676637009E+03  0.17405980222E+04  0.91422234897E+02 0.  0.
         11    1    3    3    0    0 -0.82606865342E+03  0.41814400177E+02 -0.12963184647E+03  0.83722295707E+03  0.00000000000E+00 0. -1.
        -11    1    3    3    0    0 -0.87099428844E+03  0.76585677091E+02 -0.22713452362E+03  0.90337506511E+03  0.00000000000E+00 0.  1.
         22    1    1    2    0    0  0.16970629419E+04 -0.11840007727E+03 -0.14542524505E+04  0.22380552711E+04  0.00000000000E+00 0.  1.
<mgrwt>
<rscale>  0 0.35425828E+04</rscale>
<asrwt>0</asrwt>
<pdfrwt beam="1">  1        2 0.44535938E+00 0.35425828E+04</pdfrwt>
<pdfrwt beam="2">  1       -2 0.16674112E+00 0.35425828E+04</pdfrwt>
<totfact> 0.37251430E-01</totfact>
</mgrwt>
</event>
<event>
 6    1  0.5026615E-004  0.2749424E+04  0.7818608E-02  0.8319145E-01
         -2   -1    0    0    0  501 -0.00000000000E+00  0.00000000000E+00  0.12215849085E+04  0.12215849085E+04  0.00000000000E+00 0. -1.
          2   -1    0    0  501    0  0.00000000000E+00 -0.00000000000E+00 -0.15470333527E+04  0.15470333527E+04  0.00000000000E+00 0.  1.
         23    2    1    2    0    0 -0.13766637550E+03  0.60149104427E+03 -0.13986800800E+04  0.15306482894E+04  0.76385288944E+02 0.  0.
         13    1    3    3    0    0 -0.20193120659E+02  0.25361889172E+03 -0.55542559739E+03  0.61092380752E+03  0.00000000000E+00 0.  1.
        -13    1    3    3    0    0 -0.11747325484E+03  0.34787215255E+03 -0.84325448256E+03  0.91972448184E+03  0.00000000000E+00 0. -1.
         22    1    1    2    0    0  0.13766637550E+03 -0.60149104427E+03  0.10732316358E+04  0.12379699719E+04  0.00000000000E+00 0. -1.
<mgrwt>
<rscale>  0 0.27494236E+04</rscale>
<asrwt>0</asrwt>
<pdfrwt beam="1">  1        2 0.23800513E+00 0.27494236E+04</pdfrwt>
<pdfrwt beam="2">  1       -2 0.18793614E+00 0.27494236E+04</pdfrwt>
<totfact> 0.16701662E+00</totfact>
</mgrwt>
</event>
<event>
 6    1  0.5026615E-004  0.2724698E+04  0.7818608E-02  0.8327036E-01
          2   -1    0    0  501    0  0.00000000000E+00  0.00000000000E+00  0.13130343100E+04  0.13130343100E+04  0.00000000000E+00 0.  1.
         -2   -1    0    0    0  501 -0.00000000000E+00 -0.00000000000E+00 -0.14135156828E+04  0.14135156828E+04  0.00000000000E+00 0. -1.
         23    2    1    2    0    0 -0.88770791852E+03  0.63845964740E+03  0.76043043921E+03  0.13348513120E+04  0.88980347844E+02 0.  0.
         13    1    3    3    0    0 -0.21580692272E+03  0.15487903770E+03  0.23249886205E+03  0.35300972376E+03  0.00000000000E+00 0.  1.
        -13    1    3    3    0    0 -0.67190099580E+03  0.48358060970E+03  0.52793157716E+03  0.98184158824E+03  0.00000000000E+00 0. -1.
         22    1    1    2    0    0  0.88770791852E+03 -0.63845964740E+03 -0.86091181209E+03  0.13916986808E+04  0.00000000000E+00 0. -1.
<mgrwt>
<rscale>  0 0.27246978E+04</rscale>
<asrwt>0</asrwt>
<pdfrwt beam="1">  1        2 0.20200528E+00 0.27246978E+04</pdfrwt>
<pdfrwt beam="2">  1       -2 0.21746395E+00 0.27246978E+04</pdfrwt>
<totfact> 0.14588686E+00</totfact>
</mgrwt>
</event>
<event>
 6    1  0.5026615E-004  0.3833873E+04  0.7818608E-02  0.8038925E-01
          2   -1    0    0  501    0  0.00000000000E+00  0.00000000000E+00  0.11580380026E+04  0.11580380026E+04  0.00000000000E+00 0.  1.
         -2   -1    0    0    0  501 -0.00000000000E+00 -0.00000000000E+00 -0.31731641352E+04  0.31731641352E+04  0.00000000000E+00 0. -1.
         23    2    1    2    0    0 -0.94443971817E+03 -0.10553031191E+02  0.87487605388E+03  0.12907761174E+04  0.92828485759E+02 0.  0.
         11    1    3    3    0    0 -0.67719372313E+03 -0.39570273412E+02  0.66249176647E+03  0.94818378272E+03  0.00000000000E+00 0. -1.
        -11    1    3    3    0    0 -0.26724599503E+03  0.29017242221E+02  0.21238428741E+03  0.34259233463E+03  0.00000000000E+00 0.  1.
         22    1    1    2    0    0  0.94443971817E+03  0.10553031191E+02 -0.28900021865E+04  0.30404260204E+04  0.00000000000E+00 0. -1.
<mgrwt>
<rscale>  0 0.38338725E+04</rscale>
<asrwt>0</asrwt>
<pdfrwt beam="1">  1        2 0.17815970E+00 0.38338725E+04</pdfrwt>
<pdfrwt beam="2">  1       -2 0.48817909E+00 0.38338725E+04</pdfrwt>
<totfact> 0.31425585E-02</totfact>
</mgrwt>
</event>
<event>
 6    1  0.5026615E-004  0.3993523E+04  0.7818608E-02  0.8005855E-01
          2   -1    0    0  501    0  0.00000000000E+00  0.00000000000E+00  0.34322385114E+04  0.34322385114E+04  0.00000000000E+00 0.  1.
         -2   -1    0    0    0  501 -0.00000000000E+00 -0.00000000000E+00 -0.11616487286E+04  0.11616487286E+04  0.00000000000E+00 0. -1.
         23    2    1    2    0    0 -0.11044302588E+04 -0.15608585009E+04  0.47689382974E+03  0.19721720327E+04  0.77390859644E+02 0.  0.
         11    1    3    3    0    0 -0.75285034287E+03 -0.10006378994E+04  0.31615260953E+03  0.12915155117E+04  0.00000000000E+00 0.  1.
        -11    1    3    3    0    0 -0.35157991597E+03 -0.56022060152E+03  0.16074122021E+03  0.68065652099E+03  0.00000000000E+00 0. -1.
         22    1    1    2    0    0  0.11044302588E+04  0.15608585009E+04  0.17936959530E+04  0.26217152073E+04  0.00000000000E+00 0.  1.
<mgrwt>
<rscale>  0 0.39935225E+04</rscale>
<asrwt>0</asrwt>
<pdfrwt beam="1">  1        2 0.52803669E+00 0.39935225E+04</pdfrwt>
<pdfrwt beam="2">  1       -2 0.17871519E+00 0.39935225E+04</pdfrwt>
<totfact> 0.13214647E-01</totfact>
</mgrwt>
</event>
<event>
 6    1  0.5026615E-004  0.3546628E+04  0.7818608E-02  0.8102828E-01
          2   -1    0    0  501    0  0.00000000000E+00  0.00000000000E+00  0.22196037168E+04  0.22196037168E+04  0.00000000000E+00 0.  1.
         -2   -1    0    0    0  501 -0.00000000000E+00 -0.00000000000E+00 -0.14167588142E+04  0.14167588142E+04  0.00000000000E+00 0. -1.
         23    2    1    2    0    0  0.10790488749E+04 -0.13990269285E+04  0.54208203872E+03  0.18504117780E+04  0.92455342330E+02 0.  0.
         13    1    3    3    0    0  0.16743450155E+03 -0.20732332353E+03  0.11634181755E+03  0.29077945474E+03  0.00000000000E+00 0. -1.
        -13    1    3    3    0    0  0.91161437331E+03 -0.11917036050E+04  0.42574022117E+03  0.15596323232E+04  0.00000000000E+00 0.  1.
         22    1    1    2    0    0 -0.10790488749E+04  0.13990269285E+04  0.26076286391E+03  0.17859507530E+04  0.00000000000E+00 0.  1.
<mgrwt>
<rscale>  0 0.35466283E+04</rscale>
<asrwt>0</asrwt>
<pdfrwt beam="1">  1        2 0.34147750E+00 0.35466283E+04</pdfrwt>
<pdfrwt beam="2">  1       -2 0.21796289E+00 0.35466283E+04</pdfrwt>
<totfact> 0.41961920E-01</totfact>
</mgrwt>
</event>
<event>
 6    1  0.5026615E-004  0.1384756E+04  0.7818608E-02  0.8964927E-01
         -2   -1    0    0    0  501 -0.00000000000E+00  0.00000000000E+00  0.34093709399E+03  0.34093709399E+03  0.00000000000E+00 0. -1.
          2   -1    0    0  501    0  0.00000000000E+00 -0.00000000000E+00 -0.14060879225E+04  0.14060879225E+04  0.00000000000E+00 0.  1.
         23    2    1    2    0    0 -0.52880723055E+03  0.32815604531E+03 -0.16090279580E+03  0.64930557063E+03  0.91567118502E+02 0.  0.
         11    1    3    3    0    0 -0.20650752720E+03  0.13241593683E+03 -0.10983483823E+03  0.26878063697E+03  0.00000000000E+00 0.  1.
        -11    1    3    3    0    0 -0.32229970335E+03  0.19574010848E+03 -0.51067957568E+02  0.38052493366E+03  0.00000000000E+00 0. -1.
         22    1    1    2    0    0  0.52880723055E+03 -0.32815604531E+03 -0.90424803267E+03  0.10977194458E+04  0.00000000000E+00 0.  1.
<mgrwt>
<rscale>  0 0.13847563E+04</rscale>
<asrwt>0</asrwt>
<pdfrwt beam="1">  1        2 0.21632122E+00 0.13847563E+04</pdfrwt>
<pdfrwt beam="2">  1       -2 0.52451861E-01 0.13847563E+04</pdfrwt>
<totfact> 0.47966500E+01</totfact>
</mgrwt>
</event>
<event>
 6    1  0.5026615E-004  0.3458933E+04  0.7818608E-02  0.8123592E-01
          2   -1    0    0  501    0  0.00000000000E+00  0.00000000000E+00  0.13341020106E+04  0.13341020106E+04  0.00000000000E+00 0.  1.
         -2   -1    0    0    0  501 -0.00000000000E+00 -0.00000000000E+00 -0.22419988902E+04  0.22419988902E+04  0.00000000000E+00 0. -1.
         23    2    1    2    0    0 -0.31632678535E+03 -0.16760524201E+04 -0.74261467547E+03  0.18624695061E+04  0.90009750034E+02 0.  0.
         13    1    3    3    0    0 -0.21142601646E+03 -0.87928323323E+03 -0.39824725542E+03  0.98815021182E+03  0.00000000000E+00 0. -1.
        -13    1    3    3    0    0 -0.10490076888E+03 -0.79676918685E+03 -0.34436742005E+03  0.87431929432E+03  0.00000000000E+00 0.  1.
         22    1    1    2    0    0  0.31632678535E+03  0.16760524201E+04 -0.16528220416E+03  0.17136313947E+04  0.00000000000E+00 0. -1.
<mgrwt>
<rscale>  0 0.34589335E+04</rscale>
<asrwt>0</asrwt>
<pdfrwt beam="1">  1        2 0.20524647E+00 0.34589335E+04</pdfrwt>
<pdfrwt beam="2">  1       -2 0.34492290E+00 0.34589335E+04</pdfrwt>
<totfact> 0.21796992E-01</totfact>
</mgrwt>
</event>
<event>
 6    1  0.5026615E-004  0.2072819E+04  0.7818608E-02  0.8573312E-01
          2   -1    0    0  501    0  0.00000000000E+00  0.00000000000E+00  0.20838272402E+04  0.20838272402E+04  0.00000000000E+00 0.  1.
         -2   -1    0    0    0  501 -0.00000000000E+00 -0.00000000000E+00 -0.51546738358E+03  0.51546738358E+03  0.00000000000E+00 0. -1.
         23    2    1    2    0    0  0.95055580414E+03  0.21023644942E+03  0.34801328812E+03  0.10382047965E+04  0.94869644334E+02 0.  0.
         11    1    3    3    0    0  0.70438515547E+03  0.11326732035E+03  0.24649220963E+03  0.75481543606E+03  0.00000000000E+00 0.  1.
        -11    1    3    3    0    0  0.24617064867E+03  0.96969129075E+02  0.10152107849E+03  0.28338936049E+03  0.00000000000E+00 0. -1.
         22    1    1    2    0    0 -0.95055580414E+03 -0.21023644942E+03  0.12203465685E+04  0.15610898273E+04  0.00000000000E+00 0. -1.
<mgrwt>
<rscale>  0 0.20728193E+04</rscale>
<asrwt>0</asrwt>
<pdfrwt beam="1">  1        2 0.32058880E+00 0.20728193E+04</pdfrwt>
<pdfrwt beam="2">  1       -2 0.79302675E-01 0.20728193E+04</pdfrwt>
<totfact> 0.78110066E+00</totfact>
</mgrwt>
</event>
<event>
 6    1  0.5026615E-004  0.1452415E+04  0.7818608E-02  0.8916728E-01
          2   -1    0    0  501    0  0.00000000000E+00  0.00000000000E+00  0.16184049374E+04  0.16184049374E+04  0.00000000000E+00 0.  1.
         -2   -1    0    0    0  501 -0.00000000000E+00 -0.00000000000E+00 -0.32586251298E+03  0.32586251298E+03  0.00000000000E+00 0. -1.
         23    2    1    2    0    0 -0.29019449356E+03 -0.44807980619E+03  0.13022808138E+04  0.14103356260E+04  0.90127150005E+02 0.  0.
         13    1    3    3    0    0 -0.20021932664E+03 -0.30961383036E+03  0.10013437964E+04  0.10670697734E+04  0.00000000000E+00 0. -1.
        -13    1    3    3    0    0 -0.89975166921E+02 -0.13846597583E+03  0.30093701748E+03  0.34326585267E+03  0.00000000000E+00 0.  1.
         22    1    1    2    0    0  0.29019449356E+03  0.44807980619E+03 -0.97383894331E+01  0.53393182433E+03  0.00000000000E+00 0. -1.
<mgrwt>
<rscale>  0 0.14524152E+04</rscale>
<asrwt>0</asrwt>
<pdfrwt beam="1">  1        2 0.24898537E+00 0.14524152E+04</pdfrwt>
<pdfrwt beam="2">  1       -2 0.50132695E-01 0.14524152E+04</pdfrwt>
<totfact> 0.39737173E+01</totfact>
</mgrwt>
</event>
<event>
 6    1  0.5026615E-004  0.2807499E+04  0.7818608E-02  0.8300944E-01
          2   -1    0    0  501    0  0.00000000000E+00  0.00000000000E+00  0.15399914245E+04  0.15399914245E+04  0.00000000000E+00 0.  1.
         -2   -1    0    0    0  501 -0.00000000000E+00 -0.00000000000E+00 -0.12795610610E+04  0.12795610610E+04  0.00000000000E+00 0. -1.
         23    2    1    2    0    0  0.46915492593E+03  0.32567315090E+02  0.14571900739E+04  0.15337061576E+04  0.87662374288E+02 0.  0.
         11    1    3    3    0    0  0.31712618305E+03  0.38883421315E+02  0.85985692329E+03  0.91729758801E+03  0.00000000000E+00 0.  1.
        -11    1    3    3    0    0  0.15202874288E+03 -0.63161062250E+01  0.59733315060E+03  0.61640856959E+03  0.00000000000E+00 0. -1.
         22    1    1    2    0    0 -0.46915492593E+03 -0.32567315090E+02 -0.11967597104E+04  0.12858463279E+04  0.00000000000E+00 0. -1.
<mgrwt>
<rscale>  0 0.28074993E+04</rscale>
<asrwt>0</asrwt>
<pdfrwt beam="1">  1        2 0.23692176E+00 0.28074993E+04</pdfrwt>
<pdfrwt beam="2">  1       -2 0.19685555E+00 0.28074993E+04</pdfrwt>
<totfact> 0.14622146E+00</totfact>
</mgrwt>
</event>
<event>
 6    1  0.5026615E-004  0.2317618E+04  0.7818608E-02  0.8471007E-01
          1   -1    0    0  501    0  0.00000000000E+00  0.00000000000E+00  0.94986504555E+03  0.94986504555E+03  0.00000000000E+00 0.  1.
         -1   -1    0    0    0  501 -0.00000000000E+00 -0.00000000000E+00 -0.14137147400E+04  0.14137147400E+04  0.00000000000E+00 0. -1.
         23    2    1    2    0    0  0.37504199912E+02 -0.10882240921E+04 -0.63115670073E+03  0.12619310784E+04  0.92049042673E+02 0.  0.
         13    1    3    3    0    0  0.41772757270E+02 -0.25542833588E+03 -0.17435174927E+03  0.31206911173E+03  0.00000000000E+00 0.  1.
        -13    1    3    3    0    0 -0.42685573581E+01 -0.83279575620E+03 -0.45680495146E+03  0.94986196671E+03  0.00000000000E+00 0. -1.
         22    1    1    2    0    0 -0.37504199912E+02  0.10882240921E+04  0.16730700626E+03  0.11016487071E+04  0.00000000000E+00 0.  1.
<mgrwt>
<rscale>  0 0.23176179E+04</rscale>
<asrwt>0</asrwt>
<pdfrwt beam="1">  1        1 0.14613308E+00 0.23176179E+04</pdfrwt>
<pdfrwt beam="2">  1       -1 0.21749458E+00 0.23176179E+04</pdfrwt>
<totfact> 0.17116070E+00</totfact>
</mgrwt>
</event>
<event>
 6    1  0.5026615E-004  0.4072122E+04  0.7818608E-02  0.7990153E-01
         -2   -1    0    0    0  501 -0.00000000000E+00  0.00000000000E+00  0.17595119453E+04  0.17595119453E+04  0.00000000000E+00 0. -1.
          2   -1    0    0  501    0  0.00000000000E+00 -0.00000000000E+00 -0.23560762199E+04  0.23560762199E+04  0.00000000000E+00 0.  1.
         23    2    1    2    0    0  0.19659764861E+04  0.43807672395E+03 -0.47038085206E+01  0.20162374153E+04  0.90644521979E+02 0.  0.
         11    1    3    3    0    0  0.13861266175E+04  0.30537381446E+03 -0.44531092746E+02  0.14200645001E+04  0.00000000000E+00 0.  1.
        -11    1    3    3    0    0  0.57984986862E+03  0.13270290949E+03  0.39827284225E+02  0.59617291526E+03  0.00000000000E+00 0. -1.
         22    1    1    2    0    0 -0.19659764861E+04 -0.43807672395E+03 -0.59186046606E+03  0.20993507499E+04  0.00000000000E+00 0.  1.
<mgrwt>
<rscale>  0 0.40721219E+04</rscale>
<asrwt>0</asrwt>
<pdfrwt beam="1">  1        2 0.36247326E+00 0.40721219E+04</pdfrwt>
<pdfrwt beam="2">  1       -2 0.27069415E+00 0.40721219E+04</pdfrwt>
<totfact> 0.15857634E-01</totfact>
</mgrwt>
</event>
<event>
 6    1  0.5026615E-004  0.8911353E+03  0.7818608E-02  0.9436731E-01
          2   -1    0    0  501    0  0.00000000000E+00  0.00000000000E+00  0.10098912738E+04  0.10098912738E+04  0.00000000000E+00 0.  1.
         -2   -1    0    0    0  501 -0.00000000000E+00 -0.00000000000E+00 -0.19658602847E+03  0.19658602847E+03  0.00000000000E+00 0. -1.
         23    2    1    2    0    0  0.95236256156E+02 -0.10154366304E+02  0.99381797903E+03  0.10021297976E+04  0.86121426873E+02 0.  0.
         11    1    3    3    0    0  0.51423894369E+02 -0.46539574916E+02  0.44616510104E+03  0.45152369410E+03  0.00000000000E+00 0. -1.
        -11    1    3    3    0    0  0.43812361786E+02  0.36385208612E+02  0.54765287799E+03  0.55060610351E+03  0.00000000000E+00 0.  1.
         22    1    1    2    0    0 -0.95236256156E+02  0.10154366304E+02 -0.18051273369E+03  0.20434750468E+03  0.00000000000E+00 0. -1.
<mgrwt>
<rscale>  0 0.89113526E+03</rscale>
<asrwt>0</asrwt>
<pdfrwt beam="1">  1        2 0.15536789E+00 0.89113526E+03</pdfrwt>
<pdfrwt beam="2">  1       -2 0.30244005E-01 0.89113526E+03</pdfrwt>
<totfact> 0.25108384E+02</totfact>
</mgrwt>
</event>
<event>
 6    1  0.5026615E-004  0.9026712E+03  0.7818608E-02  0.9422248E-01
         -1   -1    0    0    0  501 -0.00000000000E+00  0.00000000000E+00  0.13986430884E+03  0.13986430884E+03  0.00000000000E+00 0.  1.
          1   -1    0    0  501    0  0.00000000000E+00 -0.00000000000E+00 -0.14564389650E+04  0.14564389650E+04  0.00000000000E+00 0. -1.
         23    2    1    2    0    0 -0.20667289377E+03 -0.10561074325E+03  0.97845036285E+01  0.24979076559E+03  0.91827969324E+02 0.  0.
         13    1    3    3    0    0 -0.13217826854E+03 -0.10085922034E+03 -0.23761749140E+02  0.16795326054E+03  0.00000000000E+00 0. -1.
        -13    1    3    3    0    0 -0.74494625229E+02 -0.47515229140E+01  0.33546252768E+02  0.81837505050E+02  0.00000000000E+00 0.  1.
         22    1    1    2    0    0  0.20667289377E+03  0.10561074325E+03 -0.13263591598E+04  0.13465125082E+04  0.00000000000E+00 0. -1.
<mgrwt>
<rscale>  0 0.90267121E+03</rscale>
<asrwt>0</asrwt>
<pdfrwt beam="1">  1        1 0.22406752E+00 0.90267121E+03</pdfrwt>
<pdfrwt beam="2">  1       -1 0.21517587E-01 0.90267121E+03</pdfrwt>
<totfact> 0.12789859E+02</totfact>
</mgrwt>
</event>
<event>
 6    1  0.5026615E-004  0.1549400E+04  0.7818608E-02  0.8852251E-01
         -1   -1    0    0    0  501 -0.00000000000E+00  0.00000000000E+00  0.78438550655E+03  0.78438550655E+03  0.00000000000E+00 0.  1.
          1   -1    0    0  501    0  0.00000000000E+00 -0.00000000000E+00 -0.76513406082E+03  0.76513406082E+03  0.00000000000E+00 0. -1.
         23    2    1    2    0    0  0.34471117413E+03  0.24895631561E+03  0.65412062484E+03  0.78540968310E+03  0.90496065190E+02 0.  0.
         11    1    3    3    0    0  0.97980886751E+02  0.86678178271E+02  0.27771689732E+03  0.30698540000E+03  0.00000000000E+00 0. -1.
        -11    1    3    3    0    0  0.24673028738E+03  0.16227813734E+03  0.37640372752E+03  0.47842428310E+03  0.00000000000E+00 0.  1.
         22    1    1    2    0    0 -0.34471117413E+03 -0.24895631561E+03 -0.63486917911E+03  0.76410988427E+03  0.00000000000E+00 0. -1.
<mgrwt>
<rscale>  0 0.15494000E+04</rscale>
<asrwt>0</asrwt>
<pdfrwt beam="1">  1        1 0.11771293E+00 0.15494000E+04</pdfrwt>
<pdfrwt beam="2">  1       -1 0.12067469E+00 0.15494000E+04</pdfrwt>
<totfact> 0.13968512E+01</totfact>
</mgrwt>
</event>
<event>
 6    1  0.5026615E-004  0.2555215E+04  0.7818608E-02  0.8383575E-01
          2   -1    0    0  501    0  0.00000000000E+00  0.00000000000E+00  0.13860857854E+04  0.13860857854E+04  0.00000000000E+00 0. -1.
         -2   -1    0    0    0  501 -0.00000000000E+00 -0.00000000000E+00 -0.11776193521E+04  0.11776193521E+04  0.00000000000E+00 0.  1.
         23    2    1    2    0    0  0.10721851241E+04  0.62481102608E+03 -0.19382876830E+03  0.12591702825E+04  0.89277378604E+02 0.  0.
         13    1    3    3    0    0  0.24058525388E+03  0.14692589815E+03 -0.68563084167E+01  0.28198491608E+03  0.00000000000E+00 0. -1.
        -13    1    3    3    0    0  0.83159987023E+03  0.47788512793E+03 -0.18697245988E+03  0.97718536646E+03  0.00000000000E+00 0.  1.
         22    1    1    2    0    0 -0.10721851241E+04 -0.62481102608E+03  0.40229520151E+03  0.13045348550E+04  0.00000000000E+00 0. -1.
<mgrwt>
<rscale>  0 0.25552154E+04</rscale>
<asrwt>0</asrwt>
<pdfrwt beam="1">  1        2 0.21324397E+00 0.25552154E+04</pdfrwt>
<pdfrwt beam="2">  1       -2 0.18117221E+00 0.25552154E+04</pdfrwt>
<totfact> 0.23292714E+00</totfact>
</mgrwt>
</event>
<event>
 6    1  0.5026615E-004  0.2961221E+04  0.7818608E-02  0.8254892E-01
         -2   -1    0    0    0  501 -0.00000000000E+00  0.00000000000E+00  0.11540435723E+04  0.11540435723E+04  0.00000000000E+00 0. -1.
          2   -1    0    0  501    0  0.00000000000E+00 -0.00000000000E+00 -0.18995878485E+04  0.18995878485E+04  0.00000000000E+00 0.  1.
         23    2    1    2    0    0  0.94238367737E+02  0.83363065390E+03  0.88314506941E+03  0.12215697620E+04  0.92013764225E+02 0.  0.
         13    1    3    3    0    0  0.85807948280E+02  0.35992824446E+03  0.39976080107E+03  0.54472015129E+03  0.00000000000E+00 0. -1.
        -13    1    3    3    0    0  0.84304194565E+01  0.47370240944E+03  0.48338426835E+03  0.67684961075E+03  0.00000000000E+00 0.  1.
         22    1    1    2    0    0 -0.94238367737E+02 -0.83363065390E+03 -0.16286893457E+04  0.18320616588E+04  0.00000000000E+00 0.  1.
<mgrwt>
<rscale>  0 0.29612208E+04</rscale>
<asrwt>0</asrwt>
<pdfrwt beam="1">  1        2 0.29224428E+00 0.29612208E+04</pdfrwt>
<pdfrwt beam="2">  1       -2 0.17754517E+00 0.29612208E+04</pdfrwt>
<totfact> 0.12305151E+00</totfact>
</mgrwt>
</event>
<event>
 6    1  0.5026615E-004  0.7131920E+03  0.7818608E-02  0.9694934E-01
          2   -1    0    0  501    0  0.00000000000E+00  0.00000000000E+00  0.82912489290E+03  0.82912489290E+03  0.00000000000E+00 0.  1.
         -2   -1    0    0    0  501 -0.00000000000E+00 -0.00000000000E+00 -0.15336735863E+03  0.15336735863E+03  0.00000000000E+00 0. -1.
         23    2    1    2    0    0 -0.10471539635E+03  0.20376634228E+03 -0.22244293819E+02  0.24785452552E+03  0.91929433460E+02 0.  0.
         11    1    3    3    0    0 -0.35734588716E+02  0.11207035262E+02 -0.21756935532E+02  0.43311923461E+02  0.00000000000E+00 0. -1.
        -11    1    3    3    0    0 -0.68980807630E+02  0.19255930701E+03 -0.48735828677E+00  0.20454260206E+03  0.00000000000E+00 0.  1.
         22    1    1    2    0    0  0.10471539635E+03 -0.20376634228E+03  0.69800182808E+03  0.73463772601E+03  0.00000000000E+00 0.  1.
<mgrwt>
<rscale>  0 0.71319197E+03</rscale>
<asrwt>0</asrwt>
<pdfrwt beam="1">  1        2 0.12755767E+00 0.71319197E+03</pdfrwt>
<pdfrwt beam="2">  1       -2 0.23594979E-01 0.71319197E+03</pdfrwt>
<totfact> 0.52542643E+02</totfact>
</mgrwt>
</event>
<event>
 6    1  0.5026615E-004  0.2364957E+04  0.7818608E-02  0.8452741E-01
          2   -1    0    0  501    0  0.00000000000E+00  0.00000000000E+00  0.58880941066E+03  0.58880941066E+03  0.00000000000E+00 0.  1.
         -2   -1    0    0    0  501 -0.00000000000E+00 -0.00000000000E+00 -0.23747174013E+04  0.23747174013E+04  0.00000000000E+00 0. -1.
         23    2    1    2    0    0  0.94051906438E+03 -0.69256184938E+03 -0.67857346420E+03  0.13540524322E+04  0.93691072758E+02 0.  0.
         11    1    3    3    0    0  0.61055578858E+03 -0.49958364336E+03 -0.47725846857E+03  0.92202919341E+03  0.00000000000E+00 0.  1.
        -11    1    3    3    0    0  0.32996327581E+03 -0.19297820601E+03 -0.20131499563E+03  0.43202323878E+03  0.00000000000E+00 0. -1.
         22    1    1    2    0    0 -0.94051906438E+03  0.69256184938E+03 -0.11073345264E+04  0.16094743797E+04  0.00000000000E+00 0.  1.
<mgrwt>
<rscale>  0 0.23649575E+04</rscale>
<asrwt>0</asrwt>
<pdfrwt beam="1">  1        2 0.90586066E-01 0.23649575E+04</pdfrwt>
<pdfrwt beam="2">  1       -2 0.36534113E+00 0.23649575E+04</pdfrwt>
<totfact> 0.56948229E-01</totfact>
</mgrwt>
</event>
<event>
 6    1  0.5026615E-004  0.2637910E+04  0.7818608E-02  0.8355437E-01
         -2   -1    0    0    0  501 -0.00000000000E+00  0.00000000000E+00  0.82263611031E+03  0.82263611031E+03  0.00000000000E+00 0. -1.
          2   -1    0    0  501    0  0.00000000000E+00 -0.00000000000E+00 -0.21147168654E+04  0.21147168654E+04  0.00000000000E+00 0.  1.
         23    2    1    2    0    0  0.57355409427E+03  0.79511013004E+03  0.33351196422E+03  0.10390073520E+04  0.84508161205E+02 0.  0.
         11    1    3    3    0    0  0.38702115723E+03  0.52960367180E+03  0.26451118867E+03  0.70727052410E+03  0.00000000000E+00 0.  1.
        -11    1    3    3    0    0  0.18653293704E+03  0.26550645824E+03  0.69000775558E+02  0.33173682791E+03  0.00000000000E+00 0. -1.
         22    1    1    2    0    0 -0.57355409427E+03 -0.79511013004E+03 -0.16255927193E+04  0.18983456237E+04  0.00000000000E+00 0.  1.
<mgrwt>
<rscale>  0 0.26379101E+04</rscale>
<asrwt>0</asrwt>
<pdfrwt beam="1">  1        2 0.32534105E+00 0.26379101E+04</pdfrwt>
<pdfrwt beam="2">  1       -2 0.12655940E+00 0.26379101E+04</pdfrwt>
<totfact> 0.23627523E+00</totfact>
</mgrwt>
</event>
<event>
 6    1  0.5026615E-004  0.1444766E+04  0.7818608E-02  0.8922037E-01
          2   -1    0    0  501    0  0.00000000000E+00  0.00000000000E+00  0.60314456308E+03  0.60314456308E+03  0.00000000000E+00 0.  1.
         -2   -1    0    0    0  501 -0.00000000000E+00 -0.00000000000E+00 -0.86519410056E+03  0.86519410056E+03  0.00000000000E+00 0. -1.
         23    2    1    2    0    0  0.40995768429E+03 -0.89736691962E+02 -0.72562166289E+03  0.84302506851E+03  0.89702239023E+02 0.  0.
         13    1    3    3    0    0  0.28313804502E+03 -0.53087081920E+02 -0.57223377566E+03  0.64065348264E+03  0.00000000000E+00 0.  1.
        -13    1    3    3    0    0  0.12681963927E+03 -0.36649610043E+02 -0.15338788723E+03  0.20237158587E+03  0.00000000000E+00 0. -1.
         22    1    1    2    0    0 -0.40995768429E+03  0.89736691962E+02  0.46357212541E+03  0.62531359513E+03  0.00000000000E+00 0.  1.
<mgrwt>
<rscale>  0 0.14447659E+04</rscale>
<asrwt>0</asrwt>
<pdfrwt beam="1">  1        2 0.92791471E-01 0.14447659E+04</pdfrwt>
<pdfrwt beam="2">  1       -2 0.13310678E+00 0.14447659E+04</pdfrwt>
<totfact> 0.19545857E+01</totfact>
</mgrwt>
</event>
<event>
 6    1  0.5026615E-004  0.1144583E+04  0.7818608E-02  0.9162795E-01
          2   -1    0    0  501    0  0.00000000000E+00  0.00000000000E+00  0.25812230252E+04  0.25812230252E+04  0.00000000000E+00 0.  1.
         -2   -1    0    0    0  501 -0.00000000000E+00 -0.00000000000E+00 -0.12688474354E+03  0.12688474354E+03  0.00000000000E+00 0. -1.
         23    2    1    2    0    0  0.32918927500E+03  0.29335680750E+03  0.38673756806E+03  0.59401304376E+03  0.94136891441E+02 0.  0.
         13    1    3    3    0    0  0.19660695910E+03  0.12003851800E+03  0.22851849478E+03  0.32447533747E+03  0.00000000000E+00 0.  1.
        -13    1    3    3    0    0  0.13258231590E+03  0.17331828949E+03  0.15821907328E+03  0.26953770629E+03  0.00000000000E+00 0. -1.
         22    1    1    2    0    0 -0.32918927500E+03 -0.29335680750E+03  0.20676007136E+04  0.21140947250E+04  0.00000000000E+00 0.  1.
<mgrwt>
<rscale>  0 0.11445835E+04</rscale>
<asrwt>0</asrwt>
<pdfrwt beam="1">  1        2 0.39711120E+00 0.11445835E+04</pdfrwt>
<pdfrwt beam="2">  1       -2 0.19520732E-01 0.11445835E+04</pdfrwt>
<totfact> 0.69557987E+01</totfact>
</mgrwt>
</event>
<event>
 6    1  0.5026615E-004  0.1768788E+04  0.7818608E-02  0.8723076E-01
         -2   -1    0    0    0  501 -0.00000000000E+00  0.00000000000E+00  0.76007230233E+03  0.76007230233E+03  0.00000000000E+00 0. -1.
          2   -1    0    0  501    0  0.00000000000E+00 -0.00000000000E+00 -0.10290509005E+04  0.10290509005E+04  0.00000000000E+00 0.  1.
         23    2    1    2    0    0 -0.56758112116E+02 -0.63579430413E+03 -0.75071574821E+03  0.98941915617E+03  0.88995794953E+02 0.  0.
         13    1    3    3    0    0 -0.22459478843E+02 -0.49434036867E+03 -0.53071302015E+03  0.72562603181E+03  0.00000000000E+00 0.  1.
        -13    1    3    3    0    0 -0.34298633274E+02 -0.14145393547E+03 -0.22000272807E+03  0.26379312436E+03  0.00000000000E+00 0. -1.
         22    1    1    2    0    0  0.56758112116E+02  0.63579430413E+03  0.48173715007E+03  0.79970404664E+03  0.00000000000E+00 0. -1.
<mgrwt>
<rscale>  0 0.17687884E+04</rscale>
<asrwt>0</asrwt>
<pdfrwt beam="1">  1        2 0.15831552E+00 0.17687884E+04</pdfrwt>
<pdfrwt beam="2">  1       -2 0.11693420E+00 0.17687884E+04</pdfrwt>
<totfact> 0.12930329E+01</totfact>
</mgrwt>
</event>
<event>
 6    1  0.5026615E-004  0.2886163E+04  0.7818608E-02  0.8277006E-01
          2   -1    0    0  501    0  0.00000000000E+00  0.00000000000E+00  0.15207388141E+04  0.15207388141E+04  0.00000000000E+00 0. -1.
         -2   -1    0    0    0  501 -0.00000000000E+00 -0.00000000000E+00 -0.13693897346E+04  0.13693897346E+04  0.00000000000E+00 0.  1.
         23    2    1    2    0    0 -0.41425651521E+03  0.91235112081E+03 -0.96219363807E+03  0.13921397596E+04  0.90793640579E+02 0.  0.
         13    1    3    3    0    0 -0.34922673172E+02  0.15265007612E+03 -0.16365693583E+03  0.22650658155E+03  0.00000000000E+00 0. -1.
        -13    1    3    3    0    0 -0.37933384204E+03  0.75970104469E+03 -0.79853670224E+03  0.11656331781E+04  0.00000000000E+00 0.  1.
         22    1    1    2    0    0  0.41425651521E+03 -0.91235112081E+03  0.11135427176E+04  0.14979887890E+04  0.00000000000E+00 0. -1.
<mgrwt>
<rscale>  0 0.28861629E+04</rscale>
<asrwt>0</asrwt>
<pdfrwt beam="1">  1        2 0.23395982E+00 0.28861629E+04</pdfrwt>
<pdfrwt beam="2">  1       -2 0.21067535E+00 0.28861629E+04</pdfrwt>
<totfact> 0.12104541E+00</totfact>
</mgrwt>
</event>
<event>
 6    1  0.5026615E-004  0.3721619E+04  0.7818608E-02  0.8063188E-01
          2   -1    0    0  501    0  0.00000000000E+00  0.00000000000E+00  0.24931756652E+04  0.24931756652E+04  0.00000000000E+00 0.  1.
         -2   -1    0    0    0  501 -0.00000000000E+00 -0.00000000000E+00 -0.13888358384E+04  0.13888358384E+04  0.00000000000E+00 0. -1.
         23    2    1    2    0    0 -0.59415683771E+03 -0.16741642884E+04 -0.20505389921E+02  0.17793643211E+04  0.99340343169E+02 0.  0.
         13    1    3    3    0    0 -0.40250751166E+03 -0.12564221369E+04 -0.46870010689E+00  0.13193214554E+04  0.00000000000E+00 0.  1.
        -13    1    3    3    0    0 -0.19164932605E+03 -0.41774215150E+03 -0.20036689814E+02  0.46004286567E+03  0.00000000000E+00 0. -1.
         22    1    1    2    0    0  0.59415683771E+03  0.16741642884E+04  0.11248452167E+04  0.21026471825E+04  0.00000000000E+00 0.  1.
<mgrwt>
<rscale>  0 0.37216188E+04</rscale>
<asrwt>0</asrwt>
<pdfrwt beam="1">  1        2 0.38356549E+00 0.37216188E+04</pdfrwt>
<pdfrwt beam="2">  1       -2 0.21366705E+00 0.37216188E+04</pdfrwt>
<totfact> 0.30745667E-01</totfact>
</mgrwt>
</event>
<event>
 6    1  0.5026615E-004  0.2655766E+04  0.7818608E-02  0.8349502E-01
          2   -1    0    0  501    0  0.00000000000E+00  0.00000000000E+00  0.14445100927E+04  0.14445100927E+04  0.00000000000E+00 0.  1.
         -2   -1    0    0    0  501 -0.00000000000E+00 -0.00000000000E+00 -0.12206723782E+04  0.12206723782E+04  0.00000000000E+00 0. -1.
         23    2    1    2    0    0 -0.39384058216E+03 -0.11221732047E+04 -0.47716988263E+03  0.12846772167E+04  0.91221426472E+02 0.  0.
         11    1    3    3    0    0 -0.96053038524E+02 -0.31763224383E+03 -0.92426837578E+02  0.34446937286E+03  0.00000000000E+00 0.  1.
        -11    1    3    3    0    0 -0.29778754364E+03 -0.80454096087E+03 -0.38474304505E+03  0.94020784382E+03  0.00000000000E+00 0. -1.
         22    1    1    2    0    0  0.39384058216E+03  0.11221732047E+04  0.70100759715E+03  0.13805052542E+04  0.00000000000E+00 0.  1.
<mgrwt>
<rscale>  0 0.26557662E+04</rscale>
<asrwt>0</asrwt>
<pdfrwt beam="1">  1        2 0.22223232E+00 0.26557662E+04</pdfrwt>
<pdfrwt beam="2">  1       -2 0.18779575E+00 0.26557662E+04</pdfrwt>
<totfact> 0.19276501E+00</totfact>
</mgrwt>
</event>
<event>
 6    1  0.5026615E-004  0.9303338E+03  0.7818608E-02  0.9388437E-01
          2   -1    0    0  501    0  0.00000000000E+00  0.00000000000E+00  0.66603844010E+03  0.66603844010E+03  0.00000000000E+00 0.  1.
         -2   -1    0    0    0  501 -0.00000000000E+00 -0.00000000000E+00 -0.32487654412E+03  0.32487654412E+03  0.00000000000E+00 0. -1.
         23    2    1    2    0    0  0.93695429474E+02 -0.13900761244E+03 -0.28485139973E+03  0.34284508350E+03  0.91106978486E+02 0.  0.
         11    1    3    3    0    0  0.18747621069E+02 -0.17306170581E+02 -0.15861795771E+01  0.25563505267E+02  0.00000000000E+00 0. -1.
        -11    1    3    3    0    0  0.74947808405E+02 -0.12170144186E+03 -0.28326522015E+03  0.31728157823E+03  0.00000000000E+00 0.  1.
         22    1    1    2    0    0 -0.93695429474E+02  0.13900761244E+03  0.62601329571E+03  0.64806990072E+03  0.00000000000E+00 0.  1.
<mgrwt>
<rscale>  0 0.93033385E+03</rscale>
<asrwt>0</asrwt>
<pdfrwt beam="1">  1        2 0.10246745E+00 0.93033385E+03</pdfrwt>
<pdfrwt beam="2">  1       -2 0.49981007E-01 0.93033385E+03</pdfrwt>
<totfact> 0.16551403E+02</totfact>
</mgrwt>
</event>
<event>
 6    1  0.5302565E-004  0.3115466E+04  0.7818608E-02  0.8211506E-01
          2   -1    0    0  501    0  0.00000000000E+00  0.00000000000E+00  0.92313900249E+03  0.92313900249E+03  0.00000000000E+00 0. -1.
         -2   -1    0    0    0  501 -0.00000000000E+00 -0.00000000000E+00 -0.26285671613E+04  0.26285671613E+04  0.00000000000E+00 0.  1.
         23    2    1    2    0    0  0.60597599039E+03  0.47768952489E+02  0.77997492901E+03  0.99305079765E+03  0.91105560173E+02 0.  0.
         11    1    3    3    0    0  0.41033940737E+03  0.81723818303E+01  0.46565849459E+03  0.62071172910E+03  0.00000000000E+00 0.  1.
        -11    1    3    3    0    0  0.19563658302E+03  0.39596570659E+02  0.31431643442E+03  0.37233906855E+03  0.00000000000E+00 0. -1.
         22    1    1    2    0    0 -0.60597599039E+03 -0.47768952489E+02 -0.24854030878E+04  0.25586553662E+04  0.00000000000E+00 0.  1.
<mgrwt>
<rscale>  0 0.31154665E+04</rscale>
<asrwt>0</asrwt>
<pdfrwt beam="1">  1        2 0.14202139E+00 0.31154665E+04</pdfrwt>
<pdfrwt beam="2">  1       -2 0.40439495E+00 0.31154665E+04</pdfrwt>
<totfact> 0.16647351E-01</totfact>
</mgrwt>
</event>
<event>
 6    1  0.5026615E-004  0.2679204E+04  0.7818608E-02  0.8341784E-01
          2   -1    0    0  501    0  0.00000000000E+00  0.00000000000E+00  0.58353812791E+03  0.58353812791E+03  0.00000000000E+00 0. -1.
         -2   -1    0    0    0  501 -0.00000000000E+00 -0.00000000000E+00 -0.30752636579E+04  0.30752636579E+04  0.00000000000E+00 0.  1.
         23    2    1    2    0    0  0.15175881559E+03  0.12831597693E+04 -0.77260954530E+03  0.15082461598E+04  0.91385104624E+02 0.  0.
         13    1    3    3    0    0  0.15160072471E+03  0.10700853401E+04 -0.67158547007E+03  0.12724356402E+04  0.00000000000E+00 0.  1.
        -13    1    3    3    0    0  0.15809088243E+00  0.21307442921E+03 -0.10102407523E+03  0.23581051959E+03  0.00000000000E+00 0. -1.
         22    1    1    2    0    0 -0.15175881559E+03 -0.12831597693E+04 -0.17191159847E+04  0.21505556260E+04  0.00000000000E+00 0.  1.
<mgrwt>
<rscale>  0 0.26792041E+04</rscale>
<asrwt>0</asrwt>
<pdfrwt beam="1">  1        2 0.89775095E-01 0.26792041E+04</pdfrwt>
<pdfrwt beam="2">  1       -2 0.47311749E+00 0.26792041E+04</pdfrwt>
<totfact> 0.11004357E-01</totfact>
</mgrwt>
</event>
<event>
 6    1  0.5026615E-004  0.6175067E+03  0.7818608E-02  0.9869736E-01
          2   -1    0    0  501    0  0.00000000000E+00  0.00000000000E+00  0.11453560091E+04  0.11453560091E+04  0.00000000000E+00 0.  1.
         -2   -1    0    0    0  501 -0.00000000000E+00 -0.00000000000E+00 -0.83230570613E+02  0.83230570613E+02  0.00000000000E+00 0. -1.
         23    2    1    2    0    0 -0.22983838235E+03 -0.16928685054E+03  0.36156823015E+03  0.47210517087E+03  0.10328595036E+03 0.  0.
         13    1    3    3    0    0 -0.18617310059E+03 -0.17066761095E+03  0.33955638691E+03  0.42318600721E+03  0.00000000000E+00 0.  1.
        -13    1    3    3    0    0 -0.43665281757E+02  0.13807604035E+01  0.22011843245E+02  0.48919163661E+02  0.00000000000E+00 0. -1.
         22    1    1    2    0    0  0.22983838235E+03  0.16928685054E+03  0.70055720831E+03  0.75648140881E+03  0.00000000000E+00 0.  1.
<mgrwt>
<rscale>  0 0.61750671E+03</rscale>
<asrwt>0</asrwt>
<pdfrwt beam="1">  1        2 0.17620861E+00 0.61750671E+03</pdfrwt>
<pdfrwt beam="2">  1       -2 0.12804704E-01 0.61750671E+03</pdfrwt>
<totfact> 0.94355987E+02</totfact>
</mgrwt>
</event>
<event>
 6    1  0.5026615E-004  0.3938794E+04  0.7818608E-02  0.8017009E-01
         -2   -1    0    0    0  501 -0.00000000000E+00  0.00000000000E+00  0.11522237560E+04  0.11522237560E+04  0.00000000000E+00 0. -1.
          2   -1    0    0  501    0  0.00000000000E+00 -0.00000000000E+00 -0.33661213356E+04  0.33661213356E+04  0.00000000000E+00 0.  1.
         23    2    1    2    0    0 -0.12544090898E+04 -0.94259514480E+03  0.25564548856E+03  0.15924826996E+04  0.92837282468E+02 0.  0.
         13    1    3    3    0    0 -0.12988903764E+03 -0.11569847709E+03  0.54264735867E+02  0.18221405340E+03  0.00000000000E+00 0.  1.
        -13    1    3    3    0    0 -0.11245200522E+04 -0.82689666772E+03  0.20138075270E+03  0.14102686462E+04  0.00000000000E+00 0. -1.
         22    1    1    2    0    0  0.12544090898E+04  0.94259514480E+03 -0.24695430681E+04  0.29258623920E+04  0.00000000000E+00 0.  1.
<mgrwt>
<rscale>  0 0.39387942E+04</rscale>
<asrwt>0</asrwt>
<pdfrwt beam="1">  1        2 0.51786482E+00 0.39387942E+04</pdfrwt>
<pdfrwt beam="2">  1       -2 0.17726519E+00 0.39387942E+04</pdfrwt>
<totfact> 0.15077465E-01</totfact>
</mgrwt>
</event>
<event>
 6    1  0.5026615E-004  0.1859903E+04  0.7818608E-02  0.8675077E-01
          2   -1    0    0  501    0  0.00000000000E+00  0.00000000000E+00  0.28183256348E+04  0.28183256348E+04  0.00000000000E+00 0.  1.
         -2   -1    0    0    0  501 -0.00000000000E+00 -0.00000000000E+00 -0.30685234788E+03  0.30685234788E+03  0.00000000000E+00 0. -1.
         23    2    1    2    0    0  0.30838459847E+03  0.58069269691E+03  0.15889262139E+03  0.68244573034E+03  0.90444684246E+02 0.  0.
         13    1    3    3    0    0  0.13790198725E+03  0.23605105926E+03  0.21855833906E+02  0.27425305493E+03  0.00000000000E+00 0.  1.
        -13    1    3    3    0    0  0.17048261122E+03  0.34464163765E+03  0.13703678748E+03  0.40819267541E+03  0.00000000000E+00 0. -1.
         22    1    1    2    0    0 -0.30838459847E+03 -0.58069269691E+03  0.23525806655E+04  0.24427322524E+04  0.00000000000E+00 0.  1.
<mgrwt>
<rscale>  0 0.18599030E+04</rscale>
<asrwt>0</asrwt>
<pdfrwt beam="1">  1        2 0.43358854E+00 0.18599030E+04</pdfrwt>
<pdfrwt beam="2">  1       -2 0.47208055E-01 0.18599030E+04</pdfrwt>
<totfact> 0.90274740E+00</totfact>
</mgrwt>
</event>
<event>
 6    1  0.5026615E-004  0.1073079E+04  0.7818608E-02  0.9231836E-01
          1   -1    0    0  501    0  0.00000000000E+00  0.00000000000E+00  0.25518237524E+03  0.25518237524E+03  0.00000000000E+00 0.  1.
         -1   -1    0    0    0  501 -0.00000000000E+00 -0.00000000000E+00 -0.11281123090E+04  0.11281123090E+04  0.00000000000E+00 0. -1.
         23    2    1    2    0    0 -0.26909364833E+03  0.20662892604E+03  0.89947556782E+02  0.36239313833E+03  0.90173827078E+02 0.  0.
         13    1    3    3    0    0 -0.13965855716E+03  0.11855895808E+03  0.28028303600E+01  0.18321734358E+03  0.00000000000E+00 0. -1.
        -13    1    3    3    0    0 -0.12943509117E+03  0.88069967959E+02  0.87144726422E+02  0.17917579475E+03  0.00000000000E+00 0.  1.
         22    1    1    2    0    0  0.26909364833E+03 -0.20662892604E+03 -0.96287749049E+03  0.10209015459E+04  0.00000000000E+00 0. -1.
<mgrwt>
<rscale>  0 0.10730785E+04</rscale>
<asrwt>0</asrwt>
<pdfrwt beam="1">  1        1 0.39258827E-01 0.10730785E+04</pdfrwt>
<pdfrwt beam="2">  1       -1 0.17355574E+00 0.10730785E+04</pdfrwt>
<totfact> 0.25054382E+01</totfact>
</mgrwt>
</event>
<event>
 6    1  0.5026615E-004  0.1654566E+04  0.7818608E-02  0.8787710E-01
         -2   -1    0    0    0  501 -0.00000000000E+00  0.00000000000E+00  0.16453666995E+03  0.16453666995E+03  0.00000000000E+00 0. -1.
          2   -1    0    0  501    0  0.00000000000E+00 -0.00000000000E+00 -0.41595415158E+04  0.41595415158E+04  0.00000000000E+00 0.  1.
         23    2    1    2    0    0 -0.18180788787E+03  0.64277427237E+02 -0.40994027357E+04  0.41047961410E+04  0.84040910685E+02 0.  0.
         11    1    3    3    0    0 -0.82849870603E+02  0.20696758138E+02 -0.26455644392E+04  0.26469423225E+04  0.00000000000E+00 0.  1.
        -11    1    3    3    0    0 -0.98958017268E+02  0.43580669099E+02 -0.14538382965E+04  0.14578538185E+04  0.00000000000E+00 0. -1.
         22    1    1    2    0    0  0.18180788787E+03 -0.64277427237E+02  0.10439788980E+03  0.21928204472E+03  0.00000000000E+00 0. -1.
<mgrwt>
<rscale>  0 0.16545659E+04</rscale>
<asrwt>0</asrwt>
<pdfrwt beam="1">  1        2 0.63992940E+00 0.16545659E+04</pdfrwt>
<pdfrwt beam="2">  1       -2 0.25313336E-01 0.16545659E+04</pdfrwt>
<totfact> 0.34478161E+00</totfact>
</mgrwt>
</event>
<event>
 6    1  0.5026615E-004  0.1506106E+04  0.7818608E-02  0.8880403E-01
         -2   -1    0    0    0  501 -0.00000000000E+00  0.00000000000E+00  0.44843709742E+03  0.44843709742E+03  0.00000000000E+00 0. -1.
          2   -1    0    0  501    0  0.00000000000E+00 -0.00000000000E+00 -0.12645895370E+04  0.12645895370E+04  0.00000000000E+00 0.  1.
         23    2    1    2    0    0  0.30369204467E+03  0.45303541426E+03 -0.99558261503E+03  0.11388619085E+04  0.91387957184E+02 0.  0.
         13    1    3    3    0    0  0.13924263184E+03  0.26690864317E+03 -0.48035257930E+03  0.56689270128E+03  0.00000000000E+00 0.  1.
        -13    1    3    3    0    0  0.16444941283E+03  0.18612677109E+03 -0.51523003573E+03  0.57196920722E+03  0.00000000000E+00 0. -1.
         22    1    1    2    0    0 -0.30369204467E+03 -0.45303541426E+03  0.17943017548E+03  0.57416472588E+03  0.00000000000E+00 0. -1.
<mgrwt>
<rscale>  0 0.15061061E+04</rscale>
<asrwt>0</asrwt>
<pdfrwt beam="1">  1        2 0.19455223E+00 0.15061061E+04</pdfrwt>
<pdfrwt beam="2">  1       -2 0.68990324E-01 0.15061061E+04</pdfrwt>
<totfact> 0.32135636E+01</totfact>
</mgrwt>
</event>
<event>
 6    1  0.5026615E-004  0.3524394E+04  0.7818608E-02  0.8108033E-01
         -2   -1    0    0    0  501 -0.00000000000E+00  0.00000000000E+00  0.12305587066E+04  0.12305587066E+04  0.00000000000E+00 0. -1.
          2   -1    0    0  501    0  0.00000000000E+00 -0.00000000000E+00 -0.25235196325E+04  0.25235196325E+04  0.00000000000E+00 0.  1.
         23    2    1    2    0    0  0.28485642368E+03  0.93089662951E+03 -0.22100039256E+04  0.24166630781E+04  0.91822465501E+02 0.  0.
         11    1    3    3    0    0  0.20048945255E+03  0.62755616672E+03 -0.13877118349E+04  0.15361532800E+04  0.00000000000E+00 0. -1.
        -11    1    3    3    0    0  0.84366971124E+02  0.30334046279E+03 -0.82229209071E+03  0.88050979814E+03  0.00000000000E+00 0.  1.
         22    1    1    2    0    0 -0.28485642368E+03 -0.93089662951E+03  0.91704299976E+03  0.13374152610E+04  0.00000000000E+00 0. -1.
<mgrwt>
<rscale>  0 0.35243944E+04</rscale>
<asrwt>0</asrwt>
<pdfrwt beam="1">  1        2 0.38823378E+00 0.35243944E+04</pdfrwt>
<pdfrwt beam="2">  1       -2 0.18931673E+00 0.35243944E+04</pdfrwt>
<totfact> 0.43329316E-01</totfact>
</mgrwt>
</event>
<event>
 6    1  0.5026615E-004  0.1953857E+04  0.7818608E-02  0.8628503E-01
         -2   -1    0    0    0  501 -0.00000000000E+00  0.00000000000E+00  0.35588937135E+03  0.35588937135E+03  0.00000000000E+00 0. -1.
          2   -1    0    0  501    0  0.00000000000E+00 -0.00000000000E+00 -0.26817028962E+04  0.26817028962E+04  0.00000000000E+00 0.  1.
         23    2    1    2    0    0 -0.59244616639E+03  0.75706900015E+03 -0.91245918038E+03  0.13282893587E+04  0.87320865891E+02 0.  0.
         11    1    3    3    0    0 -0.27523834132E+03  0.33823476379E+03 -0.35545904928E+03  0.56259224637E+03  0.00000000000E+00 0. -1.
        -11    1    3    3    0    0 -0.31720782507E+03  0.41883423636E+03 -0.55700013110E+03  0.76569711236E+03  0.00000000000E+00 0.  1.
         22    1    1    2    0    0  0.59244616639E+03 -0.75706900015E+03 -0.14133543445E+04  0.17093029088E+04  0.00000000000E+00 0. -1.
<mgrwt>
<rscale>  0 0.19538573E+04</rscale>
<asrwt>0</asrwt>
<pdfrwt beam="1">  1        2 0.41256967E+00 0.19538573E+04</pdfrwt>
<pdfrwt beam="2">  1       -2 0.54752211E-01 0.19538573E+04</pdfrwt>
<totfact> 0.79789529E+00</totfact>
</mgrwt>
</event>
<event>
 6    1  0.5026615E-004  0.2579924E+04  0.7818608E-02  0.8375053E-01
         -2   -1    0    0    0  501 -0.00000000000E+00  0.00000000000E+00  0.78762275287E+03  0.78762275287E+03  0.00000000000E+00 0. -1.
          2   -1    0    0  501    0  0.00000000000E+00 -0.00000000000E+00 -0.21126886289E+04  0.21126886289E+04  0.00000000000E+00 0.  1.
         23    2    1    2    0    0  0.40240272027E+03  0.83626429544E+03  0.34121722927E+03  0.99301871727E+03  0.91602697530E+02 0.  0.
         11    1    3    3    0    0  0.26431211593E+03  0.58482418127E+03  0.19326213231E+03  0.67024657360E+03  0.00000000000E+00 0. -1.
        -11    1    3    3    0    0  0.13809060433E+03  0.25144011416E+03  0.14795509695E+03  0.32277214367E+03  0.00000000000E+00 0.  1.
         22    1    1    2    0    0 -0.40240272027E+03 -0.83626429544E+03 -0.16662831053E+04  0.19072926645E+04  0.00000000000E+00 0.  1.
<mgrwt>
<rscale>  0 0.25799237E+04</rscale>
<asrwt>0</asrwt>
<pdfrwt beam="1">  1        2 0.32502902E+00 0.25799237E+04</pdfrwt>
<pdfrwt beam="2">  1       -2 0.12117273E+00 0.25799237E+04</pdfrwt>
<totfact> 0.26544603E+00</totfact>
</mgrwt>
</event>
<event>
 6    1  0.5026615E-004  0.1146789E+04  0.7818608E-02  0.9160751E-01
          2   -1    0    0  501    0  0.00000000000E+00  0.00000000000E+00  0.35368419828E+03  0.35368419828E+03  0.00000000000E+00 0.  1.
         -2   -1    0    0    0  501 -0.00000000000E+00 -0.00000000000E+00 -0.92958948523E+03  0.92958948523E+03  0.00000000000E+00 0. -1.
         23    2    1    2    0    0 -0.17456905419E+03 -0.37472001647E+03 -0.72867073347E+03  0.84256206911E+03  0.89779491303E+02 0.  0.
         11    1    3    3    0    0 -0.85573593706E+02 -0.27776844326E+03 -0.47754547143E+03  0.55904188152E+03  0.00000000000E+00 0. -1.
        -11    1    3    3    0    0 -0.88995460486E+02 -0.96951573211E+02 -0.25112526204E+03  0.28352018759E+03  0.00000000000E+00 0.  1.
         22    1    1    2    0    0  0.17456905419E+03  0.37472001647E+03  0.15276544651E+03  0.44071161440E+03  0.00000000000E+00 0.  1.
<mgrwt>
<rscale>  0 0.11467888E+04</rscale>
<asrwt>0</asrwt>
<pdfrwt beam="1">  1        2 0.54412954E-01 0.11467888E+04</pdfrwt>
<pdfrwt beam="2">  1       -2 0.14301377E+00 0.11467888E+04</pdfrwt>
<totfact> 0.30691042E+01</totfact>
</mgrwt>
</event>
<event>
 6    1  0.5026615E-004  0.1655815E+04  0.7818608E-02  0.8786974E-01
          2   -1    0    0  501    0  0.00000000000E+00  0.00000000000E+00  0.10009017909E+04  0.10009017909E+04  0.00000000000E+00 0.  1.
         -2   -1    0    0    0  501 -0.00000000000E+00 -0.00000000000E+00 -0.68481342292E+03  0.68481342292E+03  0.00000000000E+00 0. -1.
         23    2    1    2    0    0  0.69936752186E+02  0.81350589144E+03  0.35690674900E+02  0.82240423221E+03  0.91607380516E+02 0.  0.
         11    1    3    3    0    0 -0.27797970481E+01  0.49175825406E+03  0.20781632501E+02  0.49220502228E+03  0.00000000000E+00 0. -1.
        -11    1    3    3    0    0  0.72716549234E+02  0.32174763738E+03  0.14909042399E+02  0.33019920992E+03  0.00000000000E+00 0.  1.
         22    1    1    2    0    0 -0.69936752186E+02 -0.81350589144E+03  0.28039769310E+03  0.86331098163E+03  0.00000000000E+00 0. -1.
<mgrwt>
<rscale>  0 0.16558152E+04</rscale>
<asrwt>0</asrwt>
<pdfrwt beam="1">  1        2 0.15398489E+00 0.16558152E+04</pdfrwt>
<pdfrwt beam="2">  1       -2 0.10535591E+00 0.16558152E+04</pdfrwt>
<totfact> 0.17515418E+01</totfact>
</mgrwt>
</event>
<event>
 6    1  0.5026615E-004  0.2852195E+04  0.7818608E-02  0.8287245E-01
         -2   -1    0    0    0  501 -0.00000000000E+00  0.00000000000E+00  0.87929951026E+03  0.87929951026E+03  0.00000000000E+00 0. -1.
          2   -1    0    0  501    0  0.00000000000E+00 -0.00000000000E+00 -0.23129251854E+04  0.23129251854E+04  0.00000000000E+00 0.  1.
         23    2    1    2    0    0  0.73221363023E+03  0.12147635642E+04 -0.56889537877E+03  0.15310366260E+04  0.92972475243E+02 0.  0.
         11    1    3    3    0    0  0.54980391265E+03  0.97816867995E+03 -0.46689460128E+03  0.12153554532E+04  0.00000000000E+00 0.  1.
        -11    1    3    3    0    0  0.18240971758E+03  0.23659488423E+03 -0.10200077749E+03  0.31568117289E+03  0.00000000000E+00 0. -1.
         22    1    1    2    0    0 -0.73221363023E+03 -0.12147635642E+04 -0.86473029636E+03  0.16611880696E+04  0.00000000000E+00 0. -1.
<mgrwt>
<rscale>  0 0.28521949E+04</rscale>
<asrwt>0</asrwt>
<pdfrwt beam="1">  1        2 0.35583463E+00 0.28521949E+04</pdfrwt>
<pdfrwt beam="2">  1       -2 0.13527685E+00 0.28521949E+04</pdfrwt>
<totfact> 0.15155941E+00</totfact>
</mgrwt>
</event>
<event>
 6    1  0.5026615E-004  0.2390401E+04  0.7818608E-02  0.8443106E-01
         -2   -1    0    0    0  501 -0.00000000000E+00  0.00000000000E+00  0.54475161505E+03  0.54475161505E+03  0.00000000000E+00 0. -1.
          2   -1    0    0  501    0  0.00000000000E+00 -0.00000000000E+00 -0.26223044978E+04  0.26223044978E+04  0.00000000000E+00 0.  1.
         23    2    1    2    0    0  0.53742321728E+03  0.94226667273E+03 -0.16997126347E+04  0.20183814635E+04  0.90280090369E+02 0.  0.
         13    1    3    3    0    0  0.44633135667E+03  0.81352683753E+03 -0.15014146070E+04  0.17650165488E+04  0.00000000000E+00 0.  1.
        -13    1    3    3    0    0  0.91091860613E+02  0.12873983520E+03 -0.19829802774E+03  0.25336491478E+03  0.00000000000E+00 0. -1.
         22    1    1    2    0    0 -0.53742321728E+03 -0.94226667273E+03 -0.37784024806E+03  0.11486746494E+04  0.00000000000E+00 0. -1.
<mgrwt>
<rscale>  0 0.23904013E+04</rscale>
<asrwt>0</asrwt>
<pdfrwt beam="1">  1        2 0.40343145E+00 0.23904013E+04</pdfrwt>
<pdfrwt beam="2">  1       -2 0.83807943E-01 0.23904013E+04</pdfrwt>
<totfact> 0.33061422E+00</totfact>
</mgrwt>
</event>
<event>
 6    1  0.5026615E-004  0.4038493E+04  0.7818608E-02  0.7996826E-01
         -2   -1    0    0    0  501 -0.00000000000E+00  0.00000000000E+00  0.99660319405E+03  0.99660319405E+03  0.00000000000E+00 0. -1.
          2   -1    0    0  501    0  0.00000000000E+00 -0.00000000000E+00 -0.40912539857E+04  0.40912539857E+04  0.00000000000E+00 0.  1.
         23    2    1    2    0    0 -0.13729622287E+04 -0.68385679332E+03 -0.32005439834E+04  0.35503596144E+04  0.94266676687E+02 0.  0.
         11    1    3    3    0    0 -0.12363763907E+04 -0.63646490721E+03 -0.28492590298E+04  0.31704875298E+04  0.00000000000E+00 0.  1.
        -11    1    3    3    0    0 -0.13658583800E+03 -0.47391886107E+02 -0.35128495359E+03  0.37987208456E+03  0.00000000000E+00 0. -1.
         22    1    1    2    0    0  0.13729622287E+04  0.68385679332E+03  0.10589319181E+03  0.15374975653E+04  0.00000000000E+00 0. -1.
<mgrwt>
<rscale>  0 0.40384932E+04</rscale>
<asrwt>0</asrwt>
<pdfrwt beam="1">  1        2 0.62942370E+00 0.40384932E+04</pdfrwt>
<pdfrwt beam="2">  1       -2 0.15332357E+00 0.40384932E+04</pdfrwt>
<totfact> 0.63702933E-02</totfact>
</mgrwt>
</event>
<event>
 6    1  0.5026615E-004  0.6891428E+03  0.7818608E-02  0.9735982E-01
         -2   -1    0    0    0  501 -0.00000000000E+00  0.00000000000E+00  0.12149176560E+04  0.12149176560E+04  0.00000000000E+00 0. -1.
          2   -1    0    0  501    0  0.00000000000E+00 -0.00000000000E+00 -0.97726330448E+02  0.97726330448E+02  0.00000000000E+00 0.  1.
         23    2    1    2    0    0 -0.33300097631E+03  0.53113107639E+02  0.62661978438E+03  0.71735322603E+03  0.90733920340E+02 0.  0.
         13    1    3    3    0    0 -0.26798378675E+03  0.77921802700E+02  0.51681181065E+03  0.58735131303E+03  0.00000000000E+00 0. -1.
        -13    1    3    3    0    0 -0.65017189563E+02 -0.24808695061E+02  0.10980797373E+03  0.13000191300E+03  0.00000000000E+00 0.  1.
         22    1    1    2    0    0  0.33300097631E+03 -0.53113107639E+02  0.49057154118E+03  0.59529076042E+03  0.00000000000E+00 0.  1.
<mgrwt>
<rscale>  0 0.68914278E+03</rscale>
<asrwt>0</asrwt>
<pdfrwt beam="1">  1        2 0.15034821E-01 0.68914278E+03</pdfrwt>
<pdfrwt beam="2">  1       -2 0.18691040E+00 0.68914278E+03</pdfrwt>
<totfact> 0.66236959E+01</totfact>
</mgrwt>
</event>
<event>
 6    1  0.5026615E-004  0.1174681E+04  0.7818608E-02  0.9135311E-01
          2   -1    0    0  501    0  0.00000000000E+00  0.00000000000E+00  0.76611732235E+03  0.76611732235E+03  0.00000000000E+00 0. -1.
         -2   -1    0    0    0  501 -0.00000000000E+00 -0.00000000000E+00 -0.45028203027E+03  0.45028203027E+03  0.00000000000E+00 0.  1.
         23    2    1    2    0    0  0.47776647265E+03  0.25594081172E+03 -0.65474921492E+02  0.55370486761E+03  0.92388384419E+02 0.  0.
         11    1    3    3    0    0  0.18038336210E+03  0.54109121737E+02  0.32913183403E+00  0.18832435505E+03  0.00000000000E+00 0.  1.
        -11    1    3    3    0    0  0.29738311055E+03  0.20183168998E+03 -0.65804053326E+02  0.36538051256E+03  0.00000000000E+00 0. -1.
         22    1    1    2    0    0 -0.47776647265E+03 -0.25594081172E+03  0.38131021357E+03  0.66269448501E+03  0.00000000000E+00 0. -1.
<mgrwt>
<rscale>  0 0.11746810E+04</rscale>
<asrwt>0</asrwt>
<pdfrwt beam="1">  1        2 0.11786420E+00 0.11746810E+04</pdfrwt>
<pdfrwt beam="2">  1       -2 0.69274159E-01 0.11746810E+04</pdfrwt>
<totfact> 0.68587453E+01</totfact>
</mgrwt>
</event>
<event>
 6    1  0.5026615E-004  0.1522743E+04  0.7818608E-02  0.8869468E-01
          2   -1    0    0  501    0  0.00000000000E+00  0.00000000000E+00  0.83127972444E+03  0.83127972444E+03  0.00000000000E+00 0.  1.
         -2   -1    0    0    0  501 -0.00000000000E+00 -0.00000000000E+00 -0.69734261388E+03  0.69734261388E+03  0.00000000000E+00 0. -1.
         23    2    1    2    0    0 -0.53830102350E+03 -0.18230777146E+03 -0.43717752676E+03  0.72290772111E+03  0.92017758599E+02 0.  0.
         13    1    3    3    0    0 -0.45082511508E+03 -0.11747441765E+03 -0.37038573898E+03  0.59517150371E+03  0.00000000000E+00 0.  1.
        -13    1    3    3    0    0 -0.87475908417E+02 -0.64833353810E+02 -0.66791787784E+02  0.12773621740E+03  0.00000000000E+00 0. -1.
         22    1    1    2    0    0  0.53830102350E+03  0.18230777146E+03  0.57111463732E+03  0.80571461722E+03  0.00000000000E+00 0.  1.
<mgrwt>
<rscale>  0 0.15227433E+04</rscale>
<asrwt>0</asrwt>
<pdfrwt beam="1">  1        2 0.12788919E+00 0.15227433E+04</pdfrwt>
<pdfrwt beam="2">  1       -2 0.10728348E+00 0.15227433E+04</pdfrwt>
<totfact> 0.22028148E+01</totfact>
</mgrwt>
</event>
<event>
 6    1  0.5026615E-004  0.5505392E+04  0.7818608E-02  0.7754948E-01
          2   -1    0    0  501    0  0.00000000000E+00  0.00000000000E+00  0.26831102631E+04  0.26831102631E+04  0.00000000000E+00 0.  1.
         -2   -1    0    0    0  501 -0.00000000000E+00 -0.00000000000E+00 -0.28240861965E+04  0.28240861965E+04  0.00000000000E+00 0. -1.
         23    2    1    2    0    0 -0.21626825921E+04  0.11249913771E+04  0.12066713055E+04  0.27217064357E+04  0.93961107252E+02 0.  0.
         11    1    3    3    0    0 -0.14781190292E+04  0.73482480972E+03  0.78103277133E+03  0.18261477365E+04  0.00000000000E+00 0.  1.
        -11    1    3    3    0    0 -0.68456356288E+03  0.39016656738E+03  0.42563853418E+03  0.89555869920E+03  0.00000000000E+00 0. -1.
         22    1    1    2    0    0  0.21626825921E+04 -0.11249913771E+04 -0.13476472389E+04  0.27854900239E+04  0.00000000000E+00 0. -1.
<mgrwt>
<rscale>  0 0.55053918E+04</rscale>
<asrwt>0</asrwt>
<pdfrwt beam="1">  1        2 0.41278619E+00 0.55053918E+04</pdfrwt>
<pdfrwt beam="2">  1       -2 0.43447480E+00 0.55053918E+04</pdfrwt>
<totfact> 0.83831207E-03</totfact>
</mgrwt>
</event>
<event>
 6    1  0.5026615E-004  0.2280168E+04  0.7818608E-02  0.8485782E-01
         -2   -1    0    0    0  501 -0.00000000000E+00  0.00000000000E+00  0.72375133178E+03  0.72375133178E+03  0.00000000000E+00 0.  1.
          2   -1    0    0  501    0  0.00000000000E+00 -0.00000000000E+00 -0.17959095544E+04  0.17959095544E+04  0.00000000000E+00 0. -1.
         23    2    1    2    0    0 -0.39126362369E+03 -0.10277479924E+04 -0.86156636077E+03  0.13999724959E+04  0.90957331321E+02 0.  0.
         13    1    3    3    0    0 -0.39581491286E+02 -0.19927724675E+03 -0.14687585812E+03  0.25070028565E+03  0.00000000000E+00 0.  1.
        -13    1    3    3    0    0 -0.35168213241E+03 -0.82847074567E+03 -0.71469050265E+03  0.11492722103E+04  0.00000000000E+00 0. -1.
         22    1    1    2    0    0  0.39126362369E+03  0.10277479924E+04 -0.21059186190E+03  0.11196883903E+04  0.00000000000E+00 0.  1.
<mgrwt>
<rscale>  0 0.22801684E+04</rscale>
<asrwt>0</asrwt>
<pdfrwt beam="1">  1        2 0.27629378E+00 0.22801684E+04</pdfrwt>
<pdfrwt beam="2">  1       -2 0.11134636E+00 0.22801684E+04</pdfrwt>
<totfact> 0.50248657E+00</totfact>
</mgrwt>
</event>
<event>
 6    1  0.5026615E-004  0.2976749E+04  0.7818608E-02  0.8250402E-01
         -2   -1    0    0    0  501 -0.00000000000E+00  0.00000000000E+00  0.14092647317E+04  0.14092647317E+04  0.00000000000E+00 0. -1.
          2   -1    0    0  501    0  0.00000000000E+00 -0.00000000000E+00 -0.15719253790E+04  0.15719253790E+04  0.00000000000E+00 0.  1.
         23    2    1    2    0    0 -0.82754822311E+03 -0.83489714579E+03  0.83057443580E+03  0.14422277213E+04  0.90981322833E+02 0.  0.
         13    1    3    3    0    0 -0.26220507619E+03 -0.31060703787E+03  0.32205605786E+03  0.51860229306E+03  0.00000000000E+00 0.  1.
        -13    1    3    3    0    0 -0.56534314692E+03 -0.52429010792E+03  0.50851837794E+03  0.92362542826E+03  0.00000000000E+00 0. -1.
         22    1    1    2    0    0  0.82754822311E+03  0.83489714579E+03 -0.99323508308E+03  0.15389623894E+04  0.00000000000E+00 0.  1.
<mgrwt>
<rscale>  0 0.29767492E+04</rscale>
<asrwt>0</asrwt>
<pdfrwt beam="1">  1        2 0.24183467E+00 0.29767492E+04</pdfrwt>
<pdfrwt beam="2">  1       -2 0.21680996E+00 0.29767492E+04</pdfrwt>
<totfact> 0.10271248E+00</totfact>
</mgrwt>
</event>
<event>
 6    1  0.5026615E-004  0.5179718E+04  0.7818608E-02  0.7801367E-01
          2   -1    0    0  501    0  0.00000000000E+00  0.00000000000E+00  0.34602916032E+04  0.34602916032E+04  0.00000000000E+00 0.  1.
         -2   -1    0    0    0  501 -0.00000000000E+00 -0.00000000000E+00 -0.19383830459E+04  0.19383830459E+04  0.00000000000E+00 0. -1.
         23    2    1    2    0    0  0.11906356098E+04 -0.19378303372E+04  0.20505364954E+04  0.30636699237E+04  0.92595414796E+02 0.  0.
         13    1    3    3    0    0  0.57929257030E+03 -0.10178949122E+04  0.10881808061E+04  0.15986955311E+04  0.00000000000E+00 0. -1.
        -13    1    3    3    0    0  0.61134303952E+03 -0.91993542505E+03  0.96235568931E+03  0.14649743926E+04  0.00000000000E+00 0.  1.
         22    1    1    2    0    0 -0.11906356098E+04  0.19378303372E+04 -0.52862793810E+03  0.23350047255E+04  0.00000000000E+00 0. -1.
<mgrwt>
<rscale>  0 0.51797184E+04</rscale>
<asrwt>0</asrwt>
<pdfrwt beam="1">  1        2 0.53235255E+00 0.51797184E+04</pdfrwt>
<pdfrwt beam="2">  1       -2 0.29821278E+00 0.51797184E+04</pdfrwt>
<totfact> 0.20233268E-02</totfact>
</mgrwt>
</event>
<event>
 6    1  0.5026615E-004  0.1581477E+04  0.7818608E-02  0.8832009E-01
          2   -1    0    0  501    0  0.00000000000E+00  0.00000000000E+00  0.96434565296E+03  0.96434565296E+03  0.00000000000E+00 0.  1.
         -2   -1    0    0    0  501 -0.00000000000E+00 -0.00000000000E+00 -0.64838552834E+03  0.64838552834E+03  0.00000000000E+00 0. -1.
         23    2    1    2    0    0  0.14668417767E+03  0.63779366432E+03  0.60625386515E+03  0.89679301217E+03  0.91634881190E+02 0.  0.
         11    1    3    3    0    0  0.12064103744E+03  0.32032082230E+03  0.31537342979E+03  0.46542463336E+03  0.00000000000E+00 0.  1.
        -11    1    3    3    0    0  0.26043140231E+02  0.31747284202E+03  0.29088043535E+03  0.43136837882E+03  0.00000000000E+00 0. -1.
         22    1    1    2    0    0 -0.14668417767E+03 -0.63779366432E+03 -0.29029374053E+03  0.71593816913E+03  0.00000000000E+00 0. -1.
<mgrwt>
<rscale>  0 0.15814775E+04</rscale>
<asrwt>0</asrwt>
<pdfrwt beam="1">  1        2 0.14836087E+00 0.15814775E+04</pdfrwt>
<pdfrwt beam="2">  1       -2 0.99751620E-01 0.15814775E+04</pdfrwt>
<totfact> 0.21201942E+01</totfact>
</mgrwt>
</event>
<event>
 6    1  0.5026615E-004  0.2385699E+04  0.7818608E-02  0.8444877E-01
         -2   -1    0    0    0  501 -0.00000000000E+00  0.00000000000E+00  0.68001601478E+03  0.68001601478E+03  0.00000000000E+00 0. -1.
          2   -1    0    0  501    0  0.00000000000E+00 -0.00000000000E+00 -0.20924365282E+04  0.20924365282E+04  0.00000000000E+00 0.  1.
         23    2    1    2    0    0 -0.61065541381E+03  0.13013193906E+03 -0.18860040059E+04  0.19887972104E+04  0.92026504911E+02 0.  0.
         13    1    3    3    0    0 -0.39927630794E+03  0.12774020829E+03 -0.12909232072E+04  0.13572847371E+04  0.00000000000E+00 0. -1.
        -13    1    3    3    0    0 -0.21137910588E+03  0.23917307686E+01 -0.59508079875E+03  0.63151247321E+03  0.00000000000E+00 0.  1.
         22    1    1    2    0    0  0.61065541381E+03 -0.13013193906E+03  0.47358349250E+03  0.78365533262E+03  0.00000000000E+00 0. -1.
<mgrwt>
<rscale>  0 0.23856994E+04</rscale>
<asrwt>0</asrwt>
<pdfrwt beam="1">  1        2 0.32191331E+00 0.23856994E+04</pdfrwt>
<pdfrwt beam="2">  1       -2 0.10461785E+00 0.23856994E+04</pdfrwt>
<totfact> 0.39607996E+00</totfact>
</mgrwt>
</event>
<event>
 6    1  0.5026615E-004  0.2278261E+04  0.7818608E-02  0.8486542E-01
          2   -1    0    0  501    0  0.00000000000E+00  0.00000000000E+00  0.17211147497E+04  0.17211147497E+04  0.00000000000E+00 0.  1.
         -2   -1    0    0    0  501 -0.00000000000E+00 -0.00000000000E+00 -0.75394086982E+03  0.75394086982E+03  0.00000000000E+00 0. -1.
         23    2    1    2    0    0 -0.47420661910E+03 -0.44701673046E+03 -0.52819961686E+03  0.84384816194E+03  0.91591540284E+02 0.  0.
         13    1    3    3    0    0 -0.18633092103E+03 -0.21347803754E+03 -0.27553984759E+03  0.39523953782E+03  0.00000000000E+00 0.  1.
        -13    1    3    3    0    0 -0.28787569808E+03 -0.23353869291E+03 -0.25265976926E+03  0.44860862412E+03  0.00000000000E+00 0. -1.
         22    1    1    2    0    0  0.47420661910E+03  0.44701673046E+03  0.14953734967E+04  0.16312074576E+04  0.00000000000E+00 0.  1.
<mgrwt>
<rscale>  0 0.22782614E+04</rscale>
<asrwt>0</asrwt>
<pdfrwt beam="1">  1        2 0.26478688E+00 0.22782614E+04</pdfrwt>
<pdfrwt beam="2">  1       -2 0.11599090E+00 0.22782614E+04</pdfrwt>
<totfact> 0.50060447E+00</totfact>
</mgrwt>
</event>
<event>
 6    1  0.5026615E-004  0.1693185E+04  0.7818608E-02  0.8765261E-01
          2   -1    0    0  501    0  0.00000000000E+00  0.00000000000E+00  0.27884971185E+04  0.27884971185E+04  0.00000000000E+00 0.  1.
         -2   -1    0    0    0  501 -0.00000000000E+00 -0.00000000000E+00 -0.25702701561E+03  0.25702701561E+03  0.00000000000E+00 0. -1.
         23    2    1    2    0    0  0.48546536548E+03 -0.30373415806E+03  0.23849755186E+04  0.24544304672E+04  0.90496596752E+02 0.  0.
         11    1    3    3    0    0  0.29375693729E+02 -0.36496628782E+02  0.29184098323E+03  0.29557756137E+03  0.00000000000E+00 0. -1.
        -11    1    3    3    0    0  0.45608967175E+03 -0.26723752928E+03  0.20931345354E+04  0.21588529058E+04  0.00000000000E+00 0.  1.
         22    1    1    2    0    0 -0.48546536548E+03  0.30373415806E+03  0.14649458426E+03  0.59109366692E+03  0.00000000000E+00 0. -1.
<mgrwt>
<rscale>  0 0.16931853E+04</rscale>
<asrwt>0</asrwt>
<pdfrwt beam="1">  1        2 0.42899954E+00 0.16931853E+04</pdfrwt>
<pdfrwt beam="2">  1       -2 0.39542620E-01 0.16931853E+04</pdfrwt>
<totfact> 0.13577388E+01</totfact>
</mgrwt>
</event>
<event>
 6    1  0.5026615E-004  0.1643078E+04  0.7818608E-02  0.8794512E-01
          2   -1    0    0  501    0  0.00000000000E+00  0.00000000000E+00  0.27110290408E+04  0.27110290408E+04  0.00000000000E+00 0.  1.
         -2   -1    0    0    0  501 -0.00000000000E+00 -0.00000000000E+00 -0.24895575923E+03  0.24895575923E+03  0.00000000000E+00 0. -1.
         23    2    1    2    0    0 -0.42918932834E+03  0.68108812067E+03  0.15058377107E+04  0.17099964102E+04  0.91956534602E+02 0.  0.
         11    1    3    3    0    0 -0.10679878794E+03  0.24009270611E+03  0.44584767386E+03  0.51752356171E+03  0.00000000000E+00 0. -1.
        -11    1    3    3    0    0 -0.32239054040E+03  0.44099541456E+03  0.10599900369E+04  0.11924728485E+04  0.00000000000E+00 0.  1.
         22    1    1    2    0    0  0.42918932834E+03 -0.68108812067E+03  0.95623557080E+03  0.12499883898E+04  0.00000000000E+00 0. -1.
<mgrwt>
<rscale>  0 0.16430780E+04</rscale>
<asrwt>0</asrwt>
<pdfrwt beam="1">  1        2 0.41708137E+00 0.16430780E+04</pdfrwt>
<pdfrwt beam="2">  1       -2 0.38300888E-01 0.16430780E+04</pdfrwt>
<totfact> 0.16144354E+01</totfact>
</mgrwt>
</event>
<event>
 6    1  0.5026615E-004  0.8164324E+03  0.7818608E-02  0.9536532E-01
         -2   -1    0    0    0  501 -0.00000000000E+00  0.00000000000E+00  0.19369957874E+03  0.19369957874E+03  0.00000000000E+00 0. -1.
          2   -1    0    0  501    0  0.00000000000E+00 -0.00000000000E+00 -0.86030365726E+03  0.86030365726E+03  0.00000000000E+00 0.  1.
         23    2    1    2    0    0 -0.20159137589E+03  0.45784089395E+02  0.10890928752E+03  0.25140978563E+03  0.92792142589E+02 0.  0.
         13    1    3    3    0    0 -0.10971954561E+03  0.21467207223E+02  0.69325112386E+01  0.11201463916E+03  0.00000000000E+00 0. -1.
        -13    1    3    3    0    0 -0.91871830284E+02  0.24316882172E+02  0.10197677628E+03  0.13939514647E+03  0.00000000000E+00 0.  1.
         22    1    1    2    0    0  0.20159137589E+03 -0.45784089395E+02 -0.77551336603E+03  0.80259345037E+03  0.00000000000E+00 0.  1.
<mgrwt>
<rscale>  0 0.81643238E+03</rscale>
<asrwt>0</asrwt>
<pdfrwt beam="1">  1        2 0.13235441E+00 0.81643238E+03</pdfrwt>
<pdfrwt beam="2">  1       -2 0.29799935E-01 0.81643238E+03</pdfrwt>
<totfact> 0.32539446E+02</totfact>
</mgrwt>
</event>
<event>
 6    1  0.6050779E-004  0.3807756E+04  0.7818608E-02  0.8044492E-01
          2   -1    0    0  501    0  0.00000000000E+00  0.00000000000E+00  0.38270546300E+04  0.38270546300E+04  0.00000000000E+00 0.  1.
         -2   -1    0    0    0  501 -0.00000000000E+00 -0.00000000000E+00 -0.94713877059E+03  0.94713877059E+03  0.00000000000E+00 0. -1.
         23    2    1    2    0    0  0.21223078847E+03 -0.82518668212E+03 -0.69248108003E+03  0.11015928423E+04  0.89452647011E+02 0.  0.
         13    1    3    3    0    0  0.11659660940E+03 -0.54239693464E+03 -0.49626941349E+03  0.74436048713E+03  0.00000000000E+00 0.  1.
        -13    1    3    3    0    0  0.95634179077E+02 -0.28278974748E+03 -0.19621166653E+03  0.35723235516E+03  0.00000000000E+00 0. -1.
         22    1    1    2    0    0 -0.21223078847E+03  0.82518668212E+03  0.35723969394E+04  0.36726005583E+04  0.00000000000E+00 0.  1.
<mgrwt>
<rscale>  0 0.38077562E+04</rscale>
<asrwt>0</asrwt>
<pdfrwt beam="1">  1        2 0.58877763E+00 0.38077562E+04</pdfrwt>
<pdfrwt beam="2">  1       -2 0.14571366E+00 0.38077562E+04</pdfrwt>
<totfact> 0.12104701E-01</totfact>
</mgrwt>
</event>
<event>
 6    1  0.5026615E-004  0.1504556E+04  0.7818608E-02  0.8881429E-01
         -2   -1    0    0    0  501 -0.00000000000E+00  0.00000000000E+00  0.23830754537E+03  0.23830754537E+03  0.00000000000E+00 0. -1.
          2   -1    0    0  501    0  0.00000000000E+00 -0.00000000000E+00 -0.23747553536E+04  0.23747553536E+04  0.00000000000E+00 0.  1.
         23    2    1    2    0    0 -0.18542163967E+03 -0.11608858419E+03 -0.23172030609E+04  0.23292844551E+04  0.90985181998E+02 0.  0.
         13    1    3    3    0    0 -0.17553441284E+03 -0.68664235965E+02 -0.18427485308E+04  0.18523631543E+04  0.00000000000E+00 0. -1.
        -13    1    3    3    0    0 -0.98872268296E+01 -0.47424348226E+02 -0.47445453006E+03  0.47692130079E+03  0.00000000000E+00 0.  1.
         22    1    1    2    0    0  0.18542163967E+03  0.11608858419E+03  0.18075525268E+03  0.28377844388E+03  0.00000000000E+00 0. -1.
<mgrwt>
<rscale>  0 0.15045559E+04</rscale>
<asrwt>0</asrwt>
<pdfrwt beam="1">  1        2 0.36534698E+00 0.15045559E+04</pdfrwt>
<pdfrwt beam="2">  1       -2 0.36662699E-01 0.15045559E+04</pdfrwt>
<totfact> 0.27869260E+01</totfact>
</mgrwt>
</event>
<event>
 6    1  0.5026615E-004  0.3573810E+04  0.7818608E-02  0.8096517E-01
         -2   -1    0    0    0  501 -0.00000000000E+00  0.00000000000E+00  0.27917569565E+04  0.27917569565E+04  0.00000000000E+00 0. -1.
          2   -1    0    0  501    0  0.00000000000E+00 -0.00000000000E+00 -0.11437348534E+04  0.11437348534E+04  0.00000000000E+00 0.  1.
         23    2    1    2    0    0  0.59843467712E+03  0.12950652448E+04  0.20072742383E+04  0.24643085625E+04  0.91371616516E+02 0.  0.
         13    1    3    3    0    0  0.39225567379E+03  0.74179723875E+03  0.11738984671E+04  0.14429709866E+04  0.00000000000E+00 0.  1.
        -13    1    3    3    0    0  0.20617900332E+03  0.55326800606E+03  0.83337577115E+03  0.10213375759E+04  0.00000000000E+00 0. -1.
         22    1    1    2    0    0 -0.59843467712E+03 -0.12950652448E+04 -0.35925213520E+03  0.14711832475E+04  0.00000000000E+00 0.  1.
<mgrwt>
<rscale>  0 0.35738101E+04</rscale>
<asrwt>0</asrwt>
<pdfrwt beam="1">  1        2 0.17595921E+00 0.35738101E+04</pdfrwt>
<pdfrwt beam="2">  1       -2 0.42950107E+00 0.35738101E+04</pdfrwt>
<totfact> 0.79292644E-02</totfact>
</mgrwt>
</event>
<event>
 6    1  0.5026615E-004  0.1617588E+04  0.7818608E-02  0.8809815E-01
          2   -1    0    0  501    0  0.00000000000E+00  0.00000000000E+00  0.18765731722E+04  0.18765731722E+04  0.00000000000E+00 0.  1.
         -2   -1    0    0    0  501 -0.00000000000E+00 -0.00000000000E+00 -0.34858651789E+03  0.34858651789E+03  0.00000000000E+00 0. -1.
         23    2    1    2    0    0 -0.38874068098E+03 -0.65349617743E+03  0.39765931474E+03  0.86287614193E+03  0.90806028186E+02 0.  0.
         13    1    3    3    0    0 -0.15607710756E+03 -0.19789920194E+03  0.16220780294E+03  0.29972575626E+03  0.00000000000E+00 0.  1.
        -13    1    3    3    0    0 -0.23266357342E+03 -0.45559697549E+03  0.23545151180E+03  0.56315038567E+03  0.00000000000E+00 0. -1.
         22    1    1    2    0    0  0.38874068098E+03  0.65349617743E+03  0.11303273395E+04  0.13622835481E+04  0.00000000000E+00 0.  1.
<mgrwt>
<rscale>  0 0.16175885E+04</rscale>
<asrwt>0</asrwt>
<pdfrwt beam="1">  1        2 0.28870356E+00 0.16175885E+04</pdfrwt>
<pdfrwt beam="2">  1       -2 0.53628696E-01 0.16175885E+04</pdfrwt>
<totfact> 0.24549336E+01</totfact>
</mgrwt>
</event>
<event>
 6    1  0.5026615E-004  0.5142261E+04  0.7818608E-02  0.7806929E-01
          2   -1    0    0  501    0  0.00000000000E+00  0.00000000000E+00  0.37684970151E+04  0.37684970151E+04  0.00000000000E+00 0. -1.
         -2   -1    0    0    0  501 -0.00000000000E+00 -0.00000000000E+00 -0.17542035524E+04  0.17542035524E+04  0.00000000000E+00 0.  1.
         23    2    1    2    0    0 -0.18063162282E+04  0.13885140168E+04 -0.27012575821E+03  0.22963526836E+04  0.97561422849E+02 0.  0.
         11    1    3    3    0    0 -0.55511292167E+03  0.41554104790E+03 -0.12662645090E+03  0.70488224291E+03  0.00000000000E+00 0.  1.
        -11    1    3    3    0    0 -0.12512033065E+04  0.97297296895E+03 -0.14349930730E+03  0.15914704407E+04  0.00000000000E+00 0. -1.
         22    1    1    2    0    0  0.18063162282E+04 -0.13885140168E+04  0.22844192209E+04  0.32263478839E+04  0.00000000000E+00 0. -1.
<mgrwt>
<rscale>  0 0.51422605E+04</rscale>
<asrwt>0</asrwt>
<pdfrwt beam="1">  1        2 0.57976877E+00 0.51422605E+04</pdfrwt>
<pdfrwt beam="2">  1       -2 0.26987747E+00 0.51422605E+04</pdfrwt>
<totfact> 0.18074353E-02</totfact>
</mgrwt>
</event>
<event>
 6    1  0.5026615E-004  0.1317578E+04  0.7818608E-02  0.9015740E-01
         -2   -1    0    0    0  501 -0.00000000000E+00  0.00000000000E+00  0.19136890671E+03  0.19136890671E+03  0.00000000000E+00 0. -1.
          2   -1    0    0  501    0  0.00000000000E+00 -0.00000000000E+00 -0.22678875078E+04  0.22678875078E+04  0.00000000000E+00 0.  1.
         23    2    1    2    0    0  0.15078019020E+03 -0.47004761298E+03 -0.18487461841E+04  0.19156023902E+04  0.89390378867E+02 0.  0.
         11    1    3    3    0    0  0.10599702653E+03 -0.22376320564E+03 -0.10362084680E+04  0.10653794305E+04  0.00000000000E+00 0. -1.
        -11    1    3    3    0    0  0.44783163671E+02 -0.24628440735E+03 -0.81253771608E+03  0.85022295965E+03  0.00000000000E+00 0.  1.
         22    1    1    2    0    0 -0.15078019020E+03  0.47004761298E+03 -0.22777241699E+03  0.54365402433E+03  0.00000000000E+00 0. -1.
<mgrwt>
<rscale>  0 0.13175783E+04</rscale>
<asrwt>0</asrwt>
<pdfrwt beam="1">  1        2 0.34890578E+00 0.13175783E+04</pdfrwt>
<pdfrwt beam="2">  1       -2 0.29441370E-01 0.13175783E+04</pdfrwt>
<totfact> 0.49277845E+01</totfact>
</mgrwt>
</event>
<event>
 6    1  0.5026615E-004  0.1649078E+04  0.7818608E-02  0.8790952E-01
          2   -1    0    0  501    0  0.00000000000E+00  0.00000000000E+00  0.57437597349E+03  0.57437597349E+03  0.00000000000E+00 0.  1.
         -2   -1    0    0    0  501 -0.00000000000E+00 -0.00000000000E+00 -0.11836572962E+04  0.11836572962E+04  0.00000000000E+00 0. -1.
         23    2    1    2    0    0 -0.21797938632E+03 -0.27807030201E+03 -0.10967710424E+04  0.11559665521E+04  0.92270495081E+02 0.  0.
         13    1    3    3    0    0 -0.15347853397E+03 -0.25254238439E+03 -0.86987903344E+03  0.91870716179E+03  0.00000000000E+00 0.  1.
        -13    1    3    3    0    0 -0.64500852344E+02 -0.25527917624E+02 -0.22689200900E+03  0.23725939029E+03  0.00000000000E+00 0. -1.
         22    1    1    2    0    0  0.21797938632E+03  0.27807030201E+03  0.48748971968E+03  0.60206671766E+03  0.00000000000E+00 0.  1.
<mgrwt>
<rscale>  0 0.16490777E+04</rscale>
<asrwt>0</asrwt>
<pdfrwt beam="1">  1        2 0.88365535E-01 0.16490777E+04</pdfrwt>
<pdfrwt beam="2">  1       -2 0.18210112E+00 0.16490777E+04</pdfrwt>
<totfact> 0.87501178E+00</totfact>
</mgrwt>
</event>
<event>
 6    1  0.5026615E-004  0.1894611E+04  0.7818608E-02  0.8657544E-01
         -2   -1    0    0    0  501 -0.00000000000E+00  0.00000000000E+00  0.50881376019E+03  0.50881376019E+03  0.00000000000E+00 0.  1.
          2   -1    0    0  501    0  0.00000000000E+00 -0.00000000000E+00 -0.17636855450E+04  0.17636855450E+04  0.00000000000E+00 0. -1.
         23    2    1    2    0    0 -0.85210015173E+03 -0.34987412444E+03 -0.88190344544E+03  0.12787226936E+04  0.94294583791E+02 0.  0.
         13    1    3    3    0    0 -0.58670293218E+03 -0.28507088265E+03 -0.63978147783E+03  0.91367722864E+03  0.00000000000E+00 0.  1.
        -13    1    3    3    0    0 -0.26539721955E+03 -0.64803241784E+02 -0.24212196761E+03  0.36504546496E+03  0.00000000000E+00 0. -1.
         22    1    1    2    0    0  0.85210015173E+03  0.34987412444E+03 -0.37296833936E+03  0.99377661157E+03  0.00000000000E+00 0.  1.
<mgrwt>
<rscale>  0 0.18946108E+04</rscale>
<asrwt>0</asrwt>
<pdfrwt beam="1">  1        2 0.27133624E+00 0.18946108E+04</pdfrwt>
<pdfrwt beam="2">  1       -2 0.78279039E-01 0.18946108E+04</pdfrwt>
<totfact> 0.12291873E+01</totfact>
</mgrwt>
</event>
<event>
 6    1  0.5026615E-004  0.1784452E+04  0.7818608E-02  0.8714612E-01
         -2   -1    0    0    0  501 -0.00000000000E+00  0.00000000000E+00  0.28356513891E+03  0.28356513891E+03  0.00000000000E+00 0. -1.
          2   -1    0    0  501    0  0.00000000000E+00 -0.00000000000E+00 -0.28073526214E+04  0.28073526214E+04  0.00000000000E+00 0.  1.
         23    2    1    2    0    0  0.27939852290E+03  0.22624295036E+03 -0.26753278239E+04  0.27007717847E+04  0.86832370403E+02 0.  0.
         13    1    3    3    0    0  0.16450086238E+03  0.77349203100E+02 -0.13170957244E+04  0.13295806031E+04  0.00000000000E+00 0. -1.
        -13    1    3    3    0    0  0.11489766051E+03  0.14889374726E+03 -0.13582320995E+04  0.13711911816E+04  0.00000000000E+00 0.  1.
         22    1    1    2    0    0 -0.27939852290E+03 -0.22624295036E+03  0.15154034143E+03  0.39014597558E+03  0.00000000000E+00 0. -1.
<mgrwt>
<rscale>  0 0.17844521E+04</rscale>
<asrwt>0</asrwt>
<pdfrwt beam="1">  1        2 0.43190039E+00 0.17844521E+04</pdfrwt>
<pdfrwt beam="2">  1       -2 0.43625407E-01 0.17844521E+04</pdfrwt>
<totfact> 0.10809254E+01</totfact>
</mgrwt>
</event>
<event>
 6    1  0.5026615E-004  0.1401675E+04  0.7818608E-02  0.8952607E-01
         -2   -1    0    0    0  501 -0.00000000000E+00  0.00000000000E+00  0.23154884022E+03  0.23154884022E+03  0.00000000000E+00 0. -1.
          2   -1    0    0  501    0  0.00000000000E+00 -0.00000000000E+00 -0.21212500119E+04  0.21212500119E+04  0.00000000000E+00 0.  1.
         23    2    1    2    0    0 -0.69626668776E+03  0.12953656694E+01 -0.86999021960E+03  0.11180521557E+04  0.91480392984E+02 0.  0.
         13    1    3    3    0    0 -0.15840451644E+02 -0.10096386391E+02 -0.96931050188E+01  0.21137956650E+02  0.00000000000E+00 0.  1.
        -13    1    3    3    0    0 -0.68042623612E+03  0.11391752060E+02 -0.86029711458E+03  0.10969141991E+04  0.00000000000E+00 0. -1.
         22    1    1    2    0    0  0.69626668776E+03 -0.12953656694E+01 -0.10197109521E+04  0.12347466964E+04  0.00000000000E+00 0.  1.
<mgrwt>
<rscale>  0 0.14016747E+04</rscale>
<asrwt>0</asrwt>
<pdfrwt beam="1">  1        2 0.32634616E+00 0.14016747E+04</pdfrwt>
<pdfrwt beam="2">  1       -2 0.35622898E-01 0.14016747E+04</pdfrwt>
<totfact> 0.41251828E+01</totfact>
</mgrwt>
</event>
<event>
 6    1  0.5026615E-004  0.8687775E+03  0.7818608E-02  0.9465475E-01
         -2   -1    0    0    0  501 -0.00000000000E+00  0.00000000000E+00  0.12456586283E+03  0.12456586283E+03  0.00000000000E+00 0. -1.
          2   -1    0    0  501    0  0.00000000000E+00 -0.00000000000E+00 -0.15148099254E+04  0.15148099254E+04  0.00000000000E+00 0.  1.
         23    2    1    2    0    0 -0.21906276128E+03  0.31062232954E+03 -0.32506103348E+03  0.50840734903E+03  0.91316110737E+02 0.  0.
         11    1    3    3    0    0 -0.17222131340E+03  0.17488784165E+03 -0.18067985494E+03  0.30478049138E+03  0.00000000000E+00 0. -1.
        -11    1    3    3    0    0 -0.46841447881E+02  0.13573448789E+03 -0.14438117854E+03  0.20362685765E+03  0.00000000000E+00 0.  1.
         22    1    1    2    0    0  0.21906276128E+03 -0.31062232954E+03 -0.10651830291E+04  0.11309684392E+04  0.00000000000E+00 0.  1.
<mgrwt>
<rscale>  0 0.86877754E+03</rscale>
<asrwt>0</asrwt>
<pdfrwt beam="1">  1        2 0.23304767E+00 0.86877754E+03</pdfrwt>
<pdfrwt beam="2">  1       -2 0.19163980E-01 0.86877754E+03</pdfrwt>
<totfact> 0.28808948E+02</totfact>
</mgrwt>
</event>
<event>
 6    1  0.5026615E-004  0.1216224E+04  0.7818608E-02  0.9098773E-01
          2   -1    0    0  501    0  0.00000000000E+00  0.00000000000E+00  0.19123436030E+04  0.19123436030E+04  0.00000000000E+00 0.  1.
         -2   -1    0    0    0  501 -0.00000000000E+00 -0.00000000000E+00 -0.19337540451E+03  0.19337540451E+03  0.00000000000E+00 0. -1.
         23    2    1    2    0    0 -0.28841846727E+02 -0.59678053495E+03  0.10279879317E+04  0.11922461901E+04  0.87823294675E+02 0.  0.
         11    1    3    3    0    0  0.53816057371E+00 -0.48057355004E+03  0.76814147370E+03  0.90608639226E+03  0.00000000000E+00 0. -1.
        -11    1    3    3    0    0 -0.29380007301E+02 -0.11620698491E+03  0.25984645800E+03  0.28615979785E+03  0.00000000000E+00 0.  1.
         22    1    1    2    0    0  0.28841846727E+02  0.59678053495E+03  0.69098026674E+03  0.91347281736E+03  0.00000000000E+00 0. -1.
<mgrwt>
<rscale>  0 0.12162240E+04</rscale>
<asrwt>0</asrwt>
<pdfrwt beam="1">  1        2 0.29420669E+00 0.12162240E+04</pdfrwt>
<pdfrwt beam="2">  1       -2 0.29750064E-01 0.12162240E+04</pdfrwt>
<totfact> 0.76797735E+01</totfact>
</mgrwt>
</event>
<event>
 6    1  0.5026615E-004  0.2747753E+04  0.7818608E-02  0.8319675E-01
         -2   -1    0    0    0  501 -0.00000000000E+00  0.00000000000E+00  0.88570593905E+03  0.88570593905E+03  0.00000000000E+00 0. -1.
          2   -1    0    0  501    0  0.00000000000E+00 -0.00000000000E+00 -0.21311093461E+04  0.21311093461E+04  0.00000000000E+00 0.  1.
         23    2    1    2    0    0 -0.12437867356E+04  0.57447222931E+03 -0.71108672030E+03  0.15462650113E+04  0.90925109196E+02 0.  0.
         11    1    3    3    0    0 -0.96582710445E+03  0.40648134134E+03 -0.52686648997E+03  0.11728756860E+04  0.00000000000E+00 0.  1.
        -11    1    3    3    0    0 -0.27795963119E+03  0.16799088797E+03 -0.18422023033E+03  0.37338932533E+03  0.00000000000E+00 0. -1.
         22    1    1    2    0    0  0.12437867356E+04 -0.57447222931E+03 -0.53431668670E+03  0.14705502738E+04  0.00000000000E+00 0.  1.
<mgrwt>
<rscale>  0 0.27477527E+04</rscale>
<asrwt>0</asrwt>
<pdfrwt beam="1">  1        2 0.32786298E+00 0.27477527E+04</pdfrwt>
<pdfrwt beam="2">  1       -2 0.13626245E+00 0.27477527E+04</pdfrwt>
<totfact> 0.19002718E+00</totfact>
</mgrwt>
</event>
<event>
 6    1  0.5026615E-004  0.1396397E+04  0.7818608E-02  0.8956431E-01
          2   -1    0    0  501    0  0.00000000000E+00  0.00000000000E+00  0.36435141610E+04  0.36435141610E+04  0.00000000000E+00 0.  1.
         -2   -1    0    0    0  501 -0.00000000000E+00 -0.00000000000E+00 -0.13379416356E+03  0.13379416356E+03  0.00000000000E+00 0. -1.
         23    2    1    2    0    0 -0.51462346492E+03  0.42257620382E+03  0.23025073892E+04  0.23986240822E+04  0.91919810957E+02 0.  0.
         11    1    3    3    0    0 -0.14924170277E+03  0.17319386686E+03  0.85385237210E+03  0.88393046938E+03  0.00000000000E+00 0. -1.
        -11    1    3    3    0    0 -0.36538176215E+03  0.24938233696E+03  0.14486550171E+04  0.15146936128E+04  0.00000000000E+00 0.  1.
         22    1    1    2    0    0  0.51462346492E+03 -0.42257620382E+03  0.12072126083E+04  0.13786842424E+04  0.00000000000E+00 0. -1.
<mgrwt>
<rscale>  0 0.13963967E+04</rscale>
<asrwt>0</asrwt>
<pdfrwt beam="1">  1        2 0.56054057E+00 0.13963967E+04</pdfrwt>
<pdfrwt beam="2">  1       -2 0.20583720E-01 0.13963967E+04</pdfrwt>
<totfact> 0.12961067E+01</totfact>
</mgrwt>
</event>
<event>
 6    1  0.5026615E-004  0.4245595E+04  0.7818608E-02  0.7956755E-01
          2   -1    0    0  501    0  0.00000000000E+00  0.00000000000E+00  0.11533895154E+04  0.11533895154E+04  0.00000000000E+00 0.  1.
         -2   -1    0    0    0  501 -0.00000000000E+00 -0.00000000000E+00 -0.39069801294E+04  0.39069801294E+04  0.00000000000E+00 0. -1.
         23    2    1    2    0    0 -0.16458606107E+04 -0.11359494095E+04 -0.53221605414E+03  0.20714328529E+04  0.91334139505E+02 0.  0.
         11    1    3    3    0    0 -0.15407359436E+04 -0.10570199695E+04 -0.47392680253E+03  0.19276319872E+04  0.00000000000E+00 0.  1.
        -11    1    3    3    0    0 -0.10512466700E+03 -0.78929440014E+02 -0.58289251609E+02  0.14380086567E+03  0.00000000000E+00 0. -1.
         22    1    1    2    0    0  0.16458606107E+04  0.11359494095E+04 -0.22213745599E+04  0.29889367919E+04  0.00000000000E+00 0.  1.
<mgrwt>
<rscale>  0 0.42455953E+04</rscale>
<asrwt>0</asrwt>
<pdfrwt beam="1">  1        2 0.17744454E+00 0.42455953E+04</pdfrwt>
<pdfrwt beam="2">  1       -2 0.60107386E+00 0.42455953E+04</pdfrwt>
<totfact> 0.78696561E-03</totfact>
</mgrwt>
</event>
<event>
 6    1  0.5518423E-004  0.2860599E+04  0.7818608E-02  0.8284698E-01
         -2   -1    0    0    0  501 -0.00000000000E+00  0.00000000000E+00  0.15476922849E+04  0.15476922849E+04  0.00000000000E+00 0. -1.
          2   -1    0    0  501    0  0.00000000000E+00 -0.00000000000E+00 -0.13218111992E+04  0.13218111992E+04  0.00000000000E+00 0.  1.
         23    2    1    2    0    0 -0.89390925884E+03 -0.19297724355E+03 -0.98627510746E+03  0.13510711951E+04  0.12783116673E+03 0.  0.
         13    1    3    3    0    0 -0.58225445315E+03 -0.18746041221E+03 -0.65204515297E+03  0.89404951534E+03  0.00000000000E+00 0.  1.
        -13    1    3    3    0    0 -0.31165480569E+03 -0.55168313403E+01 -0.33422995449E+03  0.45702167981E+03  0.00000000000E+00 0. -1.
         22    1    1    2    0    0  0.89390925884E+03  0.19297724355E+03  0.12121561932E+04  0.15184322890E+04  0.00000000000E+00 0. -1.
<mgrwt>
<rscale>  0 0.28605992E+04</rscale>
<asrwt>0</asrwt>
<pdfrwt beam="1">  1        2 0.20335557E+00 0.28605992E+04</pdfrwt>
<pdfrwt beam="2">  1       -2 0.23810650E+00 0.28605992E+04</pdfrwt>
<totfact> 0.10579648E+00</totfact>
</mgrwt>
</event>
<event>
 6    1  0.5026615E-004  0.2798607E+04  0.7818608E-02  0.8303701E-01
         -2   -1    0    0    0  501 -0.00000000000E+00  0.00000000000E+00  0.48246979978E+03  0.48246979978E+03  0.00000000000E+00 0. -1.
          2   -1    0    0  501    0  0.00000000000E+00 -0.00000000000E+00 -0.40583891492E+04  0.40583891492E+04  0.00000000000E+00 0.  1.
         23    2    1    2    0    0 -0.13080787443E+04 -0.31405930459E+03 -0.11734182174E+04  0.17873675403E+04  0.89828521133E+02 0.  0.
         13    1    3    3    0    0 -0.29093273905E+03 -0.99738412830E+02 -0.23665432364E+03  0.38806555959E+03  0.00000000000E+00 0. -1.
        -13    1    3    3    0    0 -0.10171460053E+04 -0.21432089176E+03 -0.93676389374E+03  0.13993019807E+04  0.00000000000E+00 0.  1.
         22    1    1    2    0    0  0.13080787443E+04  0.31405930459E+03 -0.24025011321E+04  0.27534914087E+04  0.00000000000E+00 0.  1.
<mgrwt>
<rscale>  0 0.27986069E+04</rscale>
<asrwt>0</asrwt>
<pdfrwt beam="1">  1        2 0.62436756E+00 0.27986069E+04</pdfrwt>
<pdfrwt beam="2">  1       -2 0.74226123E-01 0.27986069E+04</pdfrwt>
<totfact> 0.43616958E-01</totfact>
</mgrwt>
</event>
<event>
 6    1  0.5026615E-004  0.3813739E+04  0.7818608E-02  0.8043213E-01
         -2   -1    0    0    0  501 -0.00000000000E+00  0.00000000000E+00  0.13230912899E+04  0.13230912899E+04  0.00000000000E+00 0.  1.
          2   -1    0    0  501    0  0.00000000000E+00 -0.00000000000E+00 -0.27482233960E+04  0.27482233960E+04  0.00000000000E+00 0. -1.
         23    2    1    2    0    0 -0.32991948855E+03 -0.91698550124E+03  0.10354166154E+04  0.14248057988E+04  0.90965478948E+02 0.  0.
         13    1    3    3    0    0 -0.26224641454E+03 -0.65476723891E+03  0.79364393729E+03  0.10617739959E+04  0.00000000000E+00 0. -1.
        -13    1    3    3    0    0 -0.67673074005E+02 -0.26221826233E+03  0.24177267812E+03  0.36303180292E+03  0.00000000000E+00 0.  1.
         22    1    1    2    0    0  0.32991948855E+03  0.91698550124E+03 -0.24605487215E+04  0.26465088871E+04  0.00000000000E+00 0. -1.
<mgrwt>
<rscale>  0 0.38137386E+04</rscale>
<asrwt>0</asrwt>
<pdfrwt beam="1">  1        2 0.42280360E+00 0.38137386E+04</pdfrwt>
<pdfrwt beam="2">  1       -2 0.20355251E+00 0.38137386E+04</pdfrwt>
<totfact> 0.25081823E-01</totfact>
</mgrwt>
</event>
<event>
 6    1  0.5026615E-004  0.4149158E+04  0.7818608E-02  0.7975114E-01
         -2   -1    0    0    0  501 -0.00000000000E+00  0.00000000000E+00  0.11708908148E+04  0.11708908148E+04  0.00000000000E+00 0. -1.
          2   -1    0    0  501    0  0.00000000000E+00 -0.00000000000E+00 -0.36757301120E+04  0.36757301120E+04  0.00000000000E+00 0.  1.
         23    2    1    2    0    0 -0.54720275234E+03  0.19979386140E+04 -0.13606064066E+04  0.24800921471E+04  0.91748060835E+02 0.  0.
         11    1    3    3    0    0 -0.44882400390E+03  0.14997362140E+04 -0.10444926797E+04  0.18819183447E+04  0.00000000000E+00 0. -1.
        -11    1    3    3    0    0 -0.98378748442E+02  0.49820240000E+03 -0.31611372685E+03  0.59817380235E+03  0.00000000000E+00 0.  1.
         22    1    1    2    0    0  0.54720275234E+03 -0.19979386140E+04 -0.11442328906E+04  0.23665287798E+04  0.00000000000E+00 0. -1.
<mgrwt>
<rscale>  0 0.41491583E+04</rscale>
<asrwt>0</asrwt>
<pdfrwt beam="1">  1        2 0.56549694E+00 0.41491583E+04</pdfrwt>
<pdfrwt beam="2">  1       -2 0.18013705E+00 0.41491583E+04</pdfrwt>
<totfact> 0.85567838E-02</totfact>
</mgrwt>
</event>
<event>
 6    1  0.5026615E-004  0.2886368E+04  0.7818608E-02  0.8276945E-01
          2   -1    0    0  501    0  0.00000000000E+00  0.00000000000E+00  0.11585577715E+04  0.11585577715E+04  0.00000000000E+00 0.  1.
         -2   -1    0    0    0  501 -0.00000000000E+00 -0.00000000000E+00 -0.17977354209E+04  0.17977354209E+04  0.00000000000E+00 0. -1.
         23    2    1    2    0    0 -0.26446311942E+03 -0.11087677437E+04  0.58425173384E+03  0.12841430476E+04  0.91469268262E+02 0.  0.
         13    1    3    3    0    0 -0.89359926020E+02 -0.54950056516E+03  0.26096701092E+03  0.61484945172E+03  0.00000000000E+00 0. -1.
        -13    1    3    3    0    0 -0.17510319340E+03 -0.55926717859E+03  0.32328472292E+03  0.66929359586E+03  0.00000000000E+00 0.  1.
         22    1    1    2    0    0  0.26446311942E+03  0.11087677437E+04 -0.12234293832E+04  0.16721501448E+04  0.00000000000E+00 0. -1.
<mgrwt>
<rscale>  0 0.28863682E+04</rscale>
<asrwt>0</asrwt>
<pdfrwt beam="1">  1        2 0.17823966E+00 0.28863682E+04</pdfrwt>
<pdfrwt beam="2">  1       -2 0.27657468E+00 0.28863682E+04</pdfrwt>
<totfact> 0.76591028E-01</totfact>
</mgrwt>
</event>
<event>
 6    1  0.5026615E-004  0.2401146E+04  0.7818608E-02  0.8439075E-01
          4   -1    0    0  501    0  0.00000000000E+00  0.00000000000E+00  0.22451570589E+04  0.22451570589E+04  0.00000000000E+00 0.  1.
         -4   -1    0    0    0  501 -0.00000000000E+00 -0.00000000000E+00 -0.64199306719E+03  0.64199306719E+03  0.00000000000E+00 0. -1.
         23    2    1    2    0    0  0.11599764001E+04  0.27714842375E+03  0.94925772605E+03  0.15270214918E+04  0.91366887459E+02 0.  0.
         13    1    3    3    0    0  0.10712892462E+03  0.88078759229E+01  0.11297176934E+03  0.15593846811E+03  0.00000000000E+00 0. -1.
        -13    1    3    3    0    0  0.10528474755E+04  0.26834054783E+03  0.83628595671E+03  0.13710830236E+04  0.00000000000E+00 0.  1.
         22    1    1    2    0    0 -0.11599764001E+04 -0.27714842375E+03  0.65390626567E+03  0.13601286343E+04  0.00000000000E+00 0. -1.
<mgrwt>
<rscale>  0 0.24011458E+04</rscale>
<asrwt>0</asrwt>
<pdfrwt beam="1">  1        4 0.34540877E+00 0.24011458E+04</pdfrwt>
<pdfrwt beam="2">  1       -4 0.98768166E-01 0.24011458E+04</pdfrwt>
<totfact> 0.24267893E-02</totfact>
</mgrwt>
</event>
<event>
 6    1  0.5026615E-004  0.1042991E+04  0.7818608E-02  0.9262611E-01
          2   -1    0    0  501    0  0.00000000000E+00  0.00000000000E+00  0.13340621884E+04  0.13340621884E+04  0.00000000000E+00 0.  1.
         -2   -1    0    0    0  501 -0.00000000000E+00 -0.00000000000E+00 -0.20385664005E+03  0.20385664005E+03  0.00000000000E+00 0. -1.
         23    2    1    2    0    0  0.21453942806E+03 -0.11442669675E+03 -0.10416503476E+03  0.27982846143E+03  0.91285147943E+02 0.  0.
         11    1    3    3    0    0  0.14183323336E+03 -0.43915074199E+02 -0.98919793092E+02  0.17841055264E+03  0.00000000000E+00 0. -1.
        -11    1    3    3    0    0  0.72706194699E+02 -0.70511622550E+02 -0.52452416701E+01  0.10141790879E+03  0.00000000000E+00 0.  1.
         22    1    1    2    0    0 -0.21453942806E+03  0.11442669675E+03  0.12343705831E+04  0.12580903670E+04  0.00000000000E+00 0.  1.
<mgrwt>
<rscale>  0 0.10429908E+04</rscale>
<asrwt>0</asrwt>
<pdfrwt beam="1">  1        2 0.20524033E+00 0.10429908E+04</pdfrwt>
<pdfrwt beam="2">  1       -2 0.31362561E-01 0.10429908E+04</pdfrwt>
<totfact> 0.14825946E+02</totfact>
</mgrwt>
</event>
<event>
 6    1  0.5026615E-004  0.1427368E+04  0.7818608E-02  0.8934243E-01
         -4   -1    0    0    0  501 -0.00000000000E+00  0.00000000000E+00  0.60001923841E+03  0.60001923841E+03  0.00000000000E+00 0. -1.
          4   -1    0    0  501    0  0.00000000000E+00 -0.00000000000E+00 -0.84888108495E+03  0.84888108495E+03  0.00000000000E+00 0.  1.
         23    2    1    2    0    0 -0.21457046224E+03 -0.67041406888E+03 -0.25247355068E+02  0.71032131756E+03  0.91779290853E+02 0.  0.
         13    1    3    3    0    0 -0.13057681071E+03 -0.48249000965E+03 -0.52871264389E+02  0.50263533850E+03  0.00000000000E+00 0. -1.
        -13    1    3    3    0    0 -0.83993651530E+02 -0.18792405922E+03  0.27623909320E+02  0.20768597906E+03  0.00000000000E+00 0.  1.
         22    1    1    2    0    0  0.21457046224E+03  0.67041406888E+03 -0.22361449147E+03  0.73857900580E+03  0.00000000000E+00 0.  1.
<mgrwt>
<rscale>  0 0.14273682E+04</rscale>
<asrwt>0</asrwt>
<pdfrwt beam="1">  1        4 0.13059709E+00 0.14273682E+04</pdfrwt>
<pdfrwt beam="2">  1       -4 0.92310652E-01 0.14273682E+04</pdfrwt>
<totfact> 0.82790290E-01</totfact>
</mgrwt>
</event>
<event>
 6    1  0.5026615E-004  0.1267134E+04  0.7818608E-02  0.9056042E-01
          2   -1    0    0  501    0  0.00000000000E+00  0.00000000000E+00  0.75195283087E+03  0.75195283087E+03  0.00000000000E+00 0. -1.
         -2   -1    0    0    0  501 -0.00000000000E+00 -0.00000000000E+00 -0.53381926224E+03  0.53381926224E+03  0.00000000000E+00 0.  1.
         23    2    1    2    0    0 -0.46262945543E+03 -0.18943965803E+03  0.50002017466E+03  0.71186142434E+03  0.82541597617E+02 0.  0.
         13    1    3    3    0    0 -0.22145049052E+03 -0.12105923648E+03  0.20839041305E+03  0.32729531427E+03  0.00000000000E+00 0.  1.
        -13    1    3    3    0    0 -0.24117896491E+03 -0.68380421557E+02  0.29162976160E+03  0.38456611007E+03  0.00000000000E+00 0. -1.
         22    1    1    2    0    0  0.46262945543E+03  0.18943965803E+03 -0.28188660603E+03  0.57391066877E+03  0.00000000000E+00 0.  1.
<mgrwt>
<rscale>  0 0.12671336E+04</rscale>
<asrwt>0</asrwt>
<pdfrwt beam="1">  1        2 0.11568505E+00 0.12671336E+04</pdfrwt>
<pdfrwt beam="2">  1       -2 0.82126040E-01 0.12671336E+04</pdfrwt>
<totfact> 0.47853712E+01</totfact>
</mgrwt>
</event>
<event>
 6    1  0.5026615E-004  0.4621693E+03  0.7818608E-02  0.1024154E+00
         -2   -1    0    0    0  501 -0.00000000000E+00  0.00000000000E+00  0.25819707721E+03  0.25819707721E+03  0.00000000000E+00 0. -1.
          2   -1    0    0  501    0  0.00000000000E+00 -0.00000000000E+00 -0.20681922137E+03  0.20681922137E+03  0.00000000000E+00 0.  1.
         23    2    1    2    0    0  0.14211166826E+03 -0.63564420273E+02 -0.13251193861E+03  0.22407726420E+03  0.91733552628E+02 0.  0.
         11    1    3    3    0    0  0.11485289170E+03 -0.65195211376E+02 -0.57115727177E+02  0.14388818092E+03  0.00000000000E+00 0. -1.
        -11    1    3    3    0    0  0.27258776564E+02  0.16307911032E+01 -0.75396211430E+02  0.80189083281E+02  0.00000000000E+00 0.  1.
         22    1    1    2    0    0 -0.14211166826E+03  0.63564420273E+02  0.18388979446E+03  0.24093903438E+03  0.00000000000E+00 0. -1.
<mgrwt>
<rscale>  0 0.46216931E+03</rscale>
<asrwt>0</asrwt>
<pdfrwt beam="1">  1        2 0.31818342E-01 0.46216931E+03</pdfrwt>
<pdfrwt beam="2">  1       -2 0.39722627E-01 0.46216931E+03</pdfrwt>
<totfact> 0.99912698E+02</totfact>
</mgrwt>
</event>
<event>
 6    1  0.5026615E-004  0.1535307E+04  0.7818608E-02  0.8861308E-01
          2   -1    0    0  501    0  0.00000000000E+00  0.00000000000E+00  0.86360834352E+03  0.86360834352E+03  0.00000000000E+00 0.  1.
         -2   -1    0    0    0  501 -0.00000000000E+00 -0.00000000000E+00 -0.68236019087E+03  0.68236019087E+03  0.00000000000E+00 0. -1.
         23    2    1    2    0    0 -0.55804534310E+03 -0.19235177841E+03 -0.39981967539E+03  0.71768498851E+03  0.82475198041E+02 0.  0.
         13    1    3    3    0    0 -0.28005914926E+03 -0.12190646501E+03 -0.16577091296E+03  0.34752598302E+03  0.00000000000E+00 0.  1.
        -13    1    3    3    0    0 -0.27798619384E+03 -0.70445313397E+02 -0.23404876243E+03  0.37015900548E+03  0.00000000000E+00 0. -1.
         22    1    1    2    0    0  0.55804534310E+03  0.19235177841E+03  0.58106782803E+03  0.82828354588E+03  0.00000000000E+00 0.  1.
<mgrwt>
<rscale>  0 0.15353071E+04</rscale>
<asrwt>0</asrwt>
<pdfrwt beam="1">  1        2 0.13286282E+00 0.15353071E+04</pdfrwt>
<pdfrwt beam="2">  1       -2 0.10497849E+00 0.15353071E+04</pdfrwt>
<totfact> 0.22011803E+01</totfact>
</mgrwt>
</event>
<event>
 6    1  0.5026615E-004  0.2434474E+04  0.7818608E-02  0.8426709E-01
         -2   -1    0    0    0  501 -0.00000000000E+00  0.00000000000E+00  0.66480458614E+03  0.66480458614E+03  0.00000000000E+00 0. -1.
          2   -1    0    0  501    0  0.00000000000E+00 -0.00000000000E+00 -0.22287243019E+04  0.22287243019E+04  0.00000000000E+00 0.  1.
         23    2    1    2    0    0 -0.54030519693E+03 -0.53063038135E+03 -0.19130912665E+04  0.20596109789E+04  0.92633054854E+02 0.  0.
         13    1    3    3    0    0 -0.13657134864E+03 -0.12706080465E+03 -0.58536541412E+03  0.61436865920E+03  0.00000000000E+00 0. -1.
        -13    1    3    3    0    0 -0.40373384829E+03 -0.40356957670E+03 -0.13277258524E+04  0.14452423197E+04  0.00000000000E+00 0.  1.
         22    1    1    2    0    0  0.54030519693E+03  0.53063038135E+03  0.34917155072E+03  0.83391790920E+03  0.00000000000E+00 0. -1.
<mgrwt>
<rscale>  0 0.24344742E+04</rscale>
<asrwt>0</asrwt>
<pdfrwt beam="1">  1        2 0.34288067E+00 0.24344742E+04</pdfrwt>
<pdfrwt beam="2">  1       -2 0.10227763E+00 0.24344742E+04</pdfrwt>
<totfact> 0.34917438E+00</totfact>
</mgrwt>
</event>
<event>
 6    1  0.5026615E-004  0.2226330E+04  0.7818608E-02  0.8507548E-01
          2   -1    0    0  501    0  0.00000000000E+00  0.00000000000E+00  0.12381265178E+04  0.12381265178E+04  0.00000000000E+00 0.  1.
         -2   -1    0    0    0  501 -0.00000000000E+00 -0.00000000000E+00 -0.10008160270E+04  0.10008160270E+04  0.00000000000E+00 0. -1.
         23    2    1    2    0    0 -0.21167186218E+01 -0.42962660629E+03 -0.91188112882E+03  0.10120664793E+04  0.90376236816E+02 0.  0.
         11    1    3    3    0    0 -0.80150340696E+00 -0.29472178846E+03 -0.52134243834E+03  0.59888188570E+03  0.00000000000E+00 0.  1.
        -11    1    3    3    0    0 -0.13152152148E+01 -0.13490481783E+03 -0.39053869048E+03  0.41318459365E+03  0.00000000000E+00 0. -1.
         22    1    1    2    0    0  0.21167186218E+01  0.42962660629E+03  0.11491916197E+04  0.12268760655E+04  0.00000000000E+00 0.  1.
<mgrwt>
<rscale>  0 0.22263305E+04</rscale>
<asrwt>0</asrwt>
<pdfrwt beam="1">  1        2 0.19048100E+00 0.22263305E+04</pdfrwt>
<pdfrwt beam="2">  1       -2 0.15397170E+00 0.22263305E+04</pdfrwt>
<totfact> 0.45823685E+00</totfact>
</mgrwt>
</event>
<event>
 6    1  0.5026615E-004  0.2072683E+04  0.7818608E-02  0.8573373E-01
          2   -1    0    0  501    0  0.00000000000E+00  0.00000000000E+00  0.20653373315E+04  0.20653373315E+04  0.00000000000E+00 0.  1.
         -2   -1    0    0    0  501 -0.00000000000E+00 -0.00000000000E+00 -0.52001367439E+03  0.52001367439E+03  0.00000000000E+00 0. -1.
         23    2    1    2    0    0 -0.41953135513E+03  0.45383854877E+03 -0.26049054201E+03  0.67670203134E+03  0.89968496992E+02 0.  0.
         13    1    3    3    0    0 -0.32755516029E+03  0.29613098336E+03 -0.17299520007E+03  0.47425023098E+03  0.00000000000E+00 0.  1.
        -13    1    3    3    0    0 -0.91976194833E+02  0.15770756542E+03 -0.87495341942E+02  0.20245180036E+03  0.00000000000E+00 0. -1.
         22    1    1    2    0    0  0.41953135513E+03 -0.45383854877E+03  0.18058141991E+04  0.19086489746E+04  0.00000000000E+00 0.  1.
<mgrwt>
<rscale>  0 0.20726830E+04</rscale>
<asrwt>0</asrwt>
<pdfrwt beam="1">  1        2 0.31774420E+00 0.20726830E+04</pdfrwt>
<pdfrwt beam="2">  1       -2 0.80002105E-01 0.20726830E+04</pdfrwt>
<totfact> 0.78426034E+00</totfact>
</mgrwt>
</event>
<event>
 6    1  0.5026615E-004  0.2805540E+04  0.7818608E-02  0.8301550E-01
         -2   -1    0    0    0  501 -0.00000000000E+00  0.00000000000E+00  0.75382583410E+03  0.75382583410E+03  0.00000000000E+00 0. -1.
          2   -1    0    0  501    0  0.00000000000E+00 -0.00000000000E+00 -0.26103698822E+04  0.26103698822E+04  0.00000000000E+00 0.  1.
         23    2    1    2    0    0 -0.12296096204E+04 -0.67215662540E+03 -0.92138895830E+03  0.16794852398E+04  0.89323629149E+02 0.  0.
         13    1    3    3    0    0 -0.75364586003E+03 -0.40751126394E+03 -0.51103950723E+03  0.99760156903E+03  0.00000000000E+00 0. -1.
        -13    1    3    3    0    0 -0.47596376033E+03 -0.26464536147E+03 -0.41034945108E+03  0.68188367079E+03  0.00000000000E+00 0.  1.
         22    1    1    2    0    0  0.12296096204E+04  0.67215662540E+03 -0.93515508979E+03  0.16847104765E+04  0.00000000000E+00 0.  1.
<mgrwt>
<rscale>  0 0.28055404E+04</rscale>
<asrwt>0</asrwt>
<pdfrwt beam="1">  1        2 0.40159536E+00 0.28055404E+04</pdfrwt>
<pdfrwt beam="2">  1       -2 0.11597321E+00 0.28055404E+04</pdfrwt>
<totfact> 0.15071373E+00</totfact>
</mgrwt>
</event>
<event>
 6    1  0.5078216E-004  0.4325154E+04  0.7818608E-02  0.7941983E-01
          2   -1    0    0  501    0  0.00000000000E+00  0.00000000000E+00  0.33067472857E+04  0.33067472857E+04  0.00000000000E+00 0.  1.
         -2   -1    0    0    0  501 -0.00000000000E+00 -0.00000000000E+00 -0.14143019501E+04  0.14143019501E+04  0.00000000000E+00 0. -1.
         23    2    1    2    0    0  0.28548462987E+03  0.13948576533E+04  0.27220406763E+04  0.30732149674E+04  0.89529019425E+02 0.  0.
         11    1    3    3    0    0  0.11650960652E+03  0.39585788838E+03  0.74325034202E+03  0.85011706671E+03  0.00000000000E+00 0. -1.
        -11    1    3    3    0    0  0.16897502335E+03  0.99899976497E+03  0.19787903343E+04  0.22230979006E+04  0.00000000000E+00 0.  1.
         22    1    1    2    0    0 -0.28548462987E+03 -0.13948576533E+04 -0.82959534069E+03  0.16478342685E+04  0.00000000000E+00 0. -1.
<mgrwt>
<rscale>  0 0.43251539E+04</rscale>
<asrwt>0</asrwt>
<pdfrwt beam="1">  1        2 0.50873035E+00 0.43251539E+04</pdfrwt>
<pdfrwt beam="2">  1       -2 0.21758492E+00 0.43251539E+04</pdfrwt>
<totfact> 0.86625958E-02</totfact>
</mgrwt>
</event>
<event>
 6    1  0.5026615E-004  0.8006677E+03  0.7818608E-02  0.9559051E-01
          2   -1    0    0  501    0  0.00000000000E+00  0.00000000000E+00  0.77540567791E+03  0.77540567791E+03  0.00000000000E+00 0.  1.
         -2   -1    0    0    0  501 -0.00000000000E+00 -0.00000000000E+00 -0.20668820870E+03  0.20668820870E+03  0.00000000000E+00 0. -1.
         23    2    1    2    0    0 -0.21873213678E+03 -0.33750661836E+02 -0.11410444205E+03  0.26429961433E+03  0.88609297500E+02 0.  0.
         13    1    3    3    0    0 -0.21803962015E+02 -0.34653350251E+02 -0.26447895015E+02  0.48741754112E+02  0.00000000000E+00 0. -1.
        -13    1    3    3    0    0 -0.19692817477E+03  0.90268841516E+00 -0.87656547035E+02  0.21555786022E+03  0.00000000000E+00 0.  1.
         22    1    1    2    0    0  0.21873213678E+03  0.33750661836E+02  0.68282191126E+03  0.71779427229E+03  0.00000000000E+00 0.  1.
<mgrwt>
<rscale>  0 0.80066775E+03</rscale>
<asrwt>0</asrwt>
<pdfrwt beam="1">  1        2 0.11929318E+00 0.80066775E+03</pdfrwt>
<pdfrwt beam="2">  1       -2 0.31798186E-01 0.80066775E+03</pdfrwt>
<totfact> 0.33154945E+02</totfact>
</mgrwt>
</event>
<event>
 6    1  0.5026615E-004  0.2328040E+04  0.7818608E-02  0.8466947E-01
         -2   -1    0    0    0  501 -0.00000000000E+00  0.00000000000E+00  0.14671278185E+04  0.14671278185E+04  0.00000000000E+00 0. -1.
          2   -1    0    0  501    0  0.00000000000E+00 -0.00000000000E+00 -0.92353384057E+03  0.92353384057E+03  0.00000000000E+00 0.  1.
         23    2    1    2    0    0  0.41695974055E+03 -0.80873234351E+03  0.10147987696E+04  0.13659971362E+04  0.90709452234E+02 0.  0.
         11    1    3    3    0    0  0.26069648531E+03 -0.42251000973E+03  0.58791560657E+03  0.76949472137E+03  0.00000000000E+00 0. -1.
        -11    1    3    3    0    0  0.15626325524E+03 -0.38622233378E+03  0.42688316305E+03  0.59650241486E+03  0.00000000000E+00 0.  1.
         22    1    1    2    0    0 -0.41695974055E+03  0.80873234351E+03 -0.47120479167E+03  0.10246645228E+04  0.00000000000E+00 0.  1.
<mgrwt>
<rscale>  0 0.23280397E+04</rscale>
<asrwt>0</asrwt>
<pdfrwt beam="1">  1        2 0.14208213E+00 0.23280397E+04</pdfrwt>
<pdfrwt beam="2">  1       -2 0.22571197E+00 0.23280397E+04</pdfrwt>
<totfact> 0.23255038E+00</totfact>
</mgrwt>
</event>
<event>
 6    1  0.5026615E-004  0.1887997E+04  0.7818608E-02  0.8660854E-01
         -2   -1    0    0    0  501 -0.00000000000E+00  0.00000000000E+00  0.15914415531E+04  0.15914415531E+04  0.00000000000E+00 0. -1.
          2   -1    0    0  501    0  0.00000000000E+00 -0.00000000000E+00 -0.55995340912E+03  0.55995340912E+03  0.00000000000E+00 0.  1.
         23    2    1    2    0    0 -0.88628683217E+03  0.47015072971E+02  0.87687447737E+03  0.12504953275E+04  0.84350157600E+02 0.  0.
         13    1    3    3    0    0 -0.49462217635E+03 -0.11953481914E+02  0.51131800346E+03  0.71150550506E+03  0.00000000000E+00 0. -1.
        -13    1    3    3    0    0 -0.39166465582E+03  0.58968554884E+02  0.36555647391E+03  0.53898982244E+03  0.00000000000E+00 0.  1.
         22    1    1    2    0    0  0.88628683217E+03 -0.47015072971E+02  0.15461366663E+03  0.90089963473E+03  0.00000000000E+00 0.  1.
<mgrwt>
<rscale>  0 0.18879970E+04</rscale>
<asrwt>0</asrwt>
<pdfrwt beam="1">  1        2 0.86146679E-01 0.18879970E+04</pdfrwt>
<pdfrwt beam="2">  1       -2 0.24483716E+00 0.18879970E+04</pdfrwt>
<totfact> 0.34923554E+00</totfact>
</mgrwt>
</event>
<event>
 6    1  0.5026615E-004  0.2999893E+04  0.7818608E-02  0.8243761E-01
         -2   -1    0    0    0  501 -0.00000000000E+00  0.00000000000E+00  0.71746495849E+03  0.71746495849E+03  0.00000000000E+00 0. -1.
          2   -1    0    0  501    0  0.00000000000E+00 -0.00000000000E+00 -0.31358176750E+04  0.31358176750E+04  0.00000000000E+00 0.  1.
         23    2    1    2    0    0 -0.27158618124E+03 -0.21045117010E+03 -0.30839878604E+04  0.31042039370E+04  0.83977441406E+02 0.  0.
         13    1    3    3    0    0 -0.21481929483E+03 -0.15150484770E+03 -0.20124810479E+04  0.20295765609E+04  0.00000000000E+00 0.  1.
        -13    1    3    3    0    0 -0.56766886416E+02 -0.58946322405E+02 -0.10715068124E+04  0.10746273761E+04  0.00000000000E+00 0. -1.
         22    1    1    2    0    0  0.27158618124E+03  0.21045117010E+03  0.66563514385E+03  0.74907869651E+03  0.00000000000E+00 0. -1.
<mgrwt>
<rscale>  0 0.29998929E+04</rscale>
<asrwt>0</asrwt>
<pdfrwt beam="1">  1        2 0.48243350E+00 0.29998929E+04</pdfrwt>
<pdfrwt beam="2">  1       -2 0.11037922E+00 0.29998929E+04</pdfrwt>
<totfact> 0.79549541E-01</totfact>
</mgrwt>
</event>
<event>
 6    1  0.5026615E-004  0.2758414E+04  0.7818608E-02  0.8316297E-01
          2   -1    0    0  501    0  0.00000000000E+00  0.00000000000E+00  0.22917847079E+04  0.22917847079E+04  0.00000000000E+00 0.  1.
         -2   -1    0    0    0  501 -0.00000000000E+00 -0.00000000000E+00 -0.83001325662E+03  0.83001325662E+03  0.00000000000E+00 0. -1.
         23    2    1    2    0    0  0.62542803826E+03  0.83266910410E+03  0.17524429274E+04  0.20406004918E+04  0.92174211675E+02 0.  0.
         11    1    3    3    0    0  0.29242254962E+03  0.46337308552E+03  0.89549351220E+03  0.10498257924E+04  0.00000000000E+00 0. -1.
        -11    1    3    3    0    0  0.33300548864E+03  0.36929601858E+03  0.85694941519E+03  0.99077469941E+03  0.00000000000E+00 0.  1.
         22    1    1    2    0    0 -0.62542803826E+03 -0.83266910410E+03 -0.29067147614E+03  0.10811974727E+04  0.00000000000E+00 0. -1.
<mgrwt>
<rscale>  0 0.27584138E+04</rscale>
<asrwt>0</asrwt>
<pdfrwt beam="1">  1        2 0.35258226E+00 0.27584138E+04</pdfrwt>
<pdfrwt beam="2">  1       -2 0.12769435E+00 0.27584138E+04</pdfrwt>
<totfact> 0.18179345E+00</totfact>
</mgrwt>
</event>
<event>
 6    1  0.5026615E-004  0.2336706E+04  0.7818608E-02  0.8463588E-01
         -4   -1    0    0    0  501 -0.00000000000E+00  0.00000000000E+00  0.80363311618E+03  0.80363311618E+03  0.00000000000E+00 0. -1.
          4   -1    0    0  501    0  0.00000000000E+00 -0.00000000000E+00 -0.16985963916E+04  0.16985963916E+04  0.00000000000E+00 0.  1.
         23    2    1    2    0    0 -0.21026680380E+03 -0.11474162629E+04 -0.45320956090E+03  0.12548632610E+04  0.92231711300E+02 0.  0.
         11    1    3    3    0    0 -0.97886978656E+02 -0.31528579084E+03 -0.11420043408E+03  0.34932610787E+03  0.00000000000E+00 0. -1.
        -11    1    3    3    0    0 -0.11237982514E+03 -0.83213047209E+03 -0.33900912682E+03  0.90553715316E+03  0.00000000000E+00 0.  1.
         22    1    1    2    0    0  0.21026680380E+03  0.11474162629E+04 -0.44175371454E+03  0.12473662468E+04  0.00000000000E+00 0.  1.
<mgrwt>
<rscale>  0 0.23367056E+04</rscale>
<asrwt>0</asrwt>
<pdfrwt beam="1">  1        4 0.26132252E+00 0.23367056E+04</pdfrwt>
<pdfrwt beam="2">  1       -4 0.12363587E+00 0.23367056E+04</pdfrwt>
<totfact> 0.47628917E-02</totfact>
</mgrwt>
</event>
<event>
 6    1  0.5026615E-004  0.3650907E+04  0.7818608E-02  0.8078929E-01
          2   -1    0    0  501    0  0.00000000000E+00  0.00000000000E+00  0.19117937798E+04  0.19117937798E+04  0.00000000000E+00 0.  1.
         -2   -1    0    0    0  501 -0.00000000000E+00 -0.00000000000E+00 -0.17430124247E+04  0.17430124247E+04  0.00000000000E+00 0. -1.
         23    2    1    2    0    0 -0.34156294071E+03  0.35305119774E+03  0.18433216549E+04  0.19097000167E+04  0.88368770545E+02 0.  0.
         13    1    3    3    0    0 -0.11194182428E+03  0.17758257585E+03  0.74846294762E+03  0.77734376388E+03  0.00000000000E+00 0. -1.
        -13    1    3    3    0    0 -0.22962111643E+03  0.17546862188E+03  0.10948587073E+04  0.11323562528E+04  0.00000000000E+00 0.  1.
         22    1    1    2    0    0  0.34156294071E+03 -0.35305119774E+03 -0.16745402999E+04  0.17451061877E+04  0.00000000000E+00 0. -1.
<mgrwt>
<rscale>  0 0.36509069E+04</rscale>
<asrwt>0</asrwt>
<pdfrwt beam="1">  1        2 0.29412212E+00 0.36509069E+04</pdfrwt>
<pdfrwt beam="2">  1       -2 0.26815576E+00 0.36509069E+04</pdfrwt>
<totfact> 0.30199080E-01</totfact>
</mgrwt>
</event>
<event>
 6    1  0.5026615E-004  0.1321030E+04  0.7818608E-02  0.9013053E-01
          2   -1    0    0  501    0  0.00000000000E+00  0.00000000000E+00  0.14043980165E+04  0.14043980165E+04  0.00000000000E+00 0.  1.
         -2   -1    0    0    0  501 -0.00000000000E+00 -0.00000000000E+00 -0.31065259252E+03  0.31065259252E+03  0.00000000000E+00 0. -1.
         23    2    1    2    0    0  0.40970891763E+03 -0.44143496077E+03  0.20710955336E+03  0.64320668901E+03  0.89968082806E+02 0.  0.
         13    1    3    3    0    0  0.30626150267E+03 -0.30883958026E+03  0.18839159136E+03  0.47399302321E+03  0.00000000000E+00 0. -1.
        -13    1    3    3    0    0  0.10344741495E+03 -0.13259538051E+03  0.18717962001E+02  0.16921366581E+03  0.00000000000E+00 0.  1.
         22    1    1    2    0    0 -0.40970891763E+03  0.44143496077E+03  0.88663587058E+03  0.10718439200E+04  0.00000000000E+00 0.  1.
<mgrwt>
<rscale>  0 0.13210297E+04</rscale>
<asrwt>0</asrwt>
<pdfrwt beam="1">  1        2 0.21606123E+00 0.13210297E+04</pdfrwt>
<pdfrwt beam="2">  1       -2 0.47792707E-01 0.13210297E+04</pdfrwt>
<totfact> 0.58395137E+01</totfact>
</mgrwt>
</event>
<event>
 6    1  0.5026615E-004  0.3235297E+04  0.7818608E-02  0.8179557E-01
          2   -1    0    0  501    0  0.00000000000E+00  0.00000000000E+00  0.23336779653E+04  0.23336779653E+04  0.00000000000E+00 0.  1.
         -2   -1    0    0    0  501 -0.00000000000E+00 -0.00000000000E+00 -0.11213141431E+04  0.11213141431E+04  0.00000000000E+00 0. -1.
         23    2    1    2    0    0  0.58414328428E+03  0.74641840033E+03 -0.79158413379E+03  0.12381991060E+04  0.90375772851E+02 0.  0.
         11    1    3    3    0    0  0.14224142948E+03  0.17401045869E+03 -0.23921875495E+03  0.32823448435E+03  0.00000000000E+00 0.  1.
        -11    1    3    3    0    0  0.44190185479E+03  0.57240794163E+03 -0.55236537884E+03  0.90996462165E+03  0.00000000000E+00 0. -1.
         22    1    1    2    0    0 -0.58414328428E+03 -0.74641840033E+03  0.20039479560E+04  0.22167930023E+04  0.00000000000E+00 0.  1.
<mgrwt>
<rscale>  0 0.32352967E+04</rscale>
<asrwt>0</asrwt>
<pdfrwt beam="1">  1        2 0.35902738E+00 0.32352967E+04</pdfrwt>
<pdfrwt beam="2">  1       -2 0.17250987E+00 0.32352967E+04</pdfrwt>
<totfact> 0.74508083E-01</totfact>
</mgrwt>
</event>
<event>
 6    1  0.5026615E-004  0.2722219E+04  0.7818608E-02  0.8327832E-01
         -2   -1    0    0    0  501 -0.00000000000E+00  0.00000000000E+00  0.55163438193E+03  0.55163438193E+03  0.00000000000E+00 0.  1.
          2   -1    0    0  501    0  0.00000000000E+00 -0.00000000000E+00 -0.33584184096E+04  0.33584184096E+04  0.00000000000E+00 0. -1.
         23    2    1    2    0    0  0.96690003482E+03  0.65595192472E+03 -0.40636652092E+03  0.12403762546E+04  0.90724301585E+02 0.  0.
         11    1    3    3    0    0  0.34576470547E+03  0.18325931041E+03 -0.13026003339E+03  0.41243773191E+03  0.00000000000E+00 0. -1.
        -11    1    3    3    0    0  0.62113532935E+03  0.47269261431E+03 -0.27610648752E+03  0.82793852274E+03  0.00000000000E+00 0.  1.
         22    1    1    2    0    0 -0.96690003482E+03 -0.65595192472E+03 -0.24004175068E+04  0.26696765369E+04  0.00000000000E+00 0. -1.
<mgrwt>
<rscale>  0 0.27222190E+04</rscale>
<asrwt>0</asrwt>
<pdfrwt beam="1">  1        2 0.51667974E+00 0.27222190E+04</pdfrwt>
<pdfrwt beam="2">  1       -2 0.84866830E-01 0.27222190E+04</pdfrwt>
<totfact> 0.10774411E+00</totfact>
</mgrwt>
</event>
<event>
 6    1  0.5026615E-004  0.8170506E+03  0.7818608E-02  0.9535660E-01
          2   -1    0    0  501    0  0.00000000000E+00  0.00000000000E+00  0.64117598930E+03  0.64117598930E+03  0.00000000000E+00 0.  1.
         -2   -1    0    0    0  501 -0.00000000000E+00 -0.00000000000E+00 -0.26029190373E+03  0.26029190373E+03  0.00000000000E+00 0. -1.
         23    2    1    2    0    0  0.33732553640E+03  0.61486396430E+02  0.42789756797E+03  0.55537634158E+03  0.88189895436E+02 0.  0.
         13    1    3    3    0    0  0.12335918108E+03  0.40832047197E+02  0.22475608116E+03  0.25961517609E+03  0.00000000000E+00 0. -1.
        -13    1    3    3    0    0  0.21396635532E+03  0.20654349233E+02  0.20314148681E+03  0.29576116550E+03  0.00000000000E+00 0.  1.
         22    1    1    2    0    0 -0.33732553640E+03 -0.61486396430E+02 -0.47013482403E+02  0.34609155145E+03  0.00000000000E+00 0. -1.
<mgrwt>
<rscale>  0 0.81705060E+03</rscale>
<asrwt>0</asrwt>
<pdfrwt beam="1">  1        2 0.98642460E-01 0.81705060E+03</pdfrwt>
<pdfrwt beam="2">  1       -2 0.40044908E-01 0.81705060E+03</pdfrwt>
<totfact> 0.27131875E+02</totfact>
</mgrwt>
</event>
<event>
 6    1  0.5026615E-004  0.9605170E+03  0.7818608E-02  0.9352942E-01
          2   -1    0    0  501    0  0.00000000000E+00  0.00000000000E+00  0.55096735238E+03  0.55096735238E+03  0.00000000000E+00 0.  1.
         -2   -1    0    0    0  501 -0.00000000000E+00 -0.00000000000E+00 -0.41862411463E+03  0.41862411463E+03  0.00000000000E+00 0. -1.
         23    2    1    2    0    0 -0.41261829802E+03 -0.82287425442E+02  0.28937949591E+03  0.52049741603E+03  0.10075707018E+03 0.  0.
         13    1    3    3    0    0 -0.23072210556E+03 -0.75869811838E+02  0.11611791895E+03  0.26920677823E+03  0.00000000000E+00 0. -1.
        -13    1    3    3    0    0 -0.18189619246E+03 -0.64176136039E+01  0.17326157695E+03  0.25129063780E+03  0.00000000000E+00 0.  1.
         22    1    1    2    0    0  0.41261829802E+03  0.82287425442E+02 -0.15703625817E+03  0.44909405098E+03  0.00000000000E+00 0. -1.
<mgrwt>
<rscale>  0 0.96051699E+03</rscale>
<asrwt>0</asrwt>
<pdfrwt beam="1">  1        2 0.84764209E-01 0.96051699E+03</pdfrwt>
<pdfrwt beam="2">  1       -2 0.64403710E-01 0.96051699E+03</pdfrwt>
<totfact> 0.12247498E+02</totfact>
</mgrwt>
</event>
<event>
 6    1  0.5026615E-004  0.2906663E+04  0.7818608E-02  0.8270898E-01
         -2   -1    0    0    0  501 -0.00000000000E+00  0.00000000000E+00  0.65847298023E+03  0.65847298023E+03  0.00000000000E+00 0. -1.
          2   -1    0    0  501    0  0.00000000000E+00 -0.00000000000E+00 -0.32076827105E+04  0.32076827105E+04  0.00000000000E+00 0.  1.
         23    2    1    2    0    0 -0.69554186777E+03  0.85615669465E+03 -0.20120972434E+02  0.11069759719E+04  0.90598969611E+02 0.  0.
         13    1    3    3    0    0 -0.33243038749E+03  0.33934873519E+03 -0.20659798494E+00  0.47504480766E+03  0.00000000000E+00 0.  1.
        -13    1    3    3    0    0 -0.36311148028E+03  0.51680795946E+03 -0.19914374449E+02  0.63193116427E+03  0.00000000000E+00 0. -1.
         22    1    1    2    0    0  0.69554186777E+03 -0.85615669465E+03 -0.25290887579E+04  0.27591797188E+04  0.00000000000E+00 0.  1.
<mgrwt>
<rscale>  0 0.29066630E+04</rscale>
<asrwt>0</asrwt>
<pdfrwt beam="1">  1        2 0.49348966E+00 0.29066630E+04</pdfrwt>
<pdfrwt beam="2">  1       -2 0.10130353E+00 0.29066630E+04</pdfrwt>
<totfact> 0.88509990E-01</totfact>
</mgrwt>
</event>
<event>
 6    1  0.5026615E-004  0.6551431E+04  0.7818608E-02  0.7625553E-01
         -2   -1    0    0    0  501 -0.00000000000E+00  0.00000000000E+00  0.28296843927E+04  0.28296843927E+04  0.00000000000E+00 0. -1.
          2   -1    0    0  501    0  0.00000000000E+00 -0.00000000000E+00 -0.37920526475E+04  0.37920526475E+04  0.00000000000E+00 0.  1.
         23    2    1    2    0    0  0.30178601215E+04  0.12683679327E+04 -0.38008531687E+03  0.32967873646E+04  0.90028625913E+02 0.  0.
         11    1    3    3    0    0  0.92207700096E+03  0.35467319940E+03 -0.86418643688E+02  0.99170925984E+03  0.00000000000E+00 0.  1.
        -11    1    3    3    0    0  0.20957831205E+04  0.91369473330E+03 -0.29366667318E+03  0.23050781047E+04  0.00000000000E+00 0. -1.
         22    1    1    2    0    0 -0.30178601215E+04 -0.12683679327E+04 -0.58228293797E+03  0.33249496756E+04  0.00000000000E+00 0.  1.
<mgrwt>
<rscale>  0 0.65514310E+04</rscale>
<asrwt>0</asrwt>
<pdfrwt beam="1">  1        2 0.58339271E+00 0.65514310E+04</pdfrwt>
<pdfrwt beam="2">  1       -2 0.43533606E+00 0.65514310E+04</pdfrwt>
<totfact> 0.13947076E-03</totfact>
</mgrwt>
</event>
<event>
 6    1  0.5026615E-004  0.3504844E+04  0.7818608E-02  0.8112643E-01
          1   -1    0    0  501    0  0.00000000000E+00  0.00000000000E+00  0.24092233494E+04  0.24092233494E+04  0.00000000000E+00 0.  1.
         -1   -1    0    0    0  501 -0.00000000000E+00 -0.00000000000E+00 -0.12746777229E+04  0.12746777229E+04  0.00000000000E+00 0. -1.
         23    2    1    2    0    0 -0.83523588654E+03  0.85407708974E+03 -0.77822590494E+03  0.14287377539E+04  0.92678739640E+02 0.  0.
         13    1    3    3    0    0 -0.46300770559E+03  0.40799284574E+03 -0.40933580759E+03  0.74053365959E+03  0.00000000000E+00 0. -1.
        -13    1    3    3    0    0 -0.37222818096E+03  0.44608424399E+03 -0.36889009736E+03  0.68820409427E+03  0.00000000000E+00 0.  1.
         22    1    1    2    0    0  0.83523588654E+03 -0.85407708974E+03  0.19127715315E+04  0.22551633185E+04  0.00000000000E+00 0.  1.
<mgrwt>
<rscale>  0 0.35048443E+04</rscale>
<asrwt>0</asrwt>
<pdfrwt beam="1">  1        1 0.37064975E+00 0.35048443E+04</pdfrwt>
<pdfrwt beam="2">  1       -1 0.19610427E+00 0.35048443E+04</pdfrwt>
<totfact> 0.20446481E-01</totfact>
</mgrwt>
</event>
<event>
 6    1  0.5026615E-004  0.2910489E+04  0.7818608E-02  0.8269763E-01
         -2   -1    0    0    0  501 -0.00000000000E+00  0.00000000000E+00  0.94440158854E+03  0.94440158854E+03  0.00000000000E+00 0. -1.
          2   -1    0    0  501    0  0.00000000000E+00 -0.00000000000E+00 -0.22424115157E+04  0.22424115157E+04  0.00000000000E+00 0.  1.
         23    2    1    2    0    0 -0.89196434053E+03  0.94835395721E+02  0.60304420634E+03  0.10847662552E+04  0.91985741278E+02 0.  0.
         11    1    3    3    0    0 -0.19865791973E+03  0.56503130252E+02  0.11940581241E+03  0.23856932083E+03  0.00000000000E+00 0. -1.
        -11    1    3    3    0    0 -0.69330642080E+03  0.38332265469E+02  0.48363839392E+03  0.84619693439E+03  0.00000000000E+00 0.  1.
         22    1    1    2    0    0  0.89196434053E+03 -0.94835395721E+02 -0.19010541335E+04  0.21020468491E+04  0.00000000000E+00 0.  1.
<mgrwt>
<rscale>  0 0.29104893E+04</rscale>
<asrwt>0</asrwt>
<pdfrwt beam="1">  1        2 0.34498639E+00 0.29104893E+04</pdfrwt>
<pdfrwt beam="2">  1       -2 0.14529255E+00 0.29104893E+04</pdfrwt>
<totfact> 0.13735531E+00</totfact>
</mgrwt>
</event>
<event>
 6    1  0.5026615E-004  0.1530769E+04  0.7818608E-02  0.8864246E-01
         -2   -1    0    0    0  501 -0.00000000000E+00  0.00000000000E+00  0.20156377852E+03  0.20156377852E+03  0.00000000000E+00 0.  1.
          2   -1    0    0  501    0  0.00000000000E+00 -0.00000000000E+00 -0.29063437023E+04  0.29063437023E+04  0.00000000000E+00 0. -1.
         23    2    1    2    0    0  0.84503165899E+02  0.29556922839E+03 -0.27732961919E+04  0.27929528289E+04  0.12211380912E+03 0.  0.
         13    1    3    3    0    0  0.48001980829E+02  0.28817763352E+03 -0.23693339407E+04  0.23872774998E+04  0.00000000000E+00 0. -1.
        -13    1    3    3    0    0  0.36501185069E+02  0.73915948632E+01 -0.40396225123E+03  0.40567532905E+03  0.00000000000E+00 0.  1.
         22    1    1    2    0    0 -0.84503165899E+02 -0.29556922839E+03  0.68516268101E+02  0.31495465199E+03  0.00000000000E+00 0.  1.
<mgrwt>
<rscale>  0 0.15307692E+04</rscale>
<asrwt>0</asrwt>
<pdfrwt beam="1">  1        2 0.44712980E+00 0.15307692E+04</pdfrwt>
<pdfrwt beam="2">  1       -2 0.31009812E-01 0.15307692E+04</pdfrwt>
<totfact> 0.18607439E+01</totfact>
</mgrwt>
</event>
<event>
 6    1  0.5026615E-004  0.1927124E+04  0.7818608E-02  0.8641472E-01
          2   -1    0    0  501    0  0.00000000000E+00  0.00000000000E+00  0.32676406822E+03  0.32676406822E+03  0.00000000000E+00 0.  1.
         -2   -1    0    0    0  501 -0.00000000000E+00 -0.00000000000E+00 -0.28413509380E+04  0.28413509380E+04  0.00000000000E+00 0. -1.
         23    2    1    2    0    0 -0.62182437863E+03  0.29380240088E+03 -0.15607881581E+03  0.71138025268E+03  0.93358762542E+02 0.  0.
         11    1    3    3    0    0 -0.39654841610E+03  0.13969052489E+03 -0.79368159777E+02  0.42785908176E+03  0.00000000000E+00 0. -1.
        -11    1    3    3    0    0 -0.22527596252E+03  0.15411187599E+03 -0.76710656028E+02  0.28352117092E+03  0.00000000000E+00 0.  1.
         22    1    1    2    0    0  0.62182437863E+03 -0.29380240088E+03 -0.23585080539E+04  0.24567347535E+04  0.00000000000E+00 0. -1.
<mgrwt>
<rscale>  0 0.19271237E+04</rscale>
<asrwt>0</asrwt>
<pdfrwt beam="1">  1        2 0.50271396E-01 0.19271237E+04</pdfrwt>
<pdfrwt beam="2">  1       -2 0.43713091E+00 0.19271237E+04</pdfrwt>
<totfact> 0.39497627E-01</totfact>
</mgrwt>
</event>
<event>
 6    1  0.5026615E-004  0.1160510E+04  0.7818608E-02  0.9148142E-01
          1   -1    0    0  501    0  0.00000000000E+00  0.00000000000E+00  0.13312112925E+04  0.13312112925E+04  0.00000000000E+00 0.  1.
         -1   -1    0    0    0  501 -0.00000000000E+00 -0.00000000000E+00 -0.25292428268E+03  0.25292428268E+03  0.00000000000E+00 0. -1.
         23    2    1    2    0    0 -0.46255141249E+03 -0.33435458255E+03  0.65572617339E+03  0.87399160629E+03  0.90209297386E+02 0.  0.
         13    1    3    3    0    0 -0.27831919532E+03 -0.22917125719E+03  0.46759364473E+03  0.59044462586E+03  0.00000000000E+00 0.  1.
        -13    1    3    3    0    0 -0.18423221717E+03 -0.10518332536E+03  0.18813252865E+03  0.28354698044E+03  0.00000000000E+00 0. -1.
         22    1    1    2    0    0  0.46255141249E+03  0.33435458255E+03  0.42256083647E+03  0.71014396891E+03  0.00000000000E+00 0.  1.
<mgrwt>
<rscale>  0 0.11605096E+04</rscale>
<asrwt>0</asrwt>
<pdfrwt beam="1">  1        1 0.20480173E+00 0.11605096E+04</pdfrwt>
<pdfrwt beam="2">  1       -1 0.38911429E-01 0.11605096E+04</pdfrwt>
<totfact> 0.54608442E+01</totfact>
</mgrwt>
</event>
<event>
 6    1  0.5026615E-004  0.3116451E+04  0.7818608E-02  0.8211237E-01
          2   -1    0    0  501    0  0.00000000000E+00  0.00000000000E+00  0.22409719157E+04  0.22409719157E+04  0.00000000000E+00 0.  1.
         -2   -1    0    0    0  501 -0.00000000000E+00 -0.00000000000E+00 -0.10834885312E+04  0.10834885312E+04  0.00000000000E+00 0. -1.
         23    2    1    2    0    0  0.81712515334E+03 -0.12925888362E+04  0.89096368789E+03  0.17722001065E+04  0.91637922000E+02 0.  0.
         11    1    3    3    0    0  0.55268435033E+03 -0.79987298576E+03  0.54343222966E+03  0.11138111926E+04  0.00000000000E+00 0. -1.
        -11    1    3    3    0    0  0.26444080301E+03 -0.49271585041E+03  0.34753145823E+03  0.65838891394E+03  0.00000000000E+00 0.  1.
         22    1    1    2    0    0 -0.81712515334E+03  0.12925888362E+04  0.26651969662E+03  0.15522603404E+04  0.00000000000E+00 0. -1.
<mgrwt>
<rscale>  0 0.31164514E+04</rscale>
<asrwt>0</asrwt>
<pdfrwt beam="1">  1        2 0.34476491E+00 0.31164514E+04</pdfrwt>
<pdfrwt beam="2">  1       -2 0.16669054E+00 0.31164514E+04</pdfrwt>
<totfact> 0.93442601E-01</totfact>
</mgrwt>
</event>
<event>
 6    1  0.5026615E-004  0.1221831E+04  0.7818608E-02  0.9093960E-01
          2   -1    0    0  501    0  0.00000000000E+00  0.00000000000E+00  0.34133532897E+04  0.34133532897E+04  0.00000000000E+00 0.  1.
         -2   -1    0    0    0  501 -0.00000000000E+00 -0.00000000000E+00 -0.10934043520E+03  0.10934043520E+03  0.00000000000E+00 0. -1.
         23    2    1    2    0    0 -0.21985098236E+03 -0.64411581060E+02  0.32833457160E+04  0.32926710373E+04  0.94022139825E+02 0.  0.
         11    1    3    3    0    0 -0.20395594764E+03 -0.49146047561E+02  0.24295982740E+04  0.24386391975E+04  0.00000000000E+00 0.  1.
        -11    1    3    3    0    0 -0.15895034728E+02 -0.15265533500E+02  0.85374744200E+03  0.85403183979E+03  0.00000000000E+00 0. -1.
         22    1    1    2    0    0  0.21985098236E+03  0.64411581060E+02  0.20667138535E+02  0.23002268766E+03  0.00000000000E+00 0. -1.
<mgrwt>
<rscale>  0 0.12218306E+04</rscale>
<asrwt>0</asrwt>
<pdfrwt beam="1">  1        2 0.52513119E+00 0.12218306E+04</pdfrwt>
<pdfrwt beam="2">  1       -2 0.16821608E-01 0.12218306E+04</pdfrwt>
<totfact> 0.27166997E+01</totfact>
</mgrwt>
</event>
<event>
 6    1  0.5026615E-004  0.1718793E+04  0.7818608E-02  0.8750718E-01
          2   -1    0    0  501    0  0.00000000000E+00  0.00000000000E+00  0.25029816075E+04  0.25029816075E+04  0.00000000000E+00 0.  1.
         -2   -1    0    0    0  501 -0.00000000000E+00 -0.00000000000E+00 -0.29507315295E+03  0.29507315295E+03  0.00000000000E+00 0. -1.
         23    2    1    2    0    0 -0.70492225908E+03  0.26169762927E+03  0.43733052779E+03  0.87442609690E+03  0.89229859918E+02 0.  0.
         13    1    3    3    0    0 -0.50786864603E+03  0.14542532922E+03  0.31252158656E+03  0.61379868855E+03  0.00000000000E+00 0. -1.
        -13    1    3    3    0    0 -0.19705361304E+03  0.11627230005E+03  0.12480894123E+03  0.26062740835E+03  0.00000000000E+00 0.  1.
         22    1    1    2    0    0  0.70492225908E+03 -0.26169762927E+03  0.17705779268E+04  0.19236286636E+04  0.00000000000E+00 0.  1.
<mgrwt>
<rscale>  0 0.17187934E+04</rscale>
<asrwt>0</asrwt>
<pdfrwt beam="1">  1        2 0.38507408E+00 0.17187934E+04</pdfrwt>
<pdfrwt beam="2">  1       -2 0.45395871E-01 0.17187934E+04</pdfrwt>
<totfact> 0.15183574E+01</totfact>
</mgrwt>
</event>
<event>
 6    1  0.5026615E-004  0.7249913E+03  0.7818608E-02  0.9675423E-01
         -2   -1    0    0    0  501 -0.00000000000E+00  0.00000000000E+00  0.28677364292E+03  0.28677364292E+03  0.00000000000E+00 0. -1.
          2   -1    0    0  501    0  0.00000000000E+00 -0.00000000000E+00 -0.45821195084E+03  0.45821195084E+03  0.00000000000E+00 0.  1.
         23    2    1    2    0    0  0.44493136181E+02 -0.17922912883E+03  0.22468377801E+03  0.30793247714E+03  0.10117752015E+03 0.  0.
         11    1    3    3    0    0 -0.16666478338E+02 -0.13083396670E+03  0.15302214517E+03  0.20201751224E+03  0.00000000000E+00 0.  1.
        -11    1    3    3    0    0  0.61159614519E+02 -0.48395162139E+02  0.71661632847E+02  0.10591496490E+03  0.00000000000E+00 0. -1.
         22    1    1    2    0    0 -0.44493136181E+02  0.17922912883E+03 -0.39612208593E+03  0.43705311662E+03  0.00000000000E+00 0.  1.
<mgrwt>
<rscale>  0 0.72499134E+03</rscale>
<asrwt>0</asrwt>
<pdfrwt beam="1">  1        2 0.70494146E-01 0.72499134E+03</pdfrwt>
<pdfrwt beam="2">  1       -2 0.44119022E-01 0.72499134E+03</pdfrwt>
<totfact> 0.33462071E+02</totfact>
</mgrwt>
</event>
<event>
 6    1  0.6482711E-004  0.3203712E+04  0.7818608E-02  0.8187838E-01
          1   -1    0    0  501    0  0.00000000000E+00  0.00000000000E+00  0.15870746266E+04  0.15870746266E+04  0.00000000000E+00 0.  1.
         -1   -1    0    0    0  501 -0.00000000000E+00 -0.00000000000E+00 -0.16167751142E+04  0.16167751142E+04  0.00000000000E+00 0. -1.
         23    2    1    2    0    0 -0.10428840560E+04 -0.66018821385E+03 -0.10339445210E+04  0.16126358298E+04  0.89985638362E+02 0.  0.
         11    1    3    3    0    0 -0.33460849201E+03 -0.22178457639E+03 -0.39100247136E+03  0.56038752115E+03  0.00000000000E+00 0. -1.
        -11    1    3    3    0    0 -0.70827556399E+03 -0.43840363746E+03 -0.64294204967E+03  0.10522483087E+04  0.00000000000E+00 0.  1.
         22    1    1    2    0    0  0.10428840560E+04  0.66018821385E+03  0.10042440334E+04  0.15912139110E+04  0.00000000000E+00 0.  1.
<mgrwt>
<rscale>  0 0.32037121E+04</rscale>
<asrwt>0</asrwt>
<pdfrwt beam="1">  1        1 0.24416533E+00 0.32037121E+04</pdfrwt>
<pdfrwt beam="2">  1       -1 0.24873463E+00 0.32037121E+04</pdfrwt>
<totfact> 0.33851075E-01</totfact>
</mgrwt>
</event>
<event>
 6    1  0.5026615E-004  0.1830955E+04  0.7818608E-02  0.8690009E-01
         -2   -1    0    0    0  501 -0.00000000000E+00  0.00000000000E+00  0.26157569059E+03  0.26157569059E+03  0.00000000000E+00 0. -1.
          2   -1    0    0  501    0  0.00000000000E+00 -0.00000000000E+00 -0.32040403671E+04  0.32040403671E+04  0.00000000000E+00 0.  1.
         23    2    1    2    0    0 -0.37355497486E+03 -0.58494334642E+03 -0.35149671695E+03  0.78330045261E+03  0.91146142377E+02 0.  0.
         13    1    3    3    0    0 -0.21245821067E+03 -0.29296761531E+03 -0.13784809534E+03  0.38726039339E+03  0.00000000000E+00 0.  1.
        -13    1    3    3    0    0 -0.16109676419E+03 -0.29197573111E+03 -0.21364862162E+03  0.39604005922E+03  0.00000000000E+00 0. -1.
         22    1    1    2    0    0  0.37355497486E+03  0.58494334642E+03 -0.25909679595E+04  0.26823156051E+04  0.00000000000E+00 0.  1.
<mgrwt>
<rscale>  0 0.18309550E+04</rscale>
<asrwt>0</asrwt>
<pdfrwt beam="1">  1        2 0.49292928E+00 0.18309550E+04</pdfrwt>
<pdfrwt beam="2">  1       -2 0.40242414E-01 0.18309550E+04</pdfrwt>
<totfact> 0.71302956E+00</totfact>
</mgrwt>
</event>
<event>
 6    1  0.5026615E-004  0.2686731E+04  0.7818608E-02  0.8339323E-01
          2   -1    0    0  501    0  0.00000000000E+00  0.00000000000E+00  0.26275069781E+04  0.26275069781E+04  0.00000000000E+00 0.  1.
         -2   -1    0    0    0  501 -0.00000000000E+00 -0.00000000000E+00 -0.68682259648E+03  0.68682259648E+03  0.00000000000E+00 0. -1.
         23    2    1    2    0    0  0.12389455538E+04 -0.35637698535E+02  0.16053117556E+04  0.20303003969E+04  0.94009243055E+02 0.  0.
         11    1    3    3    0    0  0.11396390774E+04 -0.58307898544E+02  0.14700536411E+04  0.18609768256E+04  0.00000000000E+00 0.  1.
        -11    1    3    3    0    0  0.99306476424E+02  0.22670200009E+02  0.13525811460E+03  0.16932357128E+03  0.00000000000E+00 0. -1.
         22    1    1    2    0    0 -0.12389455538E+04  0.35637698535E+02  0.33537262595E+03  0.12840291777E+04  0.00000000000E+00 0. -1.
<mgrwt>
<rscale>  0 0.26867312E+04</rscale>
<asrwt>0</asrwt>
<pdfrwt beam="1">  1        2 0.40423184E+00 0.26867312E+04</pdfrwt>
<pdfrwt beam="2">  1       -2 0.10566502E+00 0.26867312E+04</pdfrwt>
<totfact> 0.18637012E+00</totfact>
</mgrwt>
</event>
<event>
 6    1  0.5026615E-004  0.3062454E+04  0.7818608E-02  0.8226118E-01
          2   -1    0    0  501    0  0.00000000000E+00  0.00000000000E+00  0.10492054817E+04  0.10492054817E+04  0.00000000000E+00 0.  1.
         -2   -1    0    0    0  501 -0.00000000000E+00 -0.00000000000E+00 -0.22346972327E+04  0.22346972327E+04  0.00000000000E+00 0. -1.
         23    2    1    2    0    0 -0.64815865545E+03  0.38736941352E+03  0.83348739895E+03  0.11283421115E+04  0.91049278417E+02 0.  0.
         13    1    3    3    0    0 -0.42768826197E+03  0.22667156709E+03  0.58530634797E+03  0.75952667480E+03  0.00000000000E+00 0.  1.
        -13    1    3    3    0    0 -0.22047039348E+03  0.16069784643E+03  0.24818105098E+03  0.36881543666E+03  0.00000000000E+00 0. -1.
         22    1    1    2    0    0  0.64815865545E+03 -0.38736941352E+03 -0.20189791499E+04  0.21555606029E+04  0.00000000000E+00 0. -1.
<mgrwt>
<rscale>  0 0.30624543E+04</rscale>
<asrwt>0</asrwt>
<pdfrwt beam="1">  1        2 0.16141623E+00 0.30624543E+04</pdfrwt>
<pdfrwt beam="2">  1       -2 0.34379957E+00 0.30624543E+04</pdfrwt>
<totfact> 0.33961853E-01</totfact>
</mgrwt>
</event>
<event>
 6    1  0.5026615E-004  0.1266996E+04  0.7818608E-02  0.9056155E-01
          2   -1    0    0  501    0  0.00000000000E+00  0.00000000000E+00  0.11349285577E+04  0.11349285577E+04  0.00000000000E+00 0.  1.
         -2   -1    0    0    0  501 -0.00000000000E+00 -0.00000000000E+00 -0.35360776509E+03  0.35360776509E+03  0.00000000000E+00 0. -1.
         23    2    1    2    0    0  0.46593521993E+02 -0.50305411636E+03  0.83534536614E+03  0.98044867794E+03  0.90792780941E+02 0.  0.
         13    1    3    3    0    0  0.58464220673E+02 -0.31800505508E+03  0.46625202018E+03  0.56739424255E+03  0.00000000000E+00 0. -1.
        -13    1    3    3    0    0 -0.11870698679E+02 -0.18504906128E+03  0.36909334596E+03  0.41305443539E+03  0.00000000000E+00 0.  1.
         22    1    1    2    0    0 -0.46593521993E+02  0.50305411636E+03 -0.54024573561E+02  0.50808764482E+03  0.00000000000E+00 0. -1.
<mgrwt>
<rscale>  0 0.12669957E+04</rscale>
<asrwt>0</asrwt>
<pdfrwt beam="1">  1        2 0.17460439E+00 0.12669957E+04</pdfrwt>
<pdfrwt beam="2">  1       -2 0.54401195E-01 0.12669957E+04</pdfrwt>
<totfact> 0.64783386E+01</totfact>
</mgrwt>
</event>
<event>
 6    1  0.5026615E-004  0.3351738E+04  0.7818608E-02  0.8149854E-01
         -2   -1    0    0    0  501 -0.00000000000E+00  0.00000000000E+00  0.16187355043E+04  0.16187355043E+04  0.00000000000E+00 0. -1.
          2   -1    0    0  501    0  0.00000000000E+00 -0.00000000000E+00 -0.17350186025E+04  0.17350186025E+04  0.00000000000E+00 0.  1.
         23    2    1    2    0    0 -0.12148561753E+04  0.11353822518E+04  0.14031626748E+03  0.16712525113E+04  0.91803688981E+02 0.  0.
         11    1    3    3    0    0 -0.14934245854E+03  0.17898982439E+03  0.33262896156E+02  0.23547175504E+03  0.00000000000E+00 0.  1.
        -11    1    3    3    0    0 -0.10655137168E+04  0.95639242739E+03  0.10705337132E+03  0.14357807563E+04  0.00000000000E+00 0. -1.
         22    1    1    2    0    0  0.12148561753E+04 -0.11353822518E+04 -0.25659936565E+03  0.16825015955E+04  0.00000000000E+00 0.  1.
<mgrwt>
<rscale>  0 0.33517376E+04</rscale>
<asrwt>0</asrwt>
<pdfrwt beam="1">  1        2 0.26692594E+00 0.33517376E+04</pdfrwt>
<pdfrwt beam="2">  1       -2 0.24903623E+00 0.33517376E+04</pdfrwt>
<totfact> 0.50806979E-01</totfact>
</mgrwt>
</event>
<event>
 6    1  0.5026615E-004  0.2242620E+04  0.7818608E-02  0.8500895E-01
         -2   -1    0    0    0  501 -0.00000000000E+00  0.00000000000E+00  0.81363107184E+03  0.81363107184E+03  0.00000000000E+00 0. -1.
          2   -1    0    0  501    0  0.00000000000E+00 -0.00000000000E+00 -0.15453392269E+04  0.15453392269E+04  0.00000000000E+00 0.  1.
         23    2    1    2    0    0 -0.43646068601E+03  0.44754079061E+03  0.61041129978E+03  0.87840442018E+03  0.90563131545E+02 0.  0.
         11    1    3    3    0    0 -0.34955981231E+02  0.76084803831E+02  0.65346767778E+02  0.10621213705E+03  0.00000000000E+00 0. -1.
        -11    1    3    3    0    0 -0.40150470478E+03  0.37145598678E+03  0.54506453200E+03  0.77219228313E+03  0.00000000000E+00 0.  1.
         22    1    1    2    0    0  0.43646068601E+03 -0.44754079061E+03 -0.13421194548E+04  0.14805658786E+04  0.00000000000E+00 0.  1.
<mgrwt>
<rscale>  0 0.22426199E+04</rscale>
<asrwt>0</asrwt>
<pdfrwt beam="1">  1        2 0.23774449E+00 0.22426199E+04</pdfrwt>
<pdfrwt beam="2">  1       -2 0.12517401E+00 0.22426199E+04</pdfrwt>
<totfact> 0.52095969E+00</totfact>
</mgrwt>
</event>
<event>
 6    1  0.5026615E-004  0.2331508E+04  0.7818608E-02  0.8465601E-01
          2   -1    0    0  501    0  0.00000000000E+00  0.00000000000E+00  0.22375780650E+04  0.22375780650E+04  0.00000000000E+00 0.  1.
         -2   -1    0    0    0  501 -0.00000000000E+00 -0.00000000000E+00 -0.60734506010E+03  0.60734506010E+03  0.00000000000E+00 0. -1.
         23    2    1    2    0    0 -0.33218285988E+03 -0.27988106316E+02  0.21772018311E+04  0.22043736084E+04  0.89030362791E+02 0.  0.
         13    1    3    3    0    0 -0.23358058557E+03 -0.53027388746E+02  0.13692427167E+04  0.13900350395E+04  0.00000000000E+00 0.  1.
        -13    1    3    3    0    0 -0.98602274310E+02  0.25039282430E+02  0.80795911442E+03  0.81433856887E+03  0.00000000000E+00 0. -1.
         22    1    1    2    0    0  0.33218285988E+03  0.27988106316E+02 -0.54696882621E+03  0.64054951670E+03  0.00000000000E+00 0. -1.
<mgrwt>
<rscale>  0 0.23315077E+04</rscale>
<asrwt>0</asrwt>
<pdfrwt beam="1">  1        2 0.34424277E+00 0.23315077E+04</pdfrwt>
<pdfrwt beam="2">  1       -2 0.93437703E-01 0.23315077E+04</pdfrwt>
<totfact> 0.43078755E+00</totfact>
</mgrwt>
</event>
<event>
 6    1  0.5026615E-004  0.2353069E+04  0.7818608E-02  0.8457286E-01
          2   -1    0    0  501    0  0.00000000000E+00  0.00000000000E+00  0.22991446093E+04  0.22991446093E+04  0.00000000000E+00 0.  1.
         -2   -1    0    0    0  501 -0.00000000000E+00 -0.00000000000E+00 -0.60206474946E+03  0.60206474946E+03  0.00000000000E+00 0. -1.
         23    2    1    2    0    0  0.58547900850E+03  0.96794850835E+03  0.45915367124E+03  0.12242563980E+04  0.90948611760E+02 0.  0.
         13    1    3    3    0    0  0.36300563543E+03  0.51638668541E+03  0.24167703458E+03  0.67589650780E+03  0.00000000000E+00 0.  1.
        -13    1    3    3    0    0  0.22247337307E+03  0.45156182294E+03  0.21747663667E+03  0.54835989018E+03  0.00000000000E+00 0. -1.
         22    1    1    2    0    0 -0.58547900850E+03 -0.96794850835E+03  0.12379261886E+04  0.16769529608E+04  0.00000000000E+00 0.  1.
<mgrwt>
<rscale>  0 0.23530694E+04</rscale>
<asrwt>0</asrwt>
<pdfrwt beam="1">  1        2 0.35371455E+00 0.23530694E+04</pdfrwt>
<pdfrwt beam="2">  1       -2 0.92625347E-01 0.23530694E+04</pdfrwt>
<totfact> 0.40501174E+00</totfact>
</mgrwt>
</event>
<event>
 6    1  0.5026615E-004  0.1609332E+04  0.7818608E-02  0.8814836E-01
         -2   -1    0    0    0  501 -0.00000000000E+00  0.00000000000E+00  0.39008045420E+03  0.39008045420E+03  0.00000000000E+00 0. -1.
          2   -1    0    0  501    0  0.00000000000E+00 -0.00000000000E+00 -0.16598807747E+04  0.16598807747E+04  0.00000000000E+00 0.  1.
         23    2    1    2    0    0 -0.47794520846E+03 -0.41214399721E+03 -0.12674213186E+04  0.14188511304E+04  0.92127274655E+02 0.  0.
         11    1    3    3    0    0 -0.18815493545E+03 -0.14446886392E+03 -0.38425251665E+03  0.45157892879E+03  0.00000000000E+00 0. -1.
        -11    1    3    3    0    0 -0.28979027301E+03 -0.26767513329E+03 -0.88316880195E+03  0.96727220163E+03  0.00000000000E+00 0.  1.
         22    1    1    2    0    0  0.47794520846E+03  0.41214399721E+03 -0.23790018858E+01  0.63111009845E+03  0.00000000000E+00 0.  1.
<mgrwt>
<rscale>  0 0.16093316E+04</rscale>
<asrwt>0</asrwt>
<pdfrwt beam="1">  1        2 0.25536627E+00 0.16093316E+04</pdfrwt>
<pdfrwt beam="2">  1       -2 0.60012378E-01 0.16093316E+04</pdfrwt>
<totfact> 0.25610162E+01</totfact>
</mgrwt>
</event>
<event>
 6    1  0.5026615E-004  0.4203706E+04  0.7818608E-02  0.7964668E-01
         -2   -1    0    0    0  501 -0.00000000000E+00  0.00000000000E+00  0.11085525327E+04  0.11085525327E+04  0.00000000000E+00 0. -1.
          2   -1    0    0  501    0  0.00000000000E+00 -0.00000000000E+00 -0.39851850524E+04  0.39851850524E+04  0.00000000000E+00 0.  1.
         23    2    1    2    0    0  0.16520997749E+03  0.18913865683E+04 -0.34917083548E+03  0.19326143588E+04  0.91872193067E+02 0.  0.
         13    1    3    3    0    0  0.10976941194E+03  0.13800137041E+04 -0.29447171733E+03  0.14153447423E+04  0.00000000000E+00 0. -1.
        -13    1    3    3    0    0  0.55440565546E+02  0.51137286419E+03 -0.54699118145E+02  0.51726961641E+03  0.00000000000E+00 0.  1.
         22    1    1    2    0    0 -0.16520997749E+03 -0.18913865683E+04 -0.25274616842E+04  0.31611232264E+04  0.00000000000E+00 0. -1.
<mgrwt>
<rscale>  0 0.42037065E+04</rscale>
<asrwt>0</asrwt>
<pdfrwt beam="1">  1        2 0.61310541E+00 0.42037065E+04</pdfrwt>
<pdfrwt beam="2">  1       -2 0.17054654E+00 0.42037065E+04</pdfrwt>
<totfact> 0.57429555E-02</totfact>
</mgrwt>
</event>
<event>
 6    1  0.5026615E-004  0.1664263E+04  0.7818608E-02  0.8782013E-01
         -2   -1    0    0    0  501 -0.00000000000E+00  0.00000000000E+00  0.98896691303E+03  0.98896691303E+03  0.00000000000E+00 0. -1.
          2   -1    0    0  501    0  0.00000000000E+00 -0.00000000000E+00 -0.70016805358E+03  0.70016805358E+03  0.00000000000E+00 0.  1.
         23    2    1    2    0    0  0.72810027637E+03  0.37976722989E+03  0.26484026654E+03  0.86759545110E+03  0.90710190377E+02 0.  0.
         11    1    3    3    0    0  0.17589746796E+03  0.12913001512E+03  0.46824010122E+02  0.22317474759E+03  0.00000000000E+00 0.  1.
        -11    1    3    3    0    0  0.55220280841E+03  0.25063721477E+03  0.21801625642E+03  0.64442070351E+03  0.00000000000E+00 0. -1.
         22    1    1    2    0    0 -0.72810027637E+03 -0.37976722989E+03  0.23958592906E+02  0.82153951550E+03  0.00000000000E+00 0. -1.
<mgrwt>
<rscale>  0 0.16642632E+04</rscale>
<asrwt>0</asrwt>
<pdfrwt beam="1">  1        2 0.10771816E+00 0.16642632E+04</pdfrwt>
<pdfrwt beam="2">  1       -2 0.15214876E+00 0.16642632E+04</pdfrwt>
<totfact> 0.11269183E+01</totfact>
</mgrwt>
</event>
<event>
 6    1  0.5026615E-004  0.2853202E+04  0.7818608E-02  0.8286939E-01
         -2   -1    0    0    0  501 -0.00000000000E+00  0.00000000000E+00  0.21632843525E+04  0.21632843525E+04  0.00000000000E+00 0. -1.
          2   -1    0    0  501    0  0.00000000000E+00 -0.00000000000E+00 -0.94078730024E+03  0.94078730024E+03  0.00000000000E+00 0.  1.
         23    2    1    2    0    0 -0.12783929819E+04  0.57615172868E+03  0.33606583561E+03  0.14451564251E+04  0.96423112029E+02 0.  0.
         13    1    3    3    0    0 -0.82756738095E+03  0.41684552422E+03  0.19893118177E+03  0.94773497147E+03  0.00000000000E+00 0.  1.
        -13    1    3    3    0    0 -0.45082560094E+03  0.15930620446E+03  0.13713465383E+03  0.49742145362E+03  0.00000000000E+00 0. -1.
         22    1    1    2    0    0  0.12783929819E+04 -0.57615172868E+03  0.88643121663E+03  0.16589152276E+04  0.00000000000E+00 0. -1.
<mgrwt>
<rscale>  0 0.28532020E+04</rscale>
<asrwt>0</asrwt>
<pdfrwt beam="1">  1        2 0.14473651E+00 0.28532020E+04</pdfrwt>
<pdfrwt beam="2">  1       -2 0.33281298E+00 0.28532020E+04</pdfrwt>
<totfact> 0.47558680E-01</totfact>
</mgrwt>
</event>
<event>
 6    1  0.5026615E-004  0.2584754E+04  0.7818608E-02  0.8373398E-01
          2   -1    0    0  501    0  0.00000000000E+00  0.00000000000E+00  0.22407480081E+04  0.22407480081E+04  0.00000000000E+00 0.  1.
         -2   -1    0    0    0  501 -0.00000000000E+00 -0.00000000000E+00 -0.74539315730E+03  0.74539315730E+03  0.00000000000E+00 0. -1.
         23    2    1    2    0    0 -0.12643442656E+04 -0.24688773919E+03  0.65457746328E+03  0.14478217600E+04  0.90532952092E+02 0.  0.
         13    1    3    3    0    0 -0.42025516126E+03 -0.40438353735E+02  0.22704461934E+03  0.47937346629E+03  0.00000000000E+00 0. -1.
        -13    1    3    3    0    0 -0.84408910438E+03 -0.20644938545E+03  0.42753284395E+03  0.96844829368E+03  0.00000000000E+00 0.  1.
         22    1    1    2    0    0  0.12643442656E+04  0.24688773919E+03  0.84077738755E+03  0.15383194055E+04  0.00000000000E+00 0. -1.
<mgrwt>
<rscale>  0 0.25847539E+04</rscale>
<asrwt>0</asrwt>
<pdfrwt beam="1">  1        2 0.34473046E+00 0.25847539E+04</pdfrwt>
<pdfrwt beam="2">  1       -2 0.11467587E+00 0.25847539E+04</pdfrwt>
<totfact> 0.25751558E+00</totfact>
</mgrwt>
</event>
<event>
 6    1  0.5026615E-004  0.2740021E+04  0.7818608E-02  0.8322135E-01
          2   -1    0    0  501    0  0.00000000000E+00  0.00000000000E+00  0.17456469757E+04  0.17456469757E+04  0.00000000000E+00 0.  1.
         -2   -1    0    0    0  501 -0.00000000000E+00 -0.00000000000E+00 -0.10752048737E+04  0.10752048737E+04  0.00000000000E+00 0. -1.
         23    2    1    2    0    0 -0.96966566292E+03  0.80325150432E+03  0.88825448922E+03  0.15429994662E+04  0.79917695866E+02 0.  0.
         13    1    3    3    0    0 -0.95137140220E+03  0.77595063727E+03  0.87486412821E+03  0.15075125801E+04  0.00000000000E+00 0. -1.
        -13    1    3    3    0    0 -0.18294260726E+02  0.27300867057E+02  0.13390361002E+02  0.35486886103E+02  0.00000000000E+00 0.  1.
         22    1    1    2    0    0  0.96966566292E+03 -0.80325150432E+03 -0.21781238718E+03  0.12778523831E+04  0.00000000000E+00 0. -1.
<mgrwt>
<rscale>  0 0.27400205E+04</rscale>
<asrwt>0</asrwt>
<pdfrwt beam="1">  1        2 0.26856107E+00 0.27400205E+04</pdfrwt>
<pdfrwt beam="2">  1       -2 0.16541613E+00 0.27400205E+04</pdfrwt>
<totfact> 0.18599624E+00</totfact>
</mgrwt>
</event>
<event>
 6    1  0.5026615E-004  0.3460176E+04  0.7818608E-02  0.8123293E-01
          2   -1    0    0  501    0  0.00000000000E+00  0.00000000000E+00  0.27711528741E+04  0.27711528741E+04  0.00000000000E+00 0.  1.
         -2   -1    0    0    0  501 -0.00000000000E+00 -0.00000000000E+00 -0.10801297131E+04  0.10801297131E+04  0.00000000000E+00 0. -1.
         23    2    1    2    0    0  0.65939577850E+03  0.50389145445E+03 -0.84205227341E+03  0.11857281333E+04  0.90497427418E+02 0.  0.
         11    1    3    3    0    0  0.19558677564E+03  0.16226442520E+03 -0.31708104153E+03  0.40635491555E+03  0.00000000000E+00 0. -1.
        -11    1    3    3    0    0  0.46380900286E+03  0.34162702925E+03 -0.52497123188E+03  0.77937321775E+03  0.00000000000E+00 0.  1.
         22    1    1    2    0    0 -0.65939577850E+03 -0.50389145445E+03  0.25330754344E+04  0.26655544539E+04  0.00000000000E+00 0.  1.
<mgrwt>
<rscale>  0 0.34601760E+04</rscale>
<asrwt>0</asrwt>
<pdfrwt beam="1">  1        2 0.42633121E+00 0.34601760E+04</pdfrwt>
<pdfrwt beam="2">  1       -2 0.16617380E+00 0.34601760E+04</pdfrwt>
<totfact> 0.45033815E-01</totfact>
</mgrwt>
</event>
<event>
 6    1  0.5026615E-004  0.1005357E+04  0.7818608E-02  0.9302689E-01
          1   -1    0    0  501    0  0.00000000000E+00  0.00000000000E+00  0.22551551229E+04  0.22551551229E+04  0.00000000000E+00 0.  1.
         -1   -1    0    0    0  501 -0.00000000000E+00 -0.00000000000E+00 -0.11204805298E+03  0.11204805298E+03  0.00000000000E+00 0. -1.
         23    2    1    2    0    0 -0.39921531648E+03 -0.14188973137E+03  0.46175671288E+03  0.63329297409E+03  0.91297121266E+02 0.  0.
         11    1    3    3    0    0 -0.33129132752E+03 -0.11108844422E+03  0.42483694040E+03  0.55007364240E+03  0.00000000000E+00 0.  1.
        -11    1    3    3    0    0 -0.67923988962E+02 -0.30801287153E+02  0.36919772480E+02  0.83219331689E+02  0.00000000000E+00 0. -1.
         22    1    1    2    0    0  0.39921531648E+03  0.14188973137E+03  0.16813503570E+04  0.17339102018E+04  0.00000000000E+00 0.  1.
<mgrwt>
<rscale>  0 0.10053571E+04</rscale>
<asrwt>0</asrwt>
<pdfrwt beam="1">  1        1 0.34694691E+00 0.10053571E+04</pdfrwt>
<pdfrwt beam="2">  1       -1 0.17238164E-01 0.10053571E+04</pdfrwt>
<totfact> 0.52874382E+01</totfact>
</mgrwt>
</event>
<event>
 6    1  0.5026615E-004  0.1387229E+04  0.7818608E-02  0.8963115E-01
          2   -1    0    0  501    0  0.00000000000E+00  0.00000000000E+00  0.83394915445E+03  0.83394915445E+03  0.00000000000E+00 0.  1.
         -2   -1    0    0    0  501 -0.00000000000E+00 -0.00000000000E+00 -0.57689480080E+03  0.57689480080E+03  0.00000000000E+00 0. -1.
         23    2    1    2    0    0  0.16716260677E+03 -0.66356224599E+03  0.33295124682E+02  0.69089507933E+03  0.89270677799E+02 0.  0.
         13    1    3    3    0    0  0.95772250232E+02 -0.29659082232E+03  0.54689893799E+02  0.31643233761E+03  0.00000000000E+00 0. -1.
        -13    1    3    3    0    0  0.71390356540E+02 -0.36697142366E+03 -0.21394769117E+02  0.37446274172E+03  0.00000000000E+00 0.  1.
         22    1    1    2    0    0 -0.16716260677E+03  0.66356224599E+03  0.22375922897E+03  0.71994887593E+03  0.00000000000E+00 0. -1.
<mgrwt>
<rscale>  0 0.13872288E+04</rscale>
<asrwt>0</asrwt>
<pdfrwt beam="1">  1        2 0.12829987E+00 0.13872288E+04</pdfrwt>
<pdfrwt beam="2">  1       -2 0.88753046E-01 0.13872288E+04</pdfrwt>
<totfact> 0.34644025E+01</totfact>
</mgrwt>
</event>
<event>
 6    1  0.5026615E-004  0.7131386E+03  0.7818608E-02  0.9695024E-01
          2   -1    0    0  501    0  0.00000000000E+00  0.00000000000E+00  0.77092967885E+03  0.77092967885E+03  0.00000000000E+00 0.  1.
         -2   -1    0    0    0  501 -0.00000000000E+00 -0.00000000000E+00 -0.16491991613E+03  0.16491991613E+03  0.00000000000E+00 0. -1.
         23    2    1    2    0    0  0.52813867482E+02  0.21538731660E+03  0.66455683386E+03  0.70648359861E+03  0.91116897010E+02 0.  0.
         13    1    3    3    0    0  0.43936230338E+02  0.41219049230E+02  0.24129557942E+03  0.24870255126E+03  0.00000000000E+00 0. -1.
        -13    1    3    3    0    0  0.88776371437E+01  0.17416826737E+03  0.42326125444E+03  0.45778104734E+03  0.00000000000E+00 0.  1.
         22    1    1    2    0    0 -0.52813867482E+02 -0.21538731660E+03 -0.58547071149E+02  0.22936599637E+03  0.00000000000E+00 0. -1.
<mgrwt>
<rscale>  0 0.71313858E+03</rscale>
<asrwt>0</asrwt>
<pdfrwt beam="1">  1        2 0.11860456E+00 0.71313858E+03</pdfrwt>
<pdfrwt beam="2">  1       -2 0.25372295E-01 0.71313858E+03</pdfrwt>
<totfact> 0.50774391E+02</totfact>
</mgrwt>
</event>
<event>
 6    1  0.5026615E-004  0.1506027E+04  0.7818608E-02  0.8880455E-01
         -2   -1    0    0    0  501 -0.00000000000E+00  0.00000000000E+00  0.77842195201E+03  0.77842195201E+03  0.00000000000E+00 0. -1.
          2   -1    0    0  501    0  0.00000000000E+00 -0.00000000000E+00 -0.72843433055E+03  0.72843433055E+03  0.00000000000E+00 0.  1.
         23    2    1    2    0    0 -0.35857255033E+03  0.40753697874E+03 -0.49196505780E+03  0.73980128489E+03  0.10303232572E+03 0.  0.
         11    1    3    3    0    0 -0.30743895918E+03  0.39291452113E+03 -0.45293825116E+03  0.67383499011E+03  0.00000000000E+00 0. -1.
        -11    1    3    3    0    0 -0.51133591157E+02  0.14622457615E+02 -0.39026806630E+02  0.65966294781E+02  0.00000000000E+00 0.  1.
         22    1    1    2    0    0  0.35857255033E+03 -0.40753697874E+03  0.54195267925E+03  0.76705499766E+03  0.00000000000E+00 0.  1.
<mgrwt>
<rscale>  0 0.15060269E+04</rscale>
<asrwt>0</asrwt>
<pdfrwt beam="1">  1        2 0.11206682E+00 0.15060269E+04</pdfrwt>
<pdfrwt beam="2">  1       -2 0.11975722E+00 0.15060269E+04</pdfrwt>
<totfact> 0.20068655E+01</totfact>
</mgrwt>
</event>
<event>
 6    1  0.5026615E-004  0.1789253E+04  0.7818608E-02  0.8712035E-01
         -2   -1    0    0    0  501 -0.00000000000E+00  0.00000000000E+00  0.49383424010E+03  0.49383424010E+03  0.00000000000E+00 0.  1.
          2   -1    0    0  501    0  0.00000000000E+00 -0.00000000000E+00 -0.16206992946E+04  0.16206992946E+04  0.00000000000E+00 0. -1.
         23    2    1    2    0    0  0.55275335620E+03  0.69277476749E+03 -0.44148480772E+03  0.99416786497E+03  0.89374252548E+02 0.  0.
         11    1    3    3    0    0  0.43982502997E+03  0.52154026868E+03 -0.37519630935E+03  0.77860296647E+03  0.00000000000E+00 0.  1.
        -11    1    3    3    0    0  0.11292832623E+03  0.17123449881E+03 -0.66288498373E+02  0.21556489850E+03  0.00000000000E+00 0. -1.
         22    1    1    2    0    0 -0.55275335620E+03 -0.69277476749E+03 -0.68538024677E+03  0.11203656697E+04  0.00000000000E+00 0.  1.
<mgrwt>
<rscale>  0 0.17892533E+04</rscale>
<asrwt>0</asrwt>
<pdfrwt beam="1">  1        2 0.24933836E+00 0.17892533E+04</pdfrwt>
<pdfrwt beam="2">  1       -2 0.75974498E-01 0.17892533E+04</pdfrwt>
<totfact> 0.15918540E+01</totfact>
</mgrwt>
</event>
<event>
 6    1  0.5026615E-004  0.5504649E+04  0.7818608E-02  0.7755050E-01
          2   -1    0    0  501    0  0.00000000000E+00  0.00000000000E+00  0.34613144788E+04  0.34613144788E+04  0.00000000000E+00 0.  1.
         -2   -1    0    0    0  501 -0.00000000000E+00 -0.00000000000E+00 -0.21885587331E+04  0.21885587331E+04  0.00000000000E+00 0. -1.
         23    2    1    2    0    0 -0.14949521429E+04 -0.17051956988E+04  0.22361360830E+04  0.31859990359E+04  0.87812267454E+02 0.  0.
         13    1    3    3    0    0 -0.45780550070E+03 -0.58179013483E+03  0.71231203691E+03  0.10273529459E+04  0.00000000000E+00 0. -1.
        -13    1    3    3    0    0 -0.10371466422E+04 -0.11234055640E+04  0.15238240460E+04  0.21586460900E+04  0.00000000000E+00 0.  1.
         22    1    1    2    0    0  0.14949521429E+04  0.17051956988E+04 -0.96338033726E+03  0.24638741760E+04  0.00000000000E+00 0. -1.
<mgrwt>
<rscale>  0 0.55046490E+04</rscale>
<asrwt>0</asrwt>
<pdfrwt beam="1">  1        2 0.53250992E+00 0.55046490E+04</pdfrwt>
<pdfrwt beam="2">  1       -2 0.33670134E+00 0.55046490E+04</pdfrwt>
<totfact> 0.11389539E-02</totfact>
</mgrwt>
</event>
<event>
 6    1  0.5026615E-004  0.1346579E+04  0.7818608E-02  0.8993422E-01
          2   -1    0    0  501    0  0.00000000000E+00  0.00000000000E+00  0.19602472635E+04  0.19602472635E+04  0.00000000000E+00 0.  1.
         -2   -1    0    0    0  501 -0.00000000000E+00 -0.00000000000E+00 -0.23125590394E+03  0.23125590394E+03  0.00000000000E+00 0. -1.
         23    2    1    2    0    0 -0.33848507476E+03  0.21040772432E+03 -0.83316710203E+01  0.40905124135E+03  0.91705752358E+02 0.  0.
         13    1    3    3    0    0 -0.30105079396E+02  0.29857723058E+02 -0.28577101970E+02  0.51131694560E+02  0.00000000000E+00 0.  1.
        -13    1    3    3    0    0 -0.30837999536E+03  0.18055000126E+03  0.20245430949E+02  0.35791954679E+03  0.00000000000E+00 0. -1.
         22    1    1    2    0    0  0.33848507476E+03 -0.21040772432E+03  0.17373230306E+04  0.17824519261E+04  0.00000000000E+00 0.  1.
<mgrwt>
<rscale>  0 0.13465790E+04</rscale>
<asrwt>0</asrwt>
<pdfrwt beam="1">  1        2 0.30157649E+00 0.13465790E+04</pdfrwt>
<pdfrwt beam="2">  1       -2 0.35577833E-01 0.13465790E+04</pdfrwt>
<totfact> 0.51021591E+01</totfact>
</mgrwt>
</event>
<event>
 6    1  0.5026615E-004  0.3863524E+04  0.7818608E-02  0.8032659E-01
         -2   -1    0    0    0  501 -0.00000000000E+00  0.00000000000E+00  0.16155521036E+04  0.16155521036E+04  0.00000000000E+00 0. -1.
          2   -1    0    0  501    0  0.00000000000E+00 -0.00000000000E+00 -0.23098627176E+04  0.23098627176E+04  0.00000000000E+00 0.  1.
         23    2    1    2    0    0 -0.14115502623E+04 -0.12665124925E+04  0.20362968734E+02  0.18987707068E+04  0.91583350353E+02 0.  0.
         11    1    3    3    0    0 -0.65069856237E+03 -0.64497172540E+03  0.49376871140E+01  0.91619950141E+03  0.00000000000E+00 0.  1.
        -11    1    3    3    0    0 -0.76085169989E+03 -0.62154076707E+03  0.15425281620E+02  0.98257120539E+03  0.00000000000E+00 0. -1.
         22    1    1    2    0    0  0.14115502623E+04  0.12665124925E+04 -0.71467358272E+03  0.20266441144E+04  0.00000000000E+00 0. -1.
<mgrwt>
<rscale>  0 0.38635236E+04</rscale>
<asrwt>0</asrwt>
<pdfrwt beam="1">  1        2 0.35536349E+00 0.38635236E+04</pdfrwt>
<pdfrwt beam="2">  1       -2 0.24854648E+00 0.38635236E+04</pdfrwt>
<totfact> 0.23419955E-01</totfact>
</mgrwt>
</event>
<event>
 6    1  0.5026615E-004  0.1725732E+04  0.7818608E-02  0.8746823E-01
         -2   -1    0    0    0  501 -0.00000000000E+00  0.00000000000E+00  0.55220564225E+03  0.55220564225E+03  0.00000000000E+00 0. -1.
          2   -1    0    0  501    0  0.00000000000E+00 -0.00000000000E+00 -0.13482986580E+04  0.13482986580E+04  0.00000000000E+00 0.  1.
         23    2    1    2    0    0 -0.71303760290E+03 -0.41679907679E+03 -0.13337124584E+03  0.84156887357E+03  0.91138280574E+02 0.  0.
         13    1    3    3    0    0 -0.54614230532E+03 -0.27863773261E+03 -0.11795503274E+03  0.62435870575E+03  0.00000000000E+00 0.  1.
        -13    1    3    3    0    0 -0.16689529758E+03 -0.13816134418E+03 -0.15416213102E+02  0.21721016783E+03  0.00000000000E+00 0. -1.
         22    1    1    2    0    0  0.71303760290E+03  0.41679907679E+03 -0.66272176988E+03  0.10589354267E+04  0.00000000000E+00 0.  1.
<mgrwt>
<rscale>  0 0.17257325E+04</rscale>
<asrwt>0</asrwt>
<pdfrwt beam="1">  1        2 0.20743056E+00 0.17257325E+04</pdfrwt>
<pdfrwt beam="2">  1       -2 0.84954715E-01 0.17257325E+04</pdfrwt>
<totfact> 0.17754938E+01</totfact>
</mgrwt>
</event>
<event>
 6    1  0.5026615E-004  0.1186787E+04  0.7818608E-02  0.9124501E-01
          2   -1    0    0  501    0  0.00000000000E+00  0.00000000000E+00  0.19416882784E+04  0.19416882784E+04  0.00000000000E+00 0.  1.
         -2   -1    0    0    0  501 -0.00000000000E+00 -0.00000000000E+00 -0.18134509132E+03  0.18134509132E+03  0.00000000000E+00 0. -1.
         23    2    1    2    0    0  0.37133621766E+03  0.31762054822E+03  0.14763127548E+04  0.15578372218E+04  0.92650204714E+02 0.  0.
         11    1    3    3    0    0  0.24488591632E+03  0.15720565948E+03  0.93653486864E+03  0.98070397754E+03  0.00000000000E+00 0.  1.
        -11    1    3    3    0    0  0.12645030134E+03  0.16041488874E+03  0.53977788613E+03  0.57713324423E+03  0.00000000000E+00 0. -1.
         22    1    1    2    0    0 -0.37133621766E+03 -0.31762054822E+03  0.28403043233E+03  0.56519614798E+03  0.00000000000E+00 0. -1.
<mgrwt>
<rscale>  0 0.11867867E+04</rscale>
<asrwt>0</asrwt>
<pdfrwt beam="1">  1        2 0.29872126E+00 0.11867867E+04</pdfrwt>
<pdfrwt beam="2">  1       -2 0.27899246E-01 0.11867867E+04</pdfrwt>
<totfact> 0.83520508E+01</totfact>
</mgrwt>
</event>
<event>
 6    1  0.5026615E-004  0.2576976E+04  0.7818608E-02  0.8376064E-01
          2   -1    0    0  501    0  0.00000000000E+00  0.00000000000E+00  0.29405409184E+04  0.29405409184E+04  0.00000000000E+00 0.  1.
         -2   -1    0    0    0  501 -0.00000000000E+00 -0.00000000000E+00 -0.56459040468E+03  0.56459040468E+03  0.00000000000E+00 0. -1.
         23    2    1    2    0    0  0.10621151138E+04  0.71600207795E+03  0.10206484300E+04  0.16403012427E+04  0.90096938966E+02 0.  0.
         11    1    3    3    0    0  0.21453269297E+03  0.18669178050E+03  0.24347694325E+03  0.37437831021E+03  0.00000000000E+00 0. -1.
        -11    1    3    3    0    0  0.84758242085E+03  0.52931029746E+03  0.77717148676E+03  0.12659229325E+04  0.00000000000E+00 0.  1.
         22    1    1    2    0    0 -0.10621151138E+04 -0.71600207795E+03  0.13553020837E+04  0.18648300804E+04  0.00000000000E+00 0. -1.
<mgrwt>
<rscale>  0 0.25769759E+04</rscale>
<asrwt>0</asrwt>
<pdfrwt beam="1">  1        2 0.45239090E+00 0.25769759E+04</pdfrwt>
<pdfrwt beam="2">  1       -2 0.86860064E-01 0.25769759E+04</pdfrwt>
<totfact> 0.19271670E+00</totfact>
</mgrwt>
</event>
<event>
 6    1  0.5026615E-004  0.5962597E+03  0.7818608E-02  0.9913197E-01
         -2   -1    0    0    0  501 -0.00000000000E+00  0.00000000000E+00  0.34094618954E+03  0.34094618954E+03  0.00000000000E+00 0. -1.
          2   -1    0    0  501    0  0.00000000000E+00 -0.00000000000E+00 -0.26069039644E+03  0.26069039644E+03  0.00000000000E+00 0.  1.
         23    2    1    2    0    0  0.15432694952E+03 -0.21786221440E+03 -0.79745545172E+02  0.29037916830E+03  0.81731007552E+02 0.  0.
         13    1    3    3    0    0  0.30693117310E+02 -0.76550541982E+02  0.85058375239E+01  0.82912014811E+02  0.00000000000E+00 0. -1.
        -13    1    3    3    0    0  0.12363383221E+03 -0.14131167242E+03 -0.88251382696E+02  0.20746715349E+03  0.00000000000E+00 0.  1.
         22    1    1    2    0    0 -0.15432694952E+03  0.21786221440E+03  0.16000133827E+03  0.31125741768E+03  0.00000000000E+00 0.  1.
<mgrwt>
<rscale>  0 0.59625967E+03</rscale>
<asrwt>0</asrwt>
<pdfrwt beam="1">  1        2 0.40106215E-01 0.59625967E+03</pdfrwt>
<pdfrwt beam="2">  1       -2 0.52453260E-01 0.59625967E+03</pdfrwt>
<totfact> 0.44444472E+02</totfact>
</mgrwt>
</event>
<event>
 6    1  0.5026615E-004  0.3499675E+04  0.7818608E-02  0.8113867E-01
         -2   -1    0    0    0  501 -0.00000000000E+00  0.00000000000E+00  0.96384444812E+03  0.96384444812E+03  0.00000000000E+00 0. -1.
          2   -1    0    0  501    0  0.00000000000E+00 -0.00000000000E+00 -0.31767907075E+04  0.31767907075E+04  0.00000000000E+00 0.  1.
         23    2    1    2    0    0  0.80084131561E+03 -0.31179750702E+03  0.69469906166E+03  0.11086447514E+04  0.89005058143E+02 0.  0.
         13    1    3    3    0    0  0.80263340149E+02 -0.33608481546E+02  0.38606396343E+02  0.95195523226E+02  0.00000000000E+00 0. -1.
        -13    1    3    3    0    0  0.72057797547E+03 -0.27818902548E+03  0.65609266532E+03  0.10134492282E+04  0.00000000000E+00 0.  1.
         22    1    1    2    0    0 -0.80084131561E+03  0.31179750702E+03 -0.29076453210E+04  0.30319904042E+04  0.00000000000E+00 0.  1.
<mgrwt>
<rscale>  0 0.34996755E+04</rscale>
<asrwt>0</asrwt>
<pdfrwt beam="1">  1        2 0.48873703E+00 0.34996755E+04</pdfrwt>
<pdfrwt beam="2">  1       -2 0.14828376E+00 0.34996755E+04</pdfrwt>
<totfact> 0.34047522E-01</totfact>
</mgrwt>
</event>
<event>
 6    1  0.5026615E-004  0.1906145E+04  0.7818608E-02  0.8651804E-01
          2   -1    0    0  501    0  0.00000000000E+00  0.00000000000E+00  0.36157505227E+04  0.36157505227E+04  0.00000000000E+00 0.  1.
         -2   -1    0    0    0  501 -0.00000000000E+00 -0.00000000000E+00 -0.25121949115E+03  0.25121949115E+03  0.00000000000E+00 0. -1.
         23    2    1    2    0    0 -0.58139721500E+03  0.69499924422E+03  0.11009209210E+04  0.14287375796E+04  0.90650570234E+02 0.  0.
         11    1    3    3    0    0 -0.33462031343E+03  0.36154937096E+03  0.53798343445E+03  0.72946204668E+03  0.00000000000E+00 0. -1.
        -11    1    3    3    0    0 -0.24677690157E+03  0.33344987326E+03  0.56293748658E+03  0.69927553291E+03  0.00000000000E+00 0.  1.
         22    1    1    2    0    0  0.58139721500E+03 -0.69499924422E+03  0.22636101106E+04  0.24382324343E+04  0.00000000000E+00 0.  1.
<mgrwt>
<rscale>  0 0.19061448E+04</rscale>
<asrwt>0</asrwt>
<pdfrwt beam="1">  1        2 0.55626927E+00 0.19061448E+04</pdfrwt>
<pdfrwt beam="2">  1       -2 0.38649155E-01 0.19061448E+04</pdfrwt>
<totfact> 0.40138063E+00</totfact>
</mgrwt>
</event>
<event>
 6    1  0.5026615E-004  0.1563971E+04  0.7818608E-02  0.8842993E-01
         -2   -1    0    0    0  501 -0.00000000000E+00  0.00000000000E+00  0.15122022806E+03  0.15122022806E+03  0.00000000000E+00 0. -1.
          2   -1    0    0  501    0  0.00000000000E+00 -0.00000000000E+00 -0.40437809606E+04  0.40437809606E+04  0.00000000000E+00 0.  1.
         23    2    1    2    0    0 -0.56456436403E+03  0.40525934601E+03 -0.10123376899E+04  0.12321220426E+04  0.10163203658E+03 0.  0.
         13    1    3    3    0    0 -0.10836044173E+03  0.32393360706E+02 -0.16886392801E+03  0.20323961556E+03  0.00000000000E+00 0.  1.
        -13    1    3    3    0    0 -0.45620392230E+03  0.37286598530E+03 -0.84347376188E+03  0.10288824271E+04  0.00000000000E+00 0. -1.
         22    1    1    2    0    0  0.56456436403E+03 -0.40525934601E+03 -0.28802230427E+04  0.29628791461E+04  0.00000000000E+00 0.  1.
<mgrwt>
<rscale>  0 0.15639712E+04</rscale>
<asrwt>0</asrwt>
<pdfrwt beam="1">  1        2 0.62212020E+00 0.15639712E+04</pdfrwt>
<pdfrwt beam="2">  1       -2 0.23264649E-01 0.15639712E+04</pdfrwt>
<totfact> 0.50613564E+00</totfact>
</mgrwt>
</event>
<event>
 6    1  0.5026615E-004  0.2120820E+04  0.7818608E-02  0.8552127E-01
          2   -1    0    0  501    0  0.00000000000E+00  0.00000000000E+00  0.25841944945E+04  0.25841944945E+04  0.00000000000E+00 0.  1.
         -2   -1    0    0    0  501 -0.00000000000E+00 -0.00000000000E+00 -0.43513330879E+03  0.43513330879E+03  0.00000000000E+00 0. -1.
         23    2    1    2    0    0 -0.95442513789E+03  0.30603609206E+03  0.59233905359E+03  0.11678502231E+04  0.91777751237E+02 0.  0.
         11    1    3    3    0    0 -0.34456817378E+03  0.14641426504E+03  0.18817610535E+03  0.41901624076E+03  0.00000000000E+00 0. -1.
        -11    1    3    3    0    0 -0.60985696410E+03  0.15962182702E+03  0.40416294824E+03  0.74883398230E+03  0.00000000000E+00 0.  1.
         22    1    1    2    0    0  0.95442513789E+03 -0.30603609206E+03  0.15567221321E+04  0.18514775802E+04  0.00000000000E+00 0.  1.
<mgrwt>
<rscale>  0 0.21208197E+04</rscale>
<asrwt>0</asrwt>
<pdfrwt beam="1">  1        2 0.39756838E+00 0.21208197E+04</pdfrwt>
<pdfrwt beam="2">  1       -2 0.66943587E-01 0.21208197E+04</pdfrwt>
<totfact> 0.58618183E+00</totfact>
</mgrwt>
</event>
<event>
 6    1  0.5026615E-004  0.1720543E+04  0.7818608E-02  0.8749734E-01
         -2   -1    0    0    0  501 -0.00000000000E+00  0.00000000000E+00  0.61822821735E+03  0.61822821735E+03  0.00000000000E+00 0. -1.
          2   -1    0    0  501    0  0.00000000000E+00 -0.00000000000E+00 -0.11970768536E+04  0.11970768536E+04  0.00000000000E+00 0.  1.
         23    2    1    2    0    0 -0.67893485734E+02  0.14475017526E+03 -0.11786018013E+04  0.11946070787E+04  0.11145280512E+03 0.  0.
         13    1    3    3    0    0 -0.27767718274E+02 -0.12395623644E+02 -0.26291737492E+03  0.26467006574E+03  0.00000000000E+00 0.  1.
        -13    1    3    3    0    0 -0.40125767460E+02  0.15714579890E+03 -0.91568442635E+03  0.92993701292E+03  0.00000000000E+00 0. -1.
         22    1    1    2    0    0  0.67893485734E+02 -0.14475017526E+03  0.59975316503E+03  0.62069799227E+03  0.00000000000E+00 0. -1.
<mgrwt>
<rscale>  0 0.17205426E+04</rscale>
<asrwt>0</asrwt>
<pdfrwt beam="1">  1        2 0.18416567E+00 0.17205426E+04</pdfrwt>
<pdfrwt beam="2">  1       -2 0.95112035E-01 0.17205426E+04</pdfrwt>
<totfact> 0.16794920E+01</totfact>
</mgrwt>
</event>
<event>
 6    1  0.5026615E-004  0.5613721E+03  0.7818608E-02  0.9988955E-01
         -2   -1    0    0    0  501 -0.00000000000E+00  0.00000000000E+00  0.33055034412E+02  0.33055034412E+02  0.00000000000E+00 0. -1.
          2   -1    0    0  501    0  0.00000000000E+00 -0.00000000000E+00 -0.23834391138E+04  0.23834391138E+04  0.00000000000E+00 0.  1.
         23    2    1    2    0    0  0.56166642350E+02  0.19771496950E+03 -0.19831033749E+04  0.19956129099E+04  0.86752462302E+02 0.  0.
         13    1    3    3    0    0  0.27603106458E+02  0.69752340774E+02 -0.11306313947E+04  0.11331172363E+04  0.00000000000E+00 0.  1.
        -13    1    3    3    0    0  0.28563535892E+02  0.12796262873E+03 -0.85247198021E+03  0.86249567360E+03  0.00000000000E+00 0. -1.
         22    1    1    2    0    0 -0.56166642350E+02 -0.19771496950E+03 -0.36728070446E+03  0.42088123829E+03  0.00000000000E+00 0. -1.
<mgrwt>
<rscale>  0 0.56137211E+03</rscale>
<asrwt>0</asrwt>
<pdfrwt beam="1">  1        2 0.36668304E+00 0.56137211E+03</pdfrwt>
<pdfrwt beam="2">  1       -2 0.50853885E-02 0.56137211E+03</pdfrwt>
<totfact> 0.85737071E+02</totfact>
</mgrwt>
</event>
<event>
 6    1  0.5026615E-004  0.1493197E+04  0.7818608E-02  0.8888989E-01
         -2   -1    0    0    0  501 -0.00000000000E+00  0.00000000000E+00  0.27522245743E+03  0.27522245743E+03  0.00000000000E+00 0. -1.
          2   -1    0    0  501    0  0.00000000000E+00 -0.00000000000E+00 -0.20253056872E+04  0.20253056872E+04  0.00000000000E+00 0.  1.
         23    2    1    2    0    0  0.31304183070E+03  0.47778746965E+03 -0.16123788719E+04  0.17129581113E+04  0.90464415794E+02 0.  0.
         11    1    3    3    0    0  0.24348927847E+03  0.30609388435E+03 -0.11579143446E+04  0.12221890705E+04  0.00000000000E+00 0.  1.
        -11    1    3    3    0    0  0.69552552232E+02  0.17169358531E+03 -0.45446452736E+03  0.49076904077E+03  0.00000000000E+00 0. -1.
         22    1    1    2    0    0 -0.31304183070E+03 -0.47778746965E+03 -0.13770435787E+03  0.58757003336E+03  0.00000000000E+00 0. -1.
<mgrwt>
<rscale>  0 0.14931974E+04</rscale>
<asrwt>0</asrwt>
<pdfrwt beam="1">  1        2 0.31158549E+00 0.14931974E+04</pdfrwt>
<pdfrwt beam="2">  1       -2 0.42341916E-01 0.14931974E+04</pdfrwt>
<totfact> 0.33071723E+01</totfact>
</mgrwt>
</event>
<event>
 6    1  0.5026615E-004  0.2655008E+04  0.7818608E-02  0.8349753E-01
         -2   -1    0    0    0  501 -0.00000000000E+00  0.00000000000E+00  0.60753487231E+03  0.60753487231E+03  0.00000000000E+00 0. -1.
          2   -1    0    0  501    0  0.00000000000E+00 -0.00000000000E+00 -0.29006832205E+04  0.29006832205E+04  0.00000000000E+00 0.  1.
         23    2    1    2    0    0  0.58946468935E+03 -0.43750505982E+03 -0.26068987362E+04  0.27098957247E+04  0.93458656613E+02 0.  0.
         11    1    3    3    0    0  0.15920333291E+03 -0.12978970200E+03 -0.58781693034E+03  0.62267151176E+03  0.00000000000E+00 0. -1.
        -11    1    3    3    0    0  0.43026135644E+03 -0.30771535782E+03 -0.20190818059E+04  0.20872242130E+04  0.00000000000E+00 0.  1.
         22    1    1    2    0    0 -0.58946468935E+03  0.43750505982E+03  0.31375038806E+03  0.79832236808E+03  0.00000000000E+00 0. -1.
<mgrwt>
<rscale>  0 0.26550075E+04</rscale>
<asrwt>0</asrwt>
<pdfrwt beam="1">  1        2 0.44625896E+00 0.26550075E+04</pdfrwt>
<pdfrwt beam="2">  1       -2 0.93466902E-01 0.26550075E+04</pdfrwt>
<totfact> 0.17105494E+00</totfact>
</mgrwt>
</event>
<event>
 6    1  0.5026615E-004  0.2720599E+04  0.7818608E-02  0.8328352E-01
         -1   -1    0    0    0  501 -0.00000000000E+00  0.00000000000E+00  0.15570881203E+04  0.15570881203E+04  0.00000000000E+00 0. -1.
          1   -1    0    0  501    0  0.00000000000E+00 -0.00000000000E+00 -0.11883816418E+04  0.11883816418E+04  0.00000000000E+00 0.  1.
         23    2    1    2    0    0  0.41912413203E+03 -0.10610229857E+04 -0.56031318860E+03  0.12742415826E+04  0.91136860458E+02 0.  0.
         11    1    3    3    0    0  0.14749115416E+03 -0.26717849515E+03 -0.13838365511E+03  0.33509405370E+03  0.00000000000E+00 0. -1.
        -11    1    3    3    0    0  0.27163297786E+03 -0.79384449055E+03 -0.42192953349E+03  0.93914752892E+03  0.00000000000E+00 0.  1.
         22    1    1    2    0    0 -0.41912413203E+03  0.10610229857E+04  0.92901966709E+03  0.14712281795E+04  0.00000000000E+00 0. -1.
<mgrwt>
<rscale>  0 0.27205992E+04</rscale>
<asrwt>0</asrwt>
<pdfrwt beam="1">  1        1 0.18282794E+00 0.27205992E+04</pdfrwt>
<pdfrwt beam="2">  1       -1 0.23955202E+00 0.27205992E+04</pdfrwt>
<totfact> 0.77529342E-01</totfact>
</mgrwt>
</event>
<event>
 6    1  0.5026615E-004  0.1917972E+04  0.7818608E-02  0.8645962E-01
         -1   -1    0    0    0  501 -0.00000000000E+00  0.00000000000E+00  0.74907055575E+03  0.74907055575E+03  0.00000000000E+00 0.  1.
          1   -1    0    0  501    0  0.00000000000E+00 -0.00000000000E+00 -0.12277264629E+04  0.12277264629E+04  0.00000000000E+00 0. -1.
         23    2    1    2    0    0  0.12086390737E+03  0.40702787222E+03  0.64362337814E+03  0.77688428554E+03  0.94965084982E+02 0.  0.
         13    1    3    3    0    0  0.46760840636E+02  0.20926470245E+03  0.24356020746E+03  0.32449940919E+03  0.00000000000E+00 0. -1.
        -13    1    3    3    0    0  0.74103066733E+02  0.19776316978E+03  0.40006317068E+03  0.45238487635E+03  0.00000000000E+00 0.  1.
         22    1    1    2    0    0 -0.12086390737E+03 -0.40702787222E+03 -0.11222792853E+04  0.11999127331E+04  0.00000000000E+00 0. -1.
<mgrwt>
<rscale>  0 0.19179716E+04</rscale>
<asrwt>0</asrwt>
<pdfrwt beam="1">  1        1 0.18888099E+00 0.19179716E+04</pdfrwt>
<pdfrwt beam="2">  1       -1 0.11524162E+00 0.19179716E+04</pdfrwt>
<totfact> 0.65077216E+00</totfact>
</mgrwt>
</event>
<event>
 6    1  0.5026615E-004  0.2460209E+04  0.7818608E-02  0.8417300E-01
         -1   -1    0    0    0  501 -0.00000000000E+00  0.00000000000E+00  0.14520824230E+04  0.14520824230E+04  0.00000000000E+00 0.  1.
          1   -1    0    0  501    0  0.00000000000E+00 -0.00000000000E+00 -0.10420596503E+04  0.10420596503E+04  0.00000000000E+00 0. -1.
         23    2    1    2    0    0 -0.75966067917E+03 -0.85262045333E+03  0.66423818805E+03  0.13242397430E+04  0.91392240391E+02 0.  0.
         13    1    3    3    0    0 -0.51834575728E+03 -0.52158346528E+03  0.40597011466E+03  0.83996629060E+03  0.00000000000E+00 0. -1.
        -13    1    3    3    0    0 -0.24131492189E+03 -0.33103698805E+03  0.25826807339E+03  0.48427345242E+03  0.00000000000E+00 0.  1.
         22    1    1    2    0    0  0.75966067917E+03  0.85262045333E+03 -0.25421541531E+03  0.11699023302E+04  0.00000000000E+00 0. -1.
<mgrwt>
<rscale>  0 0.24602085E+04</rscale>
<asrwt>0</asrwt>
<pdfrwt beam="1">  1        1 0.16031687E+00 0.24602085E+04</pdfrwt>
<pdfrwt beam="2">  1       -1 0.22339729E+00 0.24602085E+04</pdfrwt>
<totfact> 0.13066798E+00</totfact>
</mgrwt>
</event>
<event>
 6    1  0.5026615E-004  0.1521887E+04  0.7818608E-02  0.8870027E-01
         -2   -1    0    0    0  501 -0.00000000000E+00  0.00000000000E+00  0.25532096270E+03  0.25532096270E+03  0.00000000000E+00 0. -1.
          2   -1    0    0  501    0  0.00000000000E+00 -0.00000000000E+00 -0.22678718135E+04  0.22678718135E+04  0.00000000000E+00 0.  1.
         23    2    1    2    0    0  0.49088800131E+03 -0.90449065754E+02 -0.19563944353E+04  0.20208924613E+04  0.85878345412E+02 0.  0.
         13    1    3    3    0    0  0.21318335537E+03 -0.24723653096E+01 -0.91613132371E+03  0.94061142767E+03  0.00000000000E+00 0.  1.
        -13    1    3    3    0    0  0.27770464594E+03 -0.87976700444E+02 -0.10402631116E+04  0.10802810336E+04  0.00000000000E+00 0. -1.
         22    1    1    2    0    0 -0.49088800131E+03  0.90449065754E+02 -0.56156415450E+02  0.50230031487E+03  0.00000000000E+00 0. -1.
<mgrwt>
<rscale>  0 0.15218873E+04</rscale>
<asrwt>0</asrwt>
<pdfrwt beam="1">  1        2 0.34890335E+00 0.15218873E+04</pdfrwt>
<pdfrwt beam="2">  1       -2 0.39280148E-01 0.15218873E+04</pdfrwt>
<totfact> 0.27984141E+01</totfact>
</mgrwt>
</event>
<event>
 6    1  0.5026615E-004  0.1101822E+04  0.7818608E-02  0.9203418E-01
          2   -1    0    0  501    0  0.00000000000E+00  0.00000000000E+00  0.19490657736E+03  0.19490657736E+03  0.00000000000E+00 0.  1.
         -2   -1    0    0    0  501 -0.00000000000E+00 -0.00000000000E+00 -0.15571720069E+04  0.15571720069E+04  0.00000000000E+00 0. -1.
         23    2    1    2    0    0 -0.39912965936E+03  0.18293824853E+03 -0.12046849490E+04  0.12855997577E+04  0.93434592002E+02 0.  0.
         13    1    3    3    0    0 -0.31279017666E+03  0.14451037431E+03 -0.10416089072E+04  0.10971189810E+04  0.00000000000E+00 0.  1.
        -13    1    3    3    0    0 -0.86339482703E+02  0.38427874221E+02 -0.16307604176E+03  0.18848077670E+03  0.00000000000E+00 0. -1.
         22    1    1    2    0    0  0.39912965936E+03 -0.18293824853E+03 -0.15758048055E+03  0.46647882653E+03  0.00000000000E+00 0.  1.
<mgrwt>
<rscale>  0 0.11018222E+04</rscale>
<asrwt>0</asrwt>
<pdfrwt beam="1">  1        2 0.29985628E-01 0.11018222E+04</pdfrwt>
<pdfrwt beam="2">  1       -2 0.23956492E+00 0.11018222E+04</pdfrwt>
<totfact> 0.13227314E+01</totfact>
</mgrwt>
</event>
<event>
 6    1  0.5026615E-004  0.2755401E+04  0.7818608E-02  0.8317250E-01
         -2   -1    0    0    0  501 -0.00000000000E+00  0.00000000000E+00  0.87103305469E+03  0.87103305469E+03  0.00000000000E+00 0.  1.
          2   -1    0    0  501    0  0.00000000000E+00 -0.00000000000E+00 -0.21790897808E+04  0.21790897808E+04  0.00000000000E+00 0. -1.
         23    2    1    2    0    0  0.60064466661E+03  0.82891467188E+03  0.36404856329E+03  0.10895592309E+04  0.82063465741E+02 0.  0.
         13    1    3    3    0    0  0.16980848961E+03  0.17518235780E+03  0.82834003203E+02  0.25765335960E+03  0.00000000000E+00 0. -1.
        -13    1    3    3    0    0  0.43083617700E+03  0.65373231408E+03  0.28121456009E+03  0.83190587129E+03  0.00000000000E+00 0.  1.
         22    1    1    2    0    0 -0.60064466661E+03 -0.82891467188E+03 -0.16721052894E+04  0.19605636046E+04  0.00000000000E+00 0. -1.
<mgrwt>
<rscale>  0 0.27554014E+04</rscale>
<asrwt>0</asrwt>
<pdfrwt beam="1">  1        2 0.33524458E+00 0.27554014E+04</pdfrwt>
<pdfrwt beam="2">  1       -2 0.13400509E+00 0.27554014E+04</pdfrwt>
<totfact> 0.18628009E+00</totfact>
</mgrwt>
</event>
<event>
 6    1  0.5026615E-004  0.5433889E+04  0.7818608E-02  0.7764852E-01
         -2   -1    0    0    0  501 -0.00000000000E+00  0.00000000000E+00  0.33951465279E+04  0.33951465279E+04  0.00000000000E+00 0. -1.
          2   -1    0    0  501    0  0.00000000000E+00 -0.00000000000E+00 -0.21742178614E+04  0.21742178614E+04  0.00000000000E+00 0.  1.
         23    2    1    2    0    0  0.10095336102E+04 -0.20926879655E+03  0.31861881838E+04  0.33500860135E+04  0.91266728565E+02 0.  0.
         13    1    3    3    0    0  0.89141820348E+03 -0.15740788149E+03  0.28309399386E+04  0.29721414150E+04  0.00000000000E+00 0. -1.
        -13    1    3    3    0    0  0.11811540668E+03 -0.51860915066E+02  0.35524824521E+03  0.37794459850E+03  0.00000000000E+00 0.  1.
         22    1    1    2    0    0 -0.10095336102E+04  0.20926879655E+03 -0.19652595173E+04  0.22192783759E+04  0.00000000000E+00 0.  1.
<mgrwt>
<rscale>  0 0.54338893E+04</rscale>
<asrwt>0</asrwt>
<pdfrwt beam="1">  1        2 0.33449506E+00 0.54338893E+04</pdfrwt>
<pdfrwt beam="2">  1       -2 0.52233024E+00 0.54338893E+04</pdfrwt>
<totfact> 0.46004992E-03</totfact>
</mgrwt>
</event>
<event>
 6    1  0.5026615E-004  0.3842077E+04  0.7818608E-02  0.8037185E-01
          2   -1    0    0  501    0  0.00000000000E+00  0.00000000000E+00  0.18744016696E+04  0.18744016696E+04  0.00000000000E+00 0.  1.
         -2   -1    0    0    0  501 -0.00000000000E+00 -0.00000000000E+00 -0.19688356762E+04  0.19688356762E+04  0.00000000000E+00 0. -1.
         23    2    1    2    0    0 -0.11865583150E+04 -0.14582870139E+04  0.34246076474E+03  0.19131081555E+04  0.90453243320E+02 0.  0.
         11    1    3    3    0    0 -0.20588308258E+03 -0.23342393688E+03  0.88710662399E+02  0.32364202388E+03  0.00000000000E+00 0. -1.
        -11    1    3    3    0    0 -0.98067523246E+03 -0.12248630770E+04  0.25375010234E+03  0.15894661316E+04  0.00000000000E+00 0.  1.
         22    1    1    2    0    0  0.11865583150E+04  0.14582870139E+04 -0.43689477135E+03  0.19301291903E+04  0.00000000000E+00 0. -1.
<mgrwt>
<rscale>  0 0.38420770E+04</rscale>
<asrwt>0</asrwt>
<pdfrwt beam="1">  1        2 0.28836949E+00 0.38420770E+04</pdfrwt>
<pdfrwt beam="2">  1       -2 0.30289780E+00 0.38420770E+04</pdfrwt>
<totfact> 0.19127964E-01</totfact>
</mgrwt>
</event>
<event>
 6    1  0.5026615E-004  0.1958771E+04  0.7818608E-02  0.8626143E-01
          2   -1    0    0  501    0  0.00000000000E+00  0.00000000000E+00  0.19184903311E+04  0.19184903311E+04  0.00000000000E+00 0.  1.
         -2   -1    0    0    0  501 -0.00000000000E+00 -0.00000000000E+00 -0.49997414097E+03  0.49997414097E+03  0.00000000000E+00 0. -1.
         23    2    1    2    0    0 -0.44513072532E+03  0.86724456731E+03  0.62538027456E+03  0.11617548466E+04  0.91210381294E+02 0.  0.
         13    1    3    3    0    0 -0.12582309360E+03  0.26796935778E+03  0.14263035573E+03  0.32860682581E+03  0.00000000000E+00 0. -1.
        -13    1    3    3    0    0 -0.31930763172E+03  0.59927520953E+03  0.48274991883E+03  0.83314802080E+03  0.00000000000E+00 0.  1.
         22    1    1    2    0    0  0.44513072532E+03 -0.86724456731E+03  0.79313591554E+03  0.12567096254E+04  0.00000000000E+00 0.  1.
<mgrwt>
<rscale>  0 0.19587706E+04</rscale>
<asrwt>0</asrwt>
<pdfrwt beam="1">  1        2 0.29515235E+00 0.19587706E+04</pdfrwt>
<pdfrwt beam="2">  1       -2 0.76919100E-01 0.19587706E+04</pdfrwt>
<totfact> 0.10434029E+01</totfact>
</mgrwt>
</event>
<event>
 6    1  0.5026615E-004  0.6008421E+04  0.7818608E-02  0.7689359E-01
         -2   -1    0    0    0  501 -0.00000000000E+00  0.00000000000E+00  0.27226837527E+04  0.27226837527E+04  0.00000000000E+00 0. -1.
          2   -1    0    0  501    0  0.00000000000E+00 -0.00000000000E+00 -0.33148476217E+04  0.33148476217E+04  0.00000000000E+00 0.  1.
         23    2    1    2    0    0 -0.88433375795E+03 -0.14261735103E+04  0.22069182323E+04  0.27739631298E+04  0.91467396838E+02 0.  0.
         13    1    3    3    0    0 -0.24161784431E+03 -0.46933307444E+03  0.70352033633E+03  0.87954168809E+03  0.00000000000E+00 0.  1.
        -13    1    3    3    0    0 -0.64271591364E+03 -0.95684043588E+03  0.15033978960E+04  0.18944214418E+04  0.00000000000E+00 0. -1.
         22    1    1    2    0    0  0.88433375795E+03  0.14261735103E+04 -0.27990821013E+04  0.32635682445E+04  0.00000000000E+00 0.  1.
<mgrwt>
<rscale>  0 0.60084213E+04</rscale>
<asrwt>0</asrwt>
<pdfrwt beam="1">  1        2 0.50997656E+00 0.60084213E+04</pdfrwt>
<pdfrwt beam="2">  1       -2 0.41887442E+00 0.60084213E+04</pdfrwt>
<totfact> 0.40883796E-03</totfact>
</mgrwt>
</event>
<event>
 6    1  0.5026615E-004  0.6530932E+03  0.7818608E-02  0.9800992E-01
          2   -1    0    0  501    0  0.00000000000E+00  0.00000000000E+00  0.56604527122E+03  0.56604527122E+03  0.00000000000E+00 0.  1.
         -2   -1    0    0    0  501 -0.00000000000E+00 -0.00000000000E+00 -0.18838192246E+03  0.18838192246E+03  0.00000000000E+00 0. -1.
         23    2    1    2    0    0  0.19934445262E+03  0.15584455888E+03 -0.34208161300E+02  0.27103927687E+03  0.90919491764E+02 0.  0.
         13    1    3    3    0    0  0.14310967204E+03  0.11241911123E+03 -0.65486981689E+02  0.19340884046E+03  0.00000000000E+00 0. -1.
        -13    1    3    3    0    0  0.56234780587E+02  0.43425447655E+02  0.31278820389E+02  0.77630436406E+02  0.00000000000E+00 0.  1.
         22    1    1    2    0    0 -0.19934445262E+03 -0.15584455888E+03  0.41187151005E+03  0.48338791681E+03  0.00000000000E+00 0.  1.
<mgrwt>
<rscale>  0 0.65309324E+03</rscale>
<asrwt>0</asrwt>
<pdfrwt beam="1">  1        2 0.87083887E-01 0.65309324E+03</pdfrwt>
<pdfrwt beam="2">  1       -2 0.28981834E-01 0.65309324E+03</pdfrwt>
<totfact> 0.58511686E+02</totfact>
</mgrwt>
</event>
<event>
 6    1  0.5026615E-004  0.1194025E+04  0.7818608E-02  0.9118102E-01
          2   -1    0    0  501    0  0.00000000000E+00  0.00000000000E+00  0.52991674166E+03  0.52991674166E+03  0.00000000000E+00 0. -1.
         -2   -1    0    0    0  501 -0.00000000000E+00 -0.00000000000E+00 -0.67260388549E+03  0.67260388549E+03  0.00000000000E+00 0.  1.
         23    2    1    2    0    0  0.70816343005E+02  0.24625692636E+03 -0.61088511499E+03  0.66879151196E+03  0.91891427969E+02 0.  0.
         13    1    3    3    0    0  0.56909457621E+02  0.20534430681E+03 -0.39685603000E+03  0.45044386914E+03  0.00000000000E+00 0.  1.
        -13    1    3    3    0    0  0.13906885384E+02  0.40912619556E+02 -0.21402908499E+03  0.21834764281E+03  0.00000000000E+00 0. -1.
         22    1    1    2    0    0 -0.70816343005E+02 -0.24625692636E+03  0.46819797115E+03  0.53372911520E+03  0.00000000000E+00 0. -1.
<mgrwt>
<rscale>  0 0.11940252E+04</rscale>
<asrwt>0</asrwt>
<pdfrwt beam="1">  1        2 0.81525653E-01 0.11940252E+04</pdfrwt>
<pdfrwt beam="2">  1       -2 0.10347752E+00 0.11940252E+04</pdfrwt>
<totfact> 0.43238343E+01</totfact>
</mgrwt>
</event>
<event>
 6    1  0.5026615E-004  0.1698820E+04  0.7818608E-02  0.8762037E-01
          2   -1    0    0  501    0  0.00000000000E+00  0.00000000000E+00  0.18342419133E+04  0.18342419133E+04  0.00000000000E+00 0.  1.
         -2   -1    0    0    0  501 -0.00000000000E+00 -0.00000000000E+00 -0.39334919415E+03  0.39334919415E+03  0.00000000000E+00 0. -1.
         23    2    1    2    0    0  0.64131042793E+02 -0.44972677710E+03  0.16597986330E+04  0.17233225641E+04  0.92423984810E+02 0.  0.
         11    1    3    3    0    0  0.70511536390E+02 -0.24097441114E+03  0.79737194728E+03  0.83596804120E+03  0.00000000000E+00 0. -1.
        -11    1    3    3    0    0 -0.63804935972E+01 -0.20875236596E+03  0.86242668576E+03  0.88735452289E+03  0.00000000000E+00 0.  1.
         22    1    1    2    0    0 -0.64131042793E+02  0.44972677710E+03 -0.21890591389E+03  0.50426854336E+03  0.00000000000E+00 0. -1.
<mgrwt>
<rscale>  0 0.16988203E+04</rscale>
<asrwt>0</asrwt>
<pdfrwt beam="1">  1        2 0.28219106E+00 0.16988203E+04</pdfrwt>
<pdfrwt beam="2">  1       -2 0.60515261E-01 0.16988203E+04</pdfrwt>
<totfact> 0.19989605E+01</totfact>
</mgrwt>
</event>
<event>
 6    1  0.5026615E-004  0.2641296E+04  0.7818608E-02  0.8354308E-01
          2   -1    0    0  501    0  0.00000000000E+00  0.00000000000E+00  0.14803733747E+04  0.14803733747E+04  0.00000000000E+00 0.  1.
         -2   -1    0    0    0  501 -0.00000000000E+00 -0.00000000000E+00 -0.11781558980E+04  0.11781558980E+04  0.00000000000E+00 0. -1.
         23    2    1    2    0    0  0.35469594049E+03 -0.35598541722E+03  0.13787537276E+04  0.14704782945E+04  0.93860246286E+02 0.  0.
         13    1    3    3    0    0  0.28481083656E+03 -0.22783376404E+03  0.95399541638E+03  0.10213386760E+04  0.00000000000E+00 0.  1.
        -13    1    3    3    0    0  0.69885103934E+02 -0.12815165318E+03  0.42475831119E+03  0.44913961848E+03  0.00000000000E+00 0. -1.
         22    1    1    2    0    0 -0.35469594049E+03  0.35598541722E+03 -0.10765362508E+04  0.11880509782E+04  0.00000000000E+00 0. -1.
<mgrwt>
<rscale>  0 0.26412956E+04</rscale>
<asrwt>0</asrwt>
<pdfrwt beam="1">  1        2 0.22774975E+00 0.26412956E+04</pdfrwt>
<pdfrwt beam="2">  1       -2 0.18125475E+00 0.26412956E+04</pdfrwt>
<totfact> 0.20408390E+00</totfact>
</mgrwt>
</event>
<event>
 6    1  0.5026615E-004  0.2759915E+04  0.7818608E-02  0.8315822E-01
          2   -1    0    0  501    0  0.00000000000E+00  0.00000000000E+00  0.25630611378E+04  0.25630611378E+04  0.00000000000E+00 0.  1.
         -2   -1    0    0    0  501 -0.00000000000E+00 -0.00000000000E+00 -0.74297193201E+03  0.74297193201E+03  0.00000000000E+00 0. -1.
         23    2    1    2    0    0 -0.47487603239E+03  0.45483521391E+03  0.23621028158E+04  0.24538822197E+04  0.98111762821E+02 0.  0.
         11    1    3    3    0    0 -0.13901455319E+03  0.19520915860E+03  0.90620612342E+03  0.93735862919E+03  0.00000000000E+00 0. -1.
        -11    1    3    3    0    0 -0.33586147920E+03  0.25962605530E+03  0.14558966924E+04  0.15165235906E+04  0.00000000000E+00 0.  1.
         22    1    1    2    0    0  0.47487603239E+03 -0.45483521391E+03 -0.54201360997E+03  0.85215085011E+03  0.00000000000E+00 0. -1.
<mgrwt>
<rscale>  0 0.27599148E+04</rscale>
<asrwt>0</asrwt>
<pdfrwt beam="1">  1        2 0.39431709E+00 0.27599148E+04</pdfrwt>
<pdfrwt beam="2">  1       -2 0.11430338E+00 0.27599148E+04</pdfrwt>
<totfact> 0.16708324E+00</totfact>
</mgrwt>
</event>
<event>
 6    1  0.5026615E-004  0.1104468E+04  0.7818608E-02  0.9200848E-01
          1   -1    0    0  501    0  0.00000000000E+00  0.00000000000E+00  0.21086117609E+03  0.21086117609E+03  0.00000000000E+00 0.  1.
         -1   -1    0    0    0  501 -0.00000000000E+00 -0.00000000000E+00 -0.14462705992E+04  0.14462705992E+04  0.00000000000E+00 0. -1.
         23    2    1    2    0    0  0.11637525541E+03  0.52657335819E+03 -0.47194690243E+03  0.72241378462E+03  0.91241963250E+02 0.  0.
         11    1    3    3    0    0  0.12412235258E+03  0.38851937564E+03 -0.33503712133E+03  0.52782907871E+03  0.00000000000E+00 0. -1.
        -11    1    3    3    0    0 -0.77470971672E+01  0.13805398255E+03 -0.13690978110E+03  0.19458470591E+03  0.00000000000E+00 0.  1.
         22    1    1    2    0    0 -0.11637525541E+03 -0.52657335819E+03 -0.76346252069E+03  0.93471799069E+03  0.00000000000E+00 0. -1.
<mgrwt>
<rscale>  0 0.11044679E+04</rscale>
<asrwt>0</asrwt>
<pdfrwt beam="1">  1        1 0.32440181E-01 0.11044679E+04</pdfrwt>
<pdfrwt beam="2">  1       -1 0.22250317E+00 0.11044679E+04</pdfrwt>
<totfact> 0.14674129E+01</totfact>
</mgrwt>
</event>
<event>
 6    1  0.5026615E-004  0.2184662E+04  0.7818608E-02  0.8524839E-01
         -2   -1    0    0    0  501 -0.00000000000E+00  0.00000000000E+00  0.62172570532E+03  0.62172570532E+03  0.00000000000E+00 0. -1.
          2   -1    0    0  501    0  0.00000000000E+00 -0.00000000000E+00 -0.19191537491E+04  0.19191537491E+04  0.00000000000E+00 0.  1.
         23    2    1    2    0    0 -0.23319238774E+03  0.70402354036E+03  0.27731394298E+03  0.80023584933E+03  0.11595928817E+03 0.  0.
         13    1    3    3    0    0 -0.78515870687E+02  0.41036444893E+03  0.13465335960E+03  0.43897067117E+03  0.00000000000E+00 0.  1.
        -13    1    3    3    0    0 -0.15467651705E+03  0.29365909143E+03  0.14266058338E+03  0.36126517817E+03  0.00000000000E+00 0. -1.
         22    1    1    2    0    0  0.23319238774E+03 -0.70402354036E+03 -0.15747419868E+04  0.17406436051E+04  0.00000000000E+00 0.  1.
<mgrwt>
<rscale>  0 0.21846622E+04</rscale>
<asrwt>0</asrwt>
<pdfrwt beam="1">  1        2 0.29525442E+00 0.21846622E+04</pdfrwt>
<pdfrwt beam="2">  1       -2 0.95650109E-01 0.21846622E+04</pdfrwt>
<totfact> 0.62198168E+00</totfact>
</mgrwt>
</event>
<event>
 6    1  0.5026615E-004  0.3921628E+04  0.7818608E-02  0.8020546E-01
          2   -1    0    0  501    0  0.00000000000E+00  0.00000000000E+00  0.41228690646E+04  0.41228690646E+04  0.00000000000E+00 0.  1.
         -2   -1    0    0    0  501 -0.00000000000E+00 -0.00000000000E+00 -0.93255242244E+03  0.93255242244E+03  0.00000000000E+00 0. -1.
         23    2    1    2    0    0 -0.78062632968E+03 -0.21871559542E+03  0.38961151323E+04  0.39805421975E+04  0.88255782920E+02 0.  0.
         11    1    3    3    0    0 -0.89819478546E+02 -0.44717268014E+02  0.59900623746E+03  0.60735133596E+03  0.00000000000E+00 0. -1.
        -11    1    3    3    0    0 -0.69080685113E+03 -0.17399832740E+03  0.32971088949E+04  0.33731908615E+04  0.00000000000E+00 0.  1.
         22    1    1    2    0    0  0.78062632968E+03  0.21871559542E+03 -0.70579849021E+03  0.10748792895E+04  0.00000000000E+00 0. -1.
<mgrwt>
<rscale>  0 0.39216280E+04</rscale>
<asrwt>0</asrwt>
<pdfrwt beam="1">  1        2 0.63428754E+00 0.39216280E+04</pdfrwt>
<pdfrwt beam="2">  1       -2 0.14346961E+00 0.39216280E+04</pdfrwt>
<totfact> 0.72111226E-02</totfact>
</mgrwt>
</event>
<event>
 6    1  0.5026615E-004  0.3582066E+04  0.7818608E-02  0.8094612E-01
          2   -1    0    0  501    0  0.00000000000E+00  0.00000000000E+00  0.23197855855E+04  0.23197855855E+04  0.00000000000E+00 0.  1.
         -2   -1    0    0    0  501 -0.00000000000E+00 -0.00000000000E+00 -0.13827998573E+04  0.13827998573E+04  0.00000000000E+00 0. -1.
         23    2    1    2    0    0 -0.33348446276E+03  0.16017624950E+04  0.12190681095E+04  0.20423368328E+04  0.90320018020E+02 0.  0.
         13    1    3    3    0    0 -0.99347982475E+02  0.37149378981E+03  0.24759070905E+03  0.45736070743E+03  0.00000000000E+00 0. -1.
        -13    1    3    3    0    0 -0.23413648029E+03  0.12302687052E+04  0.97147740045E+03  0.15849761254E+04  0.00000000000E+00 0.  1.
         22    1    1    2    0    0  0.33348446276E+03 -0.16017624950E+04 -0.28208238128E+03  0.16602486100E+04  0.00000000000E+00 0. -1.
<mgrwt>
<rscale>  0 0.35820660E+04</rscale>
<asrwt>0</asrwt>
<pdfrwt beam="1">  1        2 0.35689009E+00 0.35820660E+04</pdfrwt>
<pdfrwt beam="2">  1       -2 0.21273844E+00 0.35820660E+04</pdfrwt>
<totfact> 0.39649658E-01</totfact>
</mgrwt>
</event>
<event>
 6    1  0.5026615E-004  0.9706254E+03  0.7818608E-02  0.9341362E-01
          2   -1    0    0  501    0  0.00000000000E+00  0.00000000000E+00  0.10061125551E+04  0.10061125551E+04  0.00000000000E+00 0.  1.
         -2   -1    0    0    0  501 -0.00000000000E+00 -0.00000000000E+00 -0.23409746667E+03  0.23409746667E+03  0.00000000000E+00 0. -1.
         23    2    1    2    0    0 -0.31431812379E+03 -0.13730162222E+03 -0.41876801765E+02  0.35699564953E+03  0.89691743452E+02 0.  0.
         11    1    3    3    0    0 -0.24092558041E+03 -0.10620641059E+03 -0.70049487064E+02  0.27245525795E+03  0.00000000000E+00 0.  1.
        -11    1    3    3    0    0 -0.73392543383E+02 -0.31095211636E+02  0.28172685299E+02  0.84540391577E+02  0.00000000000E+00 0. -1.
         22    1    1    2    0    0  0.31431812379E+03  0.13730162222E+03  0.81389189021E+03  0.88321437225E+03  0.00000000000E+00 0.  1.
<mgrwt>
<rscale>  0 0.97062537E+03</rscale>
<asrwt>0</asrwt>
<pdfrwt beam="1">  1        2 0.15478654E+00 0.97062537E+03</pdfrwt>
<pdfrwt beam="2">  1       -2 0.36014995E-01 0.97062537E+03</pdfrwt>
<totfact> 0.18075970E+02</totfact>
</mgrwt>
</event>
<event>
 6    1  0.5026615E-004  0.2964280E+04  0.7818608E-02  0.8254005E-01
          2   -1    0    0  501    0  0.00000000000E+00  0.00000000000E+00  0.32809136987E+04  0.32809136987E+04  0.00000000000E+00 0.  1.
         -2   -1    0    0    0  501 -0.00000000000E+00 -0.00000000000E+00 -0.66955100794E+03  0.66955100794E+03  0.00000000000E+00 0. -1.
         23    2    1    2    0    0  0.32720366317E+02  0.25017218663E+03  0.32513890661E+04  0.32625035839E+04  0.93498825312E+02 0.  0.
         11    1    3    3    0    0 -0.31300865694E+02  0.79480617851E+02  0.89128107425E+03  0.89536521382E+03  0.00000000000E+00 0.  1.
        -11    1    3    3    0    0  0.64021232011E+02  0.17069156878E+03  0.23601079918E+04  0.23671383700E+04  0.00000000000E+00 0. -1.
         22    1    1    2    0    0 -0.32720366317E+02 -0.25017218663E+03 -0.64002637532E+03  0.68796112277E+03  0.00000000000E+00 0. -1.
<mgrwt>
<rscale>  0 0.29642801E+04</rscale>
<asrwt>0</asrwt>
<pdfrwt beam="1">  1        2 0.50475595E+00 0.29642801E+04</pdfrwt>
<pdfrwt beam="2">  1       -2 0.10300785E+00 0.29642801E+04</pdfrwt>
<totfact> 0.75733215E-01</totfact>
</mgrwt>
</event>
<event>
 6    1  0.5026615E-004  0.2052131E+04  0.7818608E-02  0.8582628E-01
         -2   -1    0    0    0  501 -0.00000000000E+00  0.00000000000E+00  0.87016586719E+03  0.87016586719E+03  0.00000000000E+00 0. -1.
          2   -1    0    0  501    0  0.00000000000E+00 -0.00000000000E+00 -0.12098966005E+04  0.12098966005E+04  0.00000000000E+00 0.  1.
         23    2    1    2    0    0  0.45238786875E+03 -0.18168871505E+03  0.74278897657E+03  0.89283271095E+03  0.88029614721E+02 0.  0.
         13    1    3    3    0    0  0.32022989994E+03 -0.84662965542E+02  0.50900406570E+03  0.60728917778E+03  0.00000000000E+00 0.  1.
        -13    1    3    3    0    0  0.13215796881E+03 -0.97025749503E+02  0.23378491087E+03  0.28554353317E+03  0.00000000000E+00 0. -1.
         22    1    1    2    0    0 -0.45238786875E+03  0.18168871505E+03 -0.10825197098E+04  0.11872297567E+04  0.00000000000E+00 0.  1.
<mgrwt>
<rscale>  0 0.20521313E+04</rscale>
<asrwt>0</asrwt>
<pdfrwt beam="1">  1        2 0.18613794E+00 0.20521313E+04</pdfrwt>
<pdfrwt beam="2">  1       -2 0.13387167E+00 0.20521313E+04</pdfrwt>
<totfact> 0.69682944E+00</totfact>
</mgrwt>
</event>
<event>
 6    1  0.5026615E-004  0.1401432E+04  0.7818608E-02  0.8952783E-01
          2   -1    0    0  501    0  0.00000000000E+00  0.00000000000E+00  0.20261017669E+04  0.20261017669E+04  0.00000000000E+00 0.  1.
         -2   -1    0    0    0  501 -0.00000000000E+00 -0.00000000000E+00 -0.24233863762E+03  0.24233863762E+03  0.00000000000E+00 0. -1.
         23    2    1    2    0    0  0.46697878421E+03  0.19600495015E+03  0.11918641189E+03  0.52852581655E+03  0.92989314368E+02 0.  0.
         13    1    3    3    0    0  0.37703698190E+03  0.18071174556E+03  0.12697150383E+03  0.43696153548E+03  0.00000000000E+00 0.  1.
        -13    1    3    3    0    0  0.89941802314E+02  0.15293204589E+02 -0.77850919467E+01  0.91564281063E+02  0.00000000000E+00 0. -1.
         22    1    1    2    0    0 -0.46697878421E+03 -0.19600495015E+03  0.16645767174E+04  0.17399145880E+04  0.00000000000E+00 0.  1.
<mgrwt>
<rscale>  0 0.14014318E+04</rscale>
<asrwt>0</asrwt>
<pdfrwt beam="1">  1        2 0.31170795E+00 0.14014318E+04</pdfrwt>
<pdfrwt beam="2">  1       -2 0.37282869E-01 0.14014318E+04</pdfrwt>
<totfact> 0.42683011E+01</totfact>
</mgrwt>
</event>
<event>
 6    1  0.5026615E-004  0.3944551E+04  0.7818608E-02  0.8015827E-01
          2   -1    0    0  501    0  0.00000000000E+00  0.00000000000E+00  0.35944945403E+04  0.35944945403E+04  0.00000000000E+00 0.  1.
         -2   -1    0    0    0  501 -0.00000000000E+00 -0.00000000000E+00 -0.10821745985E+04  0.10821745985E+04  0.00000000000E+00 0. -1.
         23    2    1    2    0    0  0.34495748725E+03 -0.75071760685E+03 -0.86510316120E+03  0.11996647658E+04  0.90661334794E+02 0.  0.
         13    1    3    3    0    0  0.18151900437E+03 -0.45254985490E+03 -0.45476852776E+03  0.66675702768E+03  0.00000000000E+00 0. -1.
        -13    1    3    3    0    0  0.16343848288E+03 -0.29816775195E+03 -0.41033463343E+03  0.53290773815E+03  0.00000000000E+00 0.  1.
         22    1    1    2    0    0 -0.34495748725E+03  0.75071760685E+03  0.33774231030E+04  0.34770043730E+04  0.00000000000E+00 0.  1.
<mgrwt>
<rscale>  0 0.39445510E+04</rscale>
<asrwt>0</asrwt>
<pdfrwt beam="1">  1        2 0.55299915E+00 0.39445510E+04</pdfrwt>
<pdfrwt beam="2">  1       -2 0.16648840E+00 0.39445510E+04</pdfrwt>
<totfact> 0.12442553E-01</totfact>
</mgrwt>
</event>
<event>
 6    1  0.5026615E-004  0.1521307E+04  0.7818608E-02  0.8870406E-01
         -2   -1    0    0    0  501 -0.00000000000E+00  0.00000000000E+00  0.54074553952E+03  0.54074553952E+03  0.00000000000E+00 0. -1.
          2   -1    0    0  501    0  0.00000000000E+00 -0.00000000000E+00 -0.10699925545E+04  0.10699925545E+04  0.00000000000E+00 0.  1.
         23    2    1    2    0    0 -0.27000138959E+03  0.87260675911E+02  0.47852514502E+03  0.56378064388E+03  0.91362596587E+02 0.  0.
         11    1    3    3    0    0 -0.92392413762E+02 -0.72074954527E+01  0.19762688776E+03  0.21827664299E+03  0.00000000000E+00 0. -1.
        -11    1    3    3    0    0 -0.17760897583E+03  0.94468171364E+02  0.28089825727E+03  0.34550400089E+03  0.00000000000E+00 0.  1.
         22    1    1    2    0    0  0.27000138959E+03 -0.87260675911E+02 -0.10077721600E+04  0.10469574502E+04  0.00000000000E+00 0.  1.
<mgrwt>
<rscale>  0 0.15213069E+04</rscale>
<asrwt>0</asrwt>
<pdfrwt beam="1">  1        2 0.16461424E+00 0.15213069E+04</pdfrwt>
<pdfrwt beam="2">  1       -2 0.83191623E-01 0.15213069E+04</pdfrwt>
<totfact> 0.27763972E+01</totfact>
</mgrwt>
</event>
<event>
 6    1  0.5026615E-004  0.4746728E+03  0.7818608E-02  0.1020610E+00
          2   -1    0    0  501    0  0.00000000000E+00  0.00000000000E+00  0.39153443296E+03  0.39153443296E+03  0.00000000000E+00 0.  1.
         -2   -1    0    0    0  501 -0.00000000000E+00 -0.00000000000E+00 -0.14386620614E+03  0.14386620614E+03  0.00000000000E+00 0. -1.
         23    2    1    2    0    0  0.93131411546E+02  0.19935559019E+03  0.54033919823E+02  0.24229595473E+03  0.85857754644E+02 0.  0.
         13    1    3    3    0    0  0.23181431952E+02  0.55194241133E+02  0.56106114523E+02  0.82046810593E+02  0.00000000000E+00 0. -1.
        -13    1    3    3    0    0  0.69949979594E+02  0.14416134906E+03 -0.20721947003E+01  0.16024914414E+03  0.00000000000E+00 0.  1.
         22    1    1    2    0    0 -0.93131411546E+02 -0.19935559019E+03  0.19363430700E+03  0.29310468438E+03  0.00000000000E+00 0.  1.
<mgrwt>
<rscale>  0 0.47467283E+03</rscale>
<asrwt>0</asrwt>
<pdfrwt beam="1">  1        2 0.60236066E-01 0.47467283E+03</pdfrwt>
<pdfrwt beam="2">  1       -2 0.22133263E-01 0.47467283E+03</pdfrwt>
<totfact> 0.14495424E+03</totfact>
</mgrwt>
</event>
<event>
 6    1  0.5026615E-004  0.5747887E+03  0.7818608E-02  0.9959138E-01
          2   -1    0    0  501    0  0.00000000000E+00  0.00000000000E+00  0.14227595134E+04  0.14227595134E+04  0.00000000000E+00 0.  1.
         -2   -1    0    0    0  501 -0.00000000000E+00 -0.00000000000E+00 -0.58053036623E+02  0.58053036623E+02  0.00000000000E+00 0. -1.
         23    2    1    2    0    0 -0.11513063282E+03  0.22930268339E+03  0.98871978225E+03  0.10256194287E+04  0.92160845993E+02 0.  0.
         13    1    3    3    0    0 -0.42068459822E+02  0.42510296629E+02  0.38075935471E+03  0.38542777122E+03  0.00000000000E+00 0.  1.
        -13    1    3    3    0    0 -0.73062173002E+02  0.18679238676E+03  0.60796042754E+03  0.64019165750E+03  0.00000000000E+00 0. -1.
         22    1    1    2    0    0  0.11513063282E+03 -0.22930268339E+03  0.37598669455E+03  0.45519312132E+03  0.00000000000E+00 0.  1.
<mgrwt>
<rscale>  0 0.57478869E+03</rscale>
<asrwt>0</asrwt>
<pdfrwt beam="1">  1        2 0.21888605E+00 0.57478869E+03</pdfrwt>
<pdfrwt beam="2">  1       -2 0.89312375E-02 0.57478869E+03</pdfrwt>
<totfact> 0.11776761E+03</totfact>
</mgrwt>
</event>
<event>
 6    1  0.5026615E-004  0.4006000E+04  0.7818608E-02  0.8003337E-01
          1   -1    0    0  501    0  0.00000000000E+00  0.00000000000E+00  0.26765066980E+04  0.26765066980E+04  0.00000000000E+00 0.  1.
         -1   -1    0    0    0  501 -0.00000000000E+00 -0.00000000000E+00 -0.14989720399E+04  0.14989720399E+04  0.00000000000E+00 0. -1.
         23    2    1    2    0    0  0.17369061447E+02 -0.17843244355E+04 -0.35705451691E+03  0.18219538683E+04  0.88952765791E+02 0.  0.
         13    1    3    3    0    0  0.41433751029E+00 -0.14930122712E+04 -0.32875957540E+03  0.15287801255E+04  0.00000000000E+00 0.  1.
        -13    1    3    3    0    0  0.16954723936E+02 -0.29131216434E+03 -0.28294941503E+02  0.29317374281E+03  0.00000000000E+00 0. -1.
         22    1    1    2    0    0 -0.17369061447E+02  0.17843244355E+04  0.15345891751E+04  0.23535248696E+04  0.00000000000E+00 0.  1.
<mgrwt>
<rscale>  0 0.40059999E+04</rscale>
<asrwt>0</asrwt>
<pdfrwt beam="1">  1        1 0.41177026E+00 0.40059999E+04</pdfrwt>
<pdfrwt beam="2">  1       -1 0.23061108E+00 0.40059999E+04</pdfrwt>
<totfact> 0.74576671E-02</totfact>
</mgrwt>
</event>
<event>
 6    1  0.5026615E-004  0.2446378E+04  0.7818608E-02  0.8422342E-01
         -1   -1    0    0    0  501 -0.00000000000E+00  0.00000000000E+00  0.10545351834E+04  0.10545351834E+04  0.00000000000E+00 0. -1.
          1   -1    0    0  501    0  0.00000000000E+00 -0.00000000000E+00 -0.14188156684E+04  0.14188156684E+04  0.00000000000E+00 0.  1.
         23    2    1    2    0    0 -0.88402364565E+03  0.33829600287E+03 -0.96291773446E+03  0.13533916793E+04  0.92284791149E+02 0.  0.
         11    1    3    3    0    0 -0.37907678000E+03  0.18855850898E+03 -0.39890565775E+03  0.58170373923E+03  0.00000000000E+00 0.  1.
        -11    1    3    3    0    0 -0.50494686564E+03  0.14973749389E+03 -0.56401207671E+03  0.77168794008E+03  0.00000000000E+00 0. -1.
         22    1    1    2    0    0  0.88402364565E+03 -0.33829600287E+03  0.59863724949E+03  0.11199591725E+04  0.00000000000E+00 0. -1.
<mgrwt>
<rscale>  0 0.24463778E+04</rscale>
<asrwt>0</asrwt>
<pdfrwt beam="1">  1        1 0.21827933E+00 0.24463778E+04</pdfrwt>
<pdfrwt beam="2">  1       -1 0.16223618E+00 0.24463778E+04</pdfrwt>
<totfact> 0.18698247E+00</totfact>
</mgrwt>
</event>
<event>
 6    1  0.5026615E-004  0.1510317E+04  0.7818608E-02  0.8877621E-01
          2   -1    0    0  501    0  0.00000000000E+00  0.00000000000E+00  0.17501026940E+04  0.17501026940E+04  0.00000000000E+00 0.  1.
         -2   -1    0    0    0  501 -0.00000000000E+00 -0.00000000000E+00 -0.32584601948E+03  0.32584601948E+03  0.00000000000E+00 0. -1.
         23    2    1    2    0    0  0.44428245144E+03  0.60543122981E+03  0.65251955079E+03  0.99914229689E+03  0.92572644840E+02 0.  0.
         13    1    3    3    0    0  0.14879690203E+03  0.27608918504E+03  0.25217631977E+03  0.40244086821E+03  0.00000000000E+00 0. -1.
        -13    1    3    3    0    0  0.29548554941E+03  0.32934204477E+03  0.40034323103E+03  0.59670142868E+03  0.00000000000E+00 0.  1.
         22    1    1    2    0    0 -0.44428245144E+03 -0.60543122981E+03  0.77173712377E+03  0.10768064166E+04  0.00000000000E+00 0.  1.
<mgrwt>
<rscale>  0 0.15103165E+04</rscale>
<asrwt>0</asrwt>
<pdfrwt beam="1">  1        2 0.26924656E+00 0.15103165E+04</pdfrwt>
<pdfrwt beam="2">  1       -2 0.50130158E-01 0.15103165E+04</pdfrwt>
<totfact> 0.33421688E+01</totfact>
</mgrwt>
</event>
<event>
 6    1  0.5026615E-004  0.4072901E+04  0.7818608E-02  0.7989999E-01
         -2   -1    0    0    0  501 -0.00000000000E+00  0.00000000000E+00  0.22322242282E+04  0.22322242282E+04  0.00000000000E+00 0. -1.
          2   -1    0    0  501    0  0.00000000000E+00 -0.00000000000E+00 -0.18578466563E+04  0.18578466563E+04  0.00000000000E+00 0.  1.
         23    2    1    2    0    0  0.28801288236E+03  0.18567257528E+04 -0.59852766441E+03  0.19741959968E+04  0.93981525470E+02 0.  0.
         11    1    3    3    0    0  0.11123324026E+03  0.84744001431E+03 -0.31666646954E+03  0.91148508739E+03  0.00000000000E+00 0. -1.
        -11    1    3    3    0    0  0.17677964210E+03  0.10092857385E+04 -0.28186119488E+03  0.10627109094E+04  0.00000000000E+00 0.  1.
         22    1    1    2    0    0 -0.28801288236E+03 -0.18567257528E+04  0.97290523626E+03  0.21158748877E+04  0.00000000000E+00 0. -1.
<mgrwt>
<rscale>  0 0.40729008E+04</rscale>
<asrwt>0</asrwt>
<pdfrwt beam="1">  1        2 0.28582256E+00 0.40729008E+04</pdfrwt>
<pdfrwt beam="2">  1       -2 0.34341911E+00 0.40729008E+04</pdfrwt>
<totfact> 0.10754581E-01</totfact>
</mgrwt>
</event>
<event>
 6    1  0.5026615E-004  0.5106233E+03  0.7818608E-02  0.1011043E+00
          2   -1    0    0  501    0  0.00000000000E+00  0.00000000000E+00  0.64438383930E+03  0.64438383930E+03  0.00000000000E+00 0.  1.
         -2   -1    0    0    0  501 -0.00000000000E+00 -0.00000000000E+00 -0.10115717279E+03  0.10115717279E+03  0.00000000000E+00 0. -1.
         23    2    1    2    0    0  0.20489018921E+03 -0.13978047558E+03  0.26332866468E+03  0.37156044786E+03  0.84832834336E+02 0.  0.
         11    1    3    3    0    0  0.93169114580E+02 -0.26138341065E+02  0.62541934482E+02  0.11521801228E+03  0.00000000000E+00 0.  1.
        -11    1    3    3    0    0  0.11172107463E+03 -0.11364213451E+03  0.20078673020E+03  0.25634243558E+03  0.00000000000E+00 0. -1.
         22    1    1    2    0    0 -0.20489018921E+03  0.13978047558E+03  0.27989800184E+03  0.37398056423E+03  0.00000000000E+00 0. -1.
<mgrwt>
<rscale>  0 0.51062333E+03</rscale>
<asrwt>0</asrwt>
<pdfrwt beam="1">  1        2 0.99135973E-01 0.51062333E+03</pdfrwt>
<pdfrwt beam="2">  1       -2 0.15562642E-01 0.51062333E+03</pdfrwt>
<totfact> 0.14971294E+03</totfact>
</mgrwt>
</event>
<event>
 6    1  0.5026615E-004  0.3523137E+04  0.7818608E-02  0.8108329E-01
          2   -1    0    0  501    0  0.00000000000E+00  0.00000000000E+00  0.35116414021E+04  0.35116414021E+04  0.00000000000E+00 0.  1.
         -2   -1    0    0    0  501 -0.00000000000E+00 -0.00000000000E+00 -0.88366758108E+03  0.88366758108E+03  0.00000000000E+00 0. -1.
         23    2    1    2    0    0  0.10452763490E+04  0.13931136201E+04  0.16340164179E+04  0.23899861854E+04  0.93038206766E+02 0.  0.
         13    1    3    3    0    0  0.72747143627E+03  0.96106858562E+03  0.11884056194E+04  0.16926829098E+04  0.00000000000E+00 0.  1.
        -13    1    3    3    0    0  0.31780491277E+03  0.43204503446E+03  0.44561079847E+03  0.69730327555E+03  0.00000000000E+00 0. -1.
         22    1    1    2    0    0 -0.10452763490E+04 -0.13931136201E+04  0.99395740313E+03  0.20053227978E+04  0.00000000000E+00 0.  1.
<mgrwt>
<rscale>  0 0.35231370E+04</rscale>
<asrwt>0</asrwt>
<pdfrwt beam="1">  1        2 0.54025252E+00 0.35231370E+04</pdfrwt>
<pdfrwt beam="2">  1       -2 0.13594886E+00 0.35231370E+04</pdfrwt>
<totfact> 0.25314567E-01</totfact>
</mgrwt>
</event>
<event>
 6    1  0.5026615E-004  0.1723092E+04  0.7818608E-02  0.8748303E-01
          2   -1    0    0  501    0  0.00000000000E+00  0.00000000000E+00  0.22527951195E+04  0.22527951195E+04  0.00000000000E+00 0.  1.
         -2   -1    0    0    0  501 -0.00000000000E+00 -0.00000000000E+00 -0.32948473410E+03  0.32948473410E+03  0.00000000000E+00 0. -1.
         23    2    1    2    0    0 -0.54425522291E+03  0.10992500476E+03 -0.17106790853E+02  0.56398451539E+03  0.97409634918E+02 0.  0.
         11    1    3    3    0    0 -0.53548397127E+03  0.12039296290E+03 -0.10839508157E+02  0.54895814407E+03  0.00000000000E+00 0. -1.
        -11    1    3    3    0    0 -0.87712516360E+01 -0.10467958133E+02 -0.62672826961E+01  0.15026371323E+02  0.00000000000E+00 0.  1.
         22    1    1    2    0    0  0.54425522291E+03 -0.10992500476E+03  0.19404171763E+04  0.20182953382E+04  0.00000000000E+00 0.  1.
<mgrwt>
<rscale>  0 0.17230921E+04</rscale>
<asrwt>0</asrwt>
<pdfrwt beam="1">  1        2 0.34658385E+00 0.17230921E+04</pdfrwt>
<pdfrwt beam="2">  1       -2 0.50689961E-01 0.17230921E+04</pdfrwt>
<totfact> 0.16861627E+01</totfact>
</mgrwt>
</event>
<event>
 6    1  0.5026615E-004  0.1836516E+04  0.7818608E-02  0.8687118E-01
          2   -1    0    0  501    0  0.00000000000E+00  0.00000000000E+00  0.10679964249E+04  0.10679964249E+04  0.00000000000E+00 0.  1.
         -2   -1    0    0    0  501 -0.00000000000E+00 -0.00000000000E+00 -0.78951378785E+03  0.78951378785E+03  0.00000000000E+00 0. -1.
         23    2    1    2    0    0 -0.27720582134E+02  0.61115999371E+03 -0.55083376372E+03  0.82695179073E+03  0.78399364389E+02 0.  0.
         13    1    3    3    0    0 -0.53292014872E+01  0.30845458307E+03 -0.22636000920E+03  0.38263753602E+03  0.00000000000E+00 0.  1.
        -13    1    3    3    0    0 -0.22391380646E+02  0.30270541064E+03 -0.32447375453E+03  0.44431425471E+03  0.00000000000E+00 0. -1.
         22    1    1    2    0    0  0.27720582134E+02 -0.61115999371E+03  0.82931640076E+03  0.10305584220E+04  0.00000000000E+00 0.  1.
<mgrwt>
<rscale>  0 0.18365162E+04</rscale>
<asrwt>0</asrwt>
<pdfrwt beam="1">  1        2 0.16430714E+00 0.18365162E+04</pdfrwt>
<pdfrwt beam="2">  1       -2 0.12146366E+00 0.18365162E+04</pdfrwt>
<totfact> 0.11061990E+01</totfact>
</mgrwt>
</event>
<event>
 6    1  0.5026615E-004  0.3095009E+04  0.7818608E-02  0.8217109E-01
         -2   -1    0    0    0  501 -0.00000000000E+00  0.00000000000E+00  0.22251272983E+04  0.22251272983E+04  0.00000000000E+00 0. -1.
          2   -1    0    0  501    0  0.00000000000E+00 -0.00000000000E+00 -0.10762395637E+04  0.10762395637E+04  0.00000000000E+00 0.  1.
         23    2    1    2    0    0  0.10054446711E+04 -0.25329068747E+03  0.17983639252E+04  0.20778904702E+04  0.91874041588E+02 0.  0.
         13    1    3    3    0    0  0.96530208413E+03 -0.25787021334E+03  0.17470123144E+04  0.20125499217E+04  0.00000000000E+00 0.  1.
        -13    1    3    3    0    0  0.40142586966E+02  0.45795258638E+01  0.51351610855E+02  0.65340548535E+02  0.00000000000E+00 0. -1.
         22    1    1    2    0    0 -0.10054446711E+04  0.25329068747E+03 -0.64947619062E+03  0.12234763918E+04  0.00000000000E+00 0.  1.
<mgrwt>
<rscale>  0 0.30950089E+04</rscale>
<asrwt>0</asrwt>
<pdfrwt beam="1">  1        2 0.16557532E+00 0.30950089E+04</pdfrwt>
<pdfrwt beam="2">  1       -2 0.34232728E+00 0.30950089E+04</pdfrwt>
<totfact> 0.33275331E-01</totfact>
</mgrwt>
</event>
<event>
 6    1  0.5026615E-004  0.4443853E+04  0.7818608E-02  0.7920541E-01
         -2   -1    0    0    0  501 -0.00000000000E+00  0.00000000000E+00  0.17928536698E+04  0.17928536698E+04  0.00000000000E+00 0. -1.
          2   -1    0    0  501    0  0.00000000000E+00 -0.00000000000E+00 -0.27536870959E+04  0.27536870959E+04  0.00000000000E+00 0.  1.
         23    2    1    2    0    0  0.12715207058E+04  0.16455559040E+04 -0.12782125376E+04  0.24428895021E+04  0.96242868943E+02 0.  0.
         13    1    3    3    0    0  0.10483034459E+04  0.13797895052E+04 -0.10254186330E+04  0.20135149779E+04  0.00000000000E+00 0. -1.
        -13    1    3    3    0    0  0.22321725987E+03  0.26576639887E+03 -0.25279390455E+03  0.42937452422E+03  0.00000000000E+00 0.  1.
         22    1    1    2    0    0 -0.12715207058E+04 -0.16455559040E+04  0.31737911147E+03  0.21036512636E+04  0.00000000000E+00 0. -1.
<mgrwt>
<rscale>  0 0.44438533E+04</rscale>
<asrwt>0</asrwt>
<pdfrwt beam="1">  1        2 0.42364417E+00 0.44438533E+04</pdfrwt>
<pdfrwt beam="2">  1       -2 0.27582364E+00 0.44438533E+04</pdfrwt>
<totfact> 0.83809901E-02</totfact>
</mgrwt>
</event>
<event>
 6    1  0.5026615E-004  0.3804734E+04  0.7818608E-02  0.8045140E-01
          2   -1    0    0  501    0  0.00000000000E+00  0.00000000000E+00  0.33287951657E+04  0.33287951657E+04  0.00000000000E+00 0.  1.
         -2   -1    0    0    0  501 -0.00000000000E+00 -0.00000000000E+00 -0.10871803366E+04  0.10871803366E+04  0.00000000000E+00 0. -1.
         23    2    1    2    0    0  0.94197849913E+03 -0.10517102128E+04  0.25995869285E+04  0.29594172684E+04  0.82948809127E+02 0.  0.
         13    1    3    3    0    0  0.68964887411E+03 -0.73344451116E+03  0.17914694718E+04  0.20549742794E+04  0.00000000000E+00 0. -1.
        -13    1    3    3    0    0  0.25232962502E+03 -0.31826570168E+03  0.80811745676E+03  0.90444298905E+03  0.00000000000E+00 0.  1.
         22    1    1    2    0    0 -0.94197849913E+03  0.10517102128E+04 -0.35797209949E+03  0.14565582339E+04  0.00000000000E+00 0.  1.
<mgrwt>
<rscale>  0 0.38047342E+04</rscale>
<asrwt>0</asrwt>
<pdfrwt beam="1">  1        2 0.51212233E+00 0.38047342E+04</pdfrwt>
<pdfrwt beam="2">  1       -2 0.16725851E+00 0.38047342E+04</pdfrwt>
<totfact> 0.19016583E-01</totfact>
</mgrwt>
</event>
<event>
 6    1  0.5026615E-004  0.3262725E+04  0.7818608E-02  0.8172445E-01
         -2   -1    0    0    0  501 -0.00000000000E+00  0.00000000000E+00  0.86089852657E+03  0.86089852657E+03  0.00000000000E+00 0. -1.
          2   -1    0    0  501    0  0.00000000000E+00 -0.00000000000E+00 -0.30913551646E+04  0.30913551646E+04  0.00000000000E+00 0.  1.
         23    2    1    2    0    0 -0.66621542054E+03  0.10022734158E+04 -0.24478666977E+04  0.27292810339E+04  0.92350449583E+02 0.  0.
         11    1    3    3    0    0 -0.50625420532E+03  0.81911509751E+03 -0.19959869888E+04  0.22161243022E+04  0.00000000000E+00 0. -1.
        -11    1    3    3    0    0 -0.15996121522E+03  0.18315831825E+03 -0.45187970892E+03  0.51315673166E+03  0.00000000000E+00 0.  1.
         22    1    1    2    0    0  0.66621542054E+03 -0.10022734158E+04  0.21741005967E+03  0.12229726573E+04  0.00000000000E+00 0. -1.
<mgrwt>
<rscale>  0 0.32627247E+04</rscale>
<asrwt>0</asrwt>
<pdfrwt beam="1">  1        2 0.47559311E+00 0.32627247E+04</pdfrwt>
<pdfrwt beam="2">  1       -2 0.13244592E+00 0.32627247E+04</pdfrwt>
<totfact> 0.52843488E-01</totfact>
</mgrwt>
</event>
<event>
 6    1  0.5026615E-004  0.1558943E+04  0.7818608E-02  0.8846176E-01
          2   -1    0    0  501    0  0.00000000000E+00  0.00000000000E+00  0.73080410817E+03  0.73080410817E+03  0.00000000000E+00 0.  1.
         -2   -1    0    0    0  501 -0.00000000000E+00 -0.00000000000E+00 -0.83137972800E+03  0.83137972800E+03  0.00000000000E+00 0. -1.
         23    2    1    2    0    0 -0.63771137686E+03  0.20647421920E+03 -0.44379560303E+03  0.80911852676E+03  0.91710684731E+02 0.  0.
         13    1    3    3    0    0 -0.12060334411E+03  0.50385847921E+01 -0.95505531216E+02  0.15392160485E+03  0.00000000000E+00 0. -1.
        -13    1    3    3    0    0 -0.51710803276E+03  0.20143563441E+03 -0.34829007182E+03  0.65519692191E+03  0.00000000000E+00 0.  1.
         22    1    1    2    0    0  0.63771137686E+03 -0.20647421920E+03  0.34321998320E+03  0.75306530941E+03  0.00000000000E+00 0.  1.
<mgrwt>
<rscale>  0 0.15589429E+04</rscale>
<asrwt>0</asrwt>
<pdfrwt beam="1">  1        2 0.11243140E+00 0.15589429E+04</pdfrwt>
<pdfrwt beam="2">  1       -2 0.12790457E+00 0.15589429E+04</pdfrwt>
<totfact> 0.16876599E+01</totfact>
</mgrwt>
</event>
<event>
 6    1  0.5026615E-004  0.6884357E+03  0.7818608E-02  0.9737216E-01
          2   -1    0    0  501    0  0.00000000000E+00  0.00000000000E+00  0.64221914617E+03  0.64221914617E+03  0.00000000000E+00 0.  1.
         -2   -1    0    0    0  501 -0.00000000000E+00 -0.00000000000E+00 -0.18449453404E+03  0.18449453404E+03  0.00000000000E+00 0. -1.
         23    2    1    2    0    0 -0.14366175369E+03 -0.95037240280E+02  0.58251263174E+03  0.61401006869E+03  0.89535589575E+02 0.  0.
         13    1    3    3    0    0 -0.13644067156E+03 -0.49854939352E+02  0.39113670635E+03  0.41724033229E+03  0.00000000000E+00 0.  1.
        -13    1    3    3    0    0 -0.72210821320E+01 -0.45182300928E+02  0.19137592539E+03  0.19676973640E+03  0.00000000000E+00 0. -1.
         22    1    1    2    0    0  0.14366175369E+03  0.95037240280E+02 -0.12478801961E+03  0.21270361152E+03  0.00000000000E+00 0. -1.
<mgrwt>
<rscale>  0 0.68843568E+03</rscale>
<asrwt>0</asrwt>
<pdfrwt beam="1">  1        2 0.98802944E-01 0.68843568E+03</pdfrwt>
<pdfrwt beam="2">  1       -2 0.28383775E-01 0.68843568E+03</pdfrwt>
<totfact> 0.52171467E+02</totfact>
</mgrwt>
</event>
<event>
 6    1  0.5026615E-004  0.3172448E+04  0.7818608E-02  0.8196132E-01
          2   -1    0    0  501    0  0.00000000000E+00  0.00000000000E+00  0.21841072376E+04  0.21841072376E+04  0.00000000000E+00 0.  1.
         -2   -1    0    0    0  501 -0.00000000000E+00 -0.00000000000E+00 -0.11520066050E+04  0.11520066050E+04  0.00000000000E+00 0. -1.
         23    2    1    2    0    0 -0.60277072649E+03 -0.14332644799E+04  0.83955905014E+03  0.17693809749E+04  0.90939637949E+02 0.  0.
         11    1    3    3    0    0 -0.30999442460E+03 -0.79720213929E+03  0.50560003585E+03  0.99360917388E+03  0.00000000000E+00 0. -1.
        -11    1    3    3    0    0 -0.29277630189E+03 -0.63606234058E+03  0.33395901428E+03  0.77577180103E+03  0.00000000000E+00 0.  1.
         22    1    1    2    0    0  0.60277072649E+03  0.14332644799E+04  0.19254158246E+03  0.15667328678E+04  0.00000000000E+00 0.  1.
<mgrwt>
<rscale>  0 0.31724476E+04</rscale>
<asrwt>0</asrwt>
<pdfrwt beam="1">  1        2 0.33601650E+00 0.31724476E+04</pdfrwt>
<pdfrwt beam="2">  1       -2 0.17723178E+00 0.31724476E+04</pdfrwt>
<totfact> 0.84321077E-01</totfact>
</mgrwt>
</event>
<event>
 6    1  0.5026615E-004  0.1121519E+04  0.7818608E-02  0.9184468E-01
          2   -1    0    0  501    0  0.00000000000E+00  0.00000000000E+00  0.13823036390E+04  0.13823036390E+04  0.00000000000E+00 0.  1.
         -2   -1    0    0    0  501 -0.00000000000E+00 -0.00000000000E+00 -0.22748351050E+03  0.22748351050E+03  0.00000000000E+00 0. -1.
         23    2    1    2    0    0  0.34613883521E+03 -0.32352257895E+03  0.16088061867E+03  0.50869918684E+03  0.91724243789E+02 0.  0.
         11    1    3    3    0    0  0.19149896561E+03 -0.11964277421E+03  0.59969544611E+02  0.23362917954E+03  0.00000000000E+00 0. -1.
        -11    1    3    3    0    0  0.15463986960E+03 -0.20387980473E+03  0.10091107406E+03  0.27507000730E+03  0.00000000000E+00 0.  1.
         22    1    1    2    0    0 -0.34613883521E+03  0.32352257895E+03  0.99393950981E+03  0.11010879626E+04  0.00000000000E+00 0.  1.
<mgrwt>
<rscale>  0 0.11215191E+04</rscale>
<asrwt>0</asrwt>
<pdfrwt beam="1">  1        2 0.21266209E+00 0.11215191E+04</pdfrwt>
<pdfrwt beam="2">  1       -2 0.34997464E-01 0.11215191E+04</pdfrwt>
<totfact> 0.11244437E+02</totfact>
</mgrwt>
</event>
<event>
 6    1  0.5026615E-004  0.5841515E+04  0.7818608E-02  0.7710368E-01
         -2   -1    0    0    0  501 -0.00000000000E+00  0.00000000000E+00  0.25718799408E+04  0.25718799408E+04  0.00000000000E+00 0. -1.
          2   -1    0    0  501    0  0.00000000000E+00 -0.00000000000E+00 -0.33169611293E+04  0.33169611293E+04  0.00000000000E+00 0.  1.
         23    2    1    2    0    0 -0.57604528320E+03 -0.28174209282E+04  0.13819879452E+03  0.28805404895E+04  0.93411722789E+02 0.  0.
         11    1    3    3    0    0 -0.89044423849E+02 -0.52624900771E+03 -0.58022356613E+01  0.53376080174E+03  0.00000000000E+00 0. -1.
        -11    1    3    3    0    0 -0.48700085936E+03 -0.22911719205E+04  0.14400103018E+03  0.23467796878E+04  0.00000000000E+00 0.  1.
         22    1    1    2    0    0  0.57604528320E+03  0.28174209282E+04 -0.88327998300E+03  0.30083005806E+04  0.00000000000E+00 0.  1.
<mgrwt>
<rscale>  0 0.58415155E+04</rscale>
<asrwt>0</asrwt>
<pdfrwt beam="1">  1        2 0.51030171E+00 0.58415155E+04</pdfrwt>
<pdfrwt beam="2">  1       -2 0.39567384E+00 0.58415155E+04</pdfrwt>
<totfact> 0.58554554E-03</totfact>
</mgrwt>
</event>
<event>
 6    1  0.5026615E-004  0.4444557E+04  0.7818608E-02  0.7920416E-01
          2   -1    0    0  501    0  0.00000000000E+00  0.00000000000E+00  0.50752951045E+04  0.50752951045E+04  0.00000000000E+00 0.  1.
         -2   -1    0    0    0  501 -0.00000000000E+00 -0.00000000000E+00 -0.97305101098E+03  0.97305101098E+03  0.00000000000E+00 0. -1.
         23    2    1    2    0    0 -0.33441991105E+03 -0.21139524319E+04  0.12429434917E+04  0.24767594243E+04  0.93793182218E+02 0.  0.
         11    1    3    3    0    0 -0.15715008687E+03 -0.81262229234E+03  0.52216229759E+03  0.97862383214E+03  0.00000000000E+00 0.  1.
        -11    1    3    3    0    0 -0.17726982418E+03 -0.13013301395E+04  0.72078119409E+03  0.14981355921E+04  0.00000000000E+00 0. -1.
         22    1    1    2    0    0  0.33441991105E+03  0.21139524319E+04  0.28593006019E+04  0.35715866912E+04  0.00000000000E+00 0.  1.
<mgrwt>
<rscale>  0 0.44445567E+04</rscale>
<asrwt>0</asrwt>
<pdfrwt beam="1">  1        2 0.78081461E+00 0.44445567E+04</pdfrwt>
<pdfrwt beam="2">  1       -2 0.14970016E+00 0.44445567E+04</pdfrwt>
<totfact> 0.61894012E-03</totfact>
</mgrwt>
</event>
<event>
 6    1  0.5026615E-004  0.2133616E+04  0.7818608E-02  0.8546578E-01
         -2   -1    0    0    0  501 -0.00000000000E+00  0.00000000000E+00  0.43435842214E+03  0.43435842214E+03  0.00000000000E+00 0. -1.
          2   -1    0    0  501    0  0.00000000000E+00 -0.00000000000E+00 -0.26201397073E+04  0.26201397073E+04  0.00000000000E+00 0.  1.
         23    2    1    2    0    0 -0.10753538495E+03 -0.93431239942E+03 -0.18106237960E+04  0.20419534833E+04  0.81926666284E+02 0.  0.
         11    1    3    3    0    0 -0.10941586592E+03 -0.61115245563E+03 -0.11945352170E+04  0.13462516631E+04  0.00000000000E+00 0.  1.
        -11    1    3    3    0    0  0.18804809662E+01 -0.32315994379E+03 -0.61608857902E+03  0.69570182023E+03  0.00000000000E+00 0. -1.
         22    1    1    2    0    0  0.10753538495E+03  0.93431239942E+03 -0.37515748915E+03  0.10125446461E+04  0.00000000000E+00 0. -1.
<mgrwt>
<rscale>  0 0.21336164E+04</rscale>
<asrwt>0</asrwt>
<pdfrwt beam="1">  1        2 0.40309842E+00 0.21336164E+04</pdfrwt>
<pdfrwt beam="2">  1       -2 0.66824372E-01 0.21336164E+04</pdfrwt>
<totfact> 0.55993934E+00</totfact>
</mgrwt>
</event>
<event>
 6    1  0.5026615E-004  0.6117243E+04  0.7818608E-02  0.7676033E-01
         -2   -1    0    0    0  501 -0.00000000000E+00  0.00000000000E+00  0.26048912880E+04  0.26048912880E+04  0.00000000000E+00 0. -1.
          2   -1    0    0  501    0  0.00000000000E+00 -0.00000000000E+00 -0.35913846660E+04  0.35913846660E+04  0.00000000000E+00 0.  1.
         23    2    1    2    0    0 -0.20768296965E+04 -0.95982985182E+03 -0.25485139360E+04  0.34260046394E+04  0.89942063296E+02 0.  0.
         11    1    3    3    0    0 -0.14492003602E+04 -0.71337989694E+03 -0.18138031387E+04  0.24287804321E+04  0.00000000000E+00 0. -1.
        -11    1    3    3    0    0 -0.62762933628E+03 -0.24644995488E+03 -0.73471079733E+03  0.99722420736E+03  0.00000000000E+00 0.  1.
         22    1    1    2    0    0  0.20768296965E+04  0.95982985182E+03  0.15620205580E+04  0.27702713145E+04  0.00000000000E+00 0. -1.
<mgrwt>
<rscale>  0 0.61172434E+04</rscale>
<asrwt>0</asrwt>
<pdfrwt beam="1">  1        2 0.55252072E+00 0.61172434E+04</pdfrwt>
<pdfrwt beam="2">  1       -2 0.40075251E+00 0.61172434E+04</pdfrwt>
<totfact> 0.34239785E-03</totfact>
</mgrwt>
</event>
<event>
 6    1  0.5026615E-004  0.1196253E+04  0.7818608E-02  0.9116143E-01
          2   -1    0    0  501    0  0.00000000000E+00  0.00000000000E+00  0.51346231828E+03  0.51346231828E+03  0.00000000000E+00 0.  1.
         -2   -1    0    0    0  501 -0.00000000000E+00 -0.00000000000E+00 -0.69675086174E+03  0.69675086174E+03  0.00000000000E+00 0. -1.
         23    2    1    2    0    0 -0.58069382452E+03  0.30760663925E+02 -0.21863873425E+03  0.62763170738E+03  0.89258768243E+02 0.  0.
         13    1    3    3    0    0 -0.17937797811E+03  0.45618578109E+02 -0.47430330486E+02  0.19106844310E+03  0.00000000000E+00 0.  1.
        -13    1    3    3    0    0 -0.40131584641E+03 -0.14857914184E+02 -0.17120840377E+03  0.43656326428E+03  0.00000000000E+00 0. -1.
         22    1    1    2    0    0  0.58069382452E+03 -0.30760663925E+02  0.35350190789E+02  0.58258147264E+03  0.00000000000E+00 0. -1.
<mgrwt>
<rscale>  0 0.11962530E+04</rscale>
<asrwt>0</asrwt>
<pdfrwt beam="1">  1        2 0.78994203E-01 0.11962530E+04</pdfrwt>
<pdfrwt beam="2">  1       -2 0.10719244E+00 0.11962530E+04</pdfrwt>
<totfact> 0.41212337E+01</totfact>
</mgrwt>
</event>
<event>
 6    1  0.5026615E-004  0.2039791E+04  0.7818608E-02  0.8588240E-01
          2   -1    0    0  501    0  0.00000000000E+00  0.00000000000E+00  0.19659540797E+04  0.19659540797E+04  0.00000000000E+00 0.  1.
         -2   -1    0    0    0  501 -0.00000000000E+00 -0.00000000000E+00 -0.52910002682E+03  0.52910002682E+03  0.00000000000E+00 0. -1.
         23    2    1    2    0    0 -0.74299935284E+02 -0.76962615633E+03  0.15294153658E+04  0.17163291888E+04  0.93966069998E+02 0.  0.
         11    1    3    3    0    0  0.14359614397E+02 -0.26375320231E+03  0.47571289113E+03  0.54412747132E+03  0.00000000000E+00 0. -1.
        -11    1    3    3    0    0 -0.88659549681E+02 -0.50587295402E+03  0.10537024746E+04  0.11722017175E+04  0.00000000000E+00 0.  1.
         22    1    1    2    0    0  0.74299935284E+02  0.76962615633E+03 -0.92561312869E+02  0.77872491776E+03  0.00000000000E+00 0. -1.
<mgrwt>
<rscale>  0 0.20397905E+04</rscale>
<asrwt>0</asrwt>
<pdfrwt beam="1">  1        2 0.30245447E+00 0.20397905E+04</pdfrwt>
<pdfrwt beam="2">  1       -2 0.81400005E-01 0.20397905E+04</pdfrwt>
<totfact> 0.85903398E+00</totfact>
</mgrwt>
</event>
<event>
 6    1  0.5026615E-004  0.1944903E+04  0.7818608E-02  0.8632823E-01
          2   -1    0    0  501    0  0.00000000000E+00  0.00000000000E+00  0.16585417954E+04  0.16585417954E+04  0.00000000000E+00 0.  1.
         -2   -1    0    0    0  501 -0.00000000000E+00 -0.00000000000E+00 -0.57017649614E+03  0.57017649614E+03  0.00000000000E+00 0. -1.
         23    2    1    2    0    0  0.71388660643E+03  0.47557719180E+03  0.25462299572E+02  0.86285938999E+03  0.89834547879E+02 0.  0.
         13    1    3    3    0    0  0.30766496343E+03  0.25551328755E+03  0.27215575996E+02  0.40085590605E+03  0.00000000000E+00 0. -1.
        -13    1    3    3    0    0  0.40622164300E+03  0.22006390425E+03 -0.17532764233E+01  0.46200348395E+03  0.00000000000E+00 0.  1.
         22    1    1    2    0    0 -0.71388660643E+03 -0.47557719180E+03  0.10629029997E+04  0.13658589016E+04  0.00000000000E+00 0.  1.
<mgrwt>
<rscale>  0 0.19449026E+04</rscale>
<asrwt>0</asrwt>
<pdfrwt beam="1">  1        2 0.25516027E+00 0.19449026E+04</pdfrwt>
<pdfrwt beam="2">  1       -2 0.87719462E-01 0.19449026E+04</pdfrwt>
<totfact> 0.10821028E+01</totfact>
</mgrwt>
</event>
<event>
 6    1  0.5026615E-004  0.1520425E+04  0.7818608E-02  0.8870983E-01
         -2   -1    0    0    0  501 -0.00000000000E+00  0.00000000000E+00  0.29841054697E+03  0.29841054697E+03  0.00000000000E+00 0. -1.
          2   -1    0    0  501    0  0.00000000000E+00 -0.00000000000E+00 -0.19366705644E+04  0.19366705644E+04  0.00000000000E+00 0.  1.
         23    2    1    2    0    0  0.42549996517E+03  0.46293587009E+03 -0.14417406687E+04  0.15763097591E+04  0.10380973347E+03 0.  0.
         13    1    3    3    0    0  0.33332749301E+03  0.38006458959E+03 -0.12457453269E+04  0.13444098070E+04  0.00000000000E+00 0. -1.
        -13    1    3    3    0    0  0.92172472165E+02  0.82871280499E+02 -0.19599534178E+03  0.23189995204E+03  0.00000000000E+00 0.  1.
         22    1    1    2    0    0 -0.42549996517E+03 -0.46293587009E+03 -0.19651934882E+03  0.65877135232E+03  0.00000000000E+00 0. -1.
<mgrwt>
<rscale>  0 0.15204248E+04</rscale>
<asrwt>0</asrwt>
<pdfrwt beam="1">  1        2 0.29794932E+00 0.15204248E+04</pdfrwt>
<pdfrwt beam="2">  1       -2 0.45909315E-01 0.15204248E+04</pdfrwt>
<totfact> 0.31452704E+01</totfact>
</mgrwt>
</event>
<event>
 6    1  0.5026615E-004  0.1251398E+04  0.7818608E-02  0.9069021E-01
          2   -1    0    0  501    0  0.00000000000E+00  0.00000000000E+00  0.11601646816E+04  0.11601646816E+04  0.00000000000E+00 0.  1.
         -2   -1    0    0    0  501 -0.00000000000E+00 -0.00000000000E+00 -0.33745142156E+03  0.33745142156E+03  0.00000000000E+00 0. -1.
         23    2    1    2    0    0 -0.49905820534E+03 -0.33500835555E+02  0.85629904620E+03  0.99630840993E+03  0.95921806036E+02 0.  0.
         11    1    3    3    0    0 -0.37311812724E+03 -0.23852035950E+02  0.55059410604E+03  0.66553732134E+03  0.00000000000E+00 0. -1.
        -11    1    3    3    0    0 -0.12594007809E+03 -0.96487996050E+01  0.30570494016E+03  0.33077108859E+03  0.00000000000E+00 0.  1.
         22    1    1    2    0    0  0.49905820534E+03  0.33500835555E+02 -0.33585786128E+02  0.50130769327E+03  0.00000000000E+00 0. -1.
<mgrwt>
<rscale>  0 0.12513980E+04</rscale>
<asrwt>0</asrwt>
<pdfrwt beam="1">  1        2 0.17848687E+00 0.12513980E+04</pdfrwt>
<pdfrwt beam="2">  1       -2 0.51915604E-01 0.12513980E+04</pdfrwt>
<totfact> 0.68949539E+01</totfact>
</mgrwt>
</event>
<event>
 6    1  0.5026615E-004  0.1334575E+04  0.7818608E-02  0.9002588E-01
          1   -1    0    0  501    0  0.00000000000E+00  0.00000000000E+00  0.43673017706E+03  0.43673017706E+03  0.00000000000E+00 0.  1.
         -1   -1    0    0    0  501 -0.00000000000E+00 -0.00000000000E+00 -0.10195595640E+04  0.10195595640E+04  0.00000000000E+00 0. -1.
         23    2    1    2    0    0  0.48292447977E+03  0.17410769087E+03  0.16697958299E+03  0.54758570091E+03  0.91860641876E+02 0.  0.
         11    1    3    3    0    0  0.41497570537E+02  0.18119020845E+02  0.44867887462E+02  0.63745388870E+02  0.00000000000E+00 0. -1.
        -11    1    3    3    0    0  0.44142690924E+03  0.15598867002E+03  0.12211169552E+03  0.48384031204E+03  0.00000000000E+00 0.  1.
         22    1    1    2    0    0 -0.48292447977E+03 -0.17410769087E+03 -0.74980896992E+03  0.90870404014E+03  0.00000000000E+00 0. -1.
<mgrwt>
<rscale>  0 0.13345747E+04</rscale>
<asrwt>0</asrwt>
<pdfrwt beam="1">  1        1 0.67189259E-01 0.13345747E+04</pdfrwt>
<pdfrwt beam="2">  1       -1 0.15685532E+00 0.13345747E+04</pdfrwt>
<totfact> 0.16137347E+01</totfact>
</mgrwt>
</event>
<event>
 6    1  0.5026615E-004  0.4187869E+04  0.7818608E-02  0.7967684E-01
         -2   -1    0    0    0  501 -0.00000000000E+00  0.00000000000E+00  0.10837232433E+04  0.10837232433E+04  0.00000000000E+00 0. -1.
          2   -1    0    0  501    0  0.00000000000E+00 -0.00000000000E+00 -0.40458310425E+04  0.40458310425E+04  0.00000000000E+00 0.  1.
         23    2    1    2    0    0 -0.60608873764E+02 -0.57054306094E+03 -0.39471038991E+04  0.39896375622E+04  0.91574379607E+02 0.  0.
         11    1    3    3    0    0 -0.58904267022E+00 -0.40231343758E+03 -0.27016804944E+04  0.27314710217E+04  0.00000000000E+00 0. -1.
        -11    1    3    3    0    0 -0.60019831094E+02 -0.16822962336E+03 -0.12454234048E+04  0.12581665404E+04  0.00000000000E+00 0.  1.
         22    1    1    2    0    0  0.60608873764E+02  0.57054306094E+03  0.98499609989E+03  0.11399167236E+04  0.00000000000E+00 0. -1.
<mgrwt>
<rscale>  0 0.41878687E+04</rscale>
<asrwt>0</asrwt>
<pdfrwt beam="1">  1        2 0.62243554E+00 0.41878687E+04</pdfrwt>
<pdfrwt beam="2">  1       -2 0.16672665E+00 0.41878687E+04</pdfrwt>
<totfact> 0.54637580E-02</totfact>
</mgrwt>
</event>
<event>
 6    1  0.5026615E-004  0.2594139E+04  0.7818608E-02  0.8370195E-01
         -2   -1    0    0    0  501 -0.00000000000E+00  0.00000000000E+00  0.39061276391E+03  0.39061276391E+03  0.00000000000E+00 0. -1.
          2   -1    0    0  501    0  0.00000000000E+00 -0.00000000000E+00 -0.43070525818E+04  0.43070525818E+04  0.00000000000E+00 0.  1.
         23    2    1    2    0    0  0.77087076523E+03  0.71931658960E+03 -0.59818035031E+03  0.12159267015E+04  0.94867903168E+02 0.  0.
         11    1    3    3    0    0  0.35068212777E+03  0.36911881452E+03 -0.32998072008E+03  0.60672393195E+03  0.00000000000E+00 0. -1.
        -11    1    3    3    0    0  0.42018863746E+03  0.35019777508E+03 -0.26819963022E+03  0.60920276951E+03  0.00000000000E+00 0.  1.
         22    1    1    2    0    0 -0.77087076523E+03 -0.71931658960E+03 -0.33182594676E+04  0.34817386443E+04  0.00000000000E+00 0. -1.
<mgrwt>
<rscale>  0 0.25941393E+04</rscale>
<asrwt>0</asrwt>
<pdfrwt beam="1">  1        2 0.66262347E+00 0.25941393E+04</pdfrwt>
<pdfrwt beam="2">  1       -2 0.60094272E-01 0.25941393E+04</pdfrwt>
<totfact> 0.42854762E-01</totfact>
</mgrwt>
</event>
<event>
 6    1  0.5026615E-004  0.1975299E+04  0.7818608E-02  0.8618257E-01
          2   -1    0    0  501    0  0.00000000000E+00  0.00000000000E+00  0.10827515217E+04  0.10827515217E+04  0.00000000000E+00 0.  1.
         -2   -1    0    0    0  501 -0.00000000000E+00 -0.00000000000E+00 -0.90090059014E+03  0.90090059014E+03  0.00000000000E+00 0. -1.
         23    2    1    2    0    0 -0.15878212481E+03  0.97193561851E+03  0.12889633611E+03  0.99740934309E+03  0.91326461284E+02 0.  0.
         11    1    3    3    0    0 -0.11501267088E+03  0.48612038498E+03  0.94625529420E+02  0.50842397069E+03  0.00000000000E+00 0. -1.
        -11    1    3    3    0    0 -0.43769453928E+02  0.48581523353E+03  0.34270806692E+02  0.48898537239E+03  0.00000000000E+00 0.  1.
         22    1    1    2    0    0  0.15878212481E+03 -0.97193561851E+03  0.52954595432E+02  0.98624276873E+03  0.00000000000E+00 0.  1.
<mgrwt>
<rscale>  0 0.19752989E+04</rscale>
<asrwt>0</asrwt>
<pdfrwt beam="1">  1        2 0.16657716E+00 0.19752989E+04</pdfrwt>
<pdfrwt beam="2">  1       -2 0.13860009E+00 0.19752989E+04</pdfrwt>
<totfact> 0.76634095E+00</totfact>
</mgrwt>
</event>
<event>
 6    1  0.5026615E-004  0.2340746E+04  0.7818608E-02  0.8462027E-01
         -2   -1    0    0    0  501 -0.00000000000E+00  0.00000000000E+00  0.11761252027E+04  0.11761252027E+04  0.00000000000E+00 0. -1.
          2   -1    0    0  501    0  0.00000000000E+00 -0.00000000000E+00 -0.11646485176E+04  0.11646485176E+04  0.00000000000E+00 0.  1.
         23    2    1    2    0    0  0.86281575660E+02  0.64196278955E+03  0.97845476794E+03  0.11768977191E+04  0.90298254482E+02 0.  0.
         13    1    3    3    0    0  0.94117278866E+01  0.12141802545E+03  0.12685810986E+03  0.17585191942E+03  0.00000000000E+00 0.  1.
        -13    1    3    3    0    0  0.76869847773E+02  0.52054476410E+03  0.85159665808E+03  0.10010457996E+04  0.00000000000E+00 0. -1.
         22    1    1    2    0    0 -0.86281575660E+02 -0.64196278955E+03 -0.96697808290E+03  0.11638760012E+04  0.00000000000E+00 0.  1.
<mgrwt>
<rscale>  0 0.23407456E+04</rscale>
<asrwt>0</asrwt>
<pdfrwt beam="1">  1        2 0.17917670E+00 0.23407456E+04</pdfrwt>
<pdfrwt beam="2">  1       -2 0.18094234E+00 0.23407456E+04</pdfrwt>
<totfact> 0.32106193E+00</totfact>
</mgrwt>
</event>
<event>
 6    1  0.5026615E-004  0.2838942E+04  0.7818608E-02  0.8291279E-01
          2   -1    0    0  501    0  0.00000000000E+00  0.00000000000E+00  0.22163548971E+04  0.22163548971E+04  0.00000000000E+00 0.  1.
         -2   -1    0    0    0  501 -0.00000000000E+00 -0.00000000000E+00 -0.90910436995E+03  0.90910436995E+03  0.00000000000E+00 0. -1.
         23    2    1    2    0    0 -0.36906003031E+03 -0.74838164832E+03 -0.60786837451E+03  0.10364497398E+04  0.91889634027E+02 0.  0.
         11    1    3    3    0    0 -0.17691383756E+03 -0.34420786171E+03 -0.22613719671E+03  0.44823608703E+03  0.00000000000E+00 0. -1.
        -11    1    3    3    0    0 -0.19214619275E+03 -0.40417378661E+03 -0.38173117779E+03  0.58821365274E+03  0.00000000000E+00 0.  1.
         22    1    1    2    0    0  0.36906003031E+03  0.74838164832E+03  0.19151189016E+04  0.20890095273E+04  0.00000000000E+00 0.  1.
<mgrwt>
<rscale>  0 0.28389420E+04</rscale>
<asrwt>0</asrwt>
<pdfrwt beam="1">  1        2 0.34097768E+00 0.28389420E+04</pdfrwt>
<pdfrwt beam="2">  1       -2 0.13986221E+00 0.28389420E+04</pdfrwt>
<totfact> 0.15788848E+00</totfact>
</mgrwt>
</event>
<event>
 6    1  0.5026615E-004  0.2730554E+04  0.7818608E-02  0.8325159E-01
         -2   -1    0    0    0  501 -0.00000000000E+00  0.00000000000E+00  0.13307816800E+04  0.13307816800E+04  0.00000000000E+00 0. -1.
          2   -1    0    0  501    0  0.00000000000E+00 -0.00000000000E+00 -0.14006666169E+04  0.14006666169E+04  0.00000000000E+00 0.  1.
         23    2    1    2    0    0  0.10275933627E+04 -0.79837744882E+03 -0.44231924214E+03  0.13779114553E+04  0.98178392949E+02 0.  0.
         11    1    3    3    0    0  0.73667093712E+03 -0.62539636515E+03 -0.33779341479E+03  0.10236743008E+04  0.00000000000E+00 0. -1.
        -11    1    3    3    0    0  0.29092242560E+03 -0.17298108367E+03 -0.10452582734E+03  0.35423715447E+03  0.00000000000E+00 0.  1.
         22    1    1    2    0    0 -0.10275933627E+04  0.79837744882E+03  0.37243430529E+03  0.13535368416E+04  0.00000000000E+00 0. -1.
<mgrwt>
<rscale>  0 0.27305541E+04</rscale>
<asrwt>0</asrwt>
<pdfrwt beam="1">  1        2 0.21548717E+00 0.27305541E+04</pdfrwt>
<pdfrwt beam="2">  1       -2 0.20473564E+00 0.27305541E+04</pdfrwt>
<totfact> 0.15670923E+00</totfact>
</mgrwt>
</event>
<event>
 6    1  0.5026615E-004  0.1518443E+04  0.7818608E-02  0.8872280E-01
         -2   -1    0    0    0  501 -0.00000000000E+00  0.00000000000E+00  0.36656052626E+03  0.36656052626E+03  0.00000000000E+00 0. -1.
          2   -1    0    0  501    0  0.00000000000E+00 -0.00000000000E+00 -0.15725021662E+04  0.15725021662E+04  0.00000000000E+00 0.  1.
         23    2    1    2    0    0  0.57411998632E+03  0.67993780311E+02  0.18064123948E+02  0.58539101037E+03  0.90107766536E+02 0.  0.
         13    1    3    3    0    0  0.23679319594E+03 -0.14735645980E+02 -0.49858086472E+01  0.23730363502E+03  0.00000000000E+00 0. -1.
        -13    1    3    3    0    0  0.33732679038E+03  0.82729426290E+02  0.23049932596E+02  0.34808737535E+03  0.00000000000E+00 0.  1.
         22    1    1    2    0    0 -0.57411998632E+03 -0.67993780311E+02 -0.12240057639E+04  0.13536716821E+04  0.00000000000E+00 0.  1.
<mgrwt>
<rscale>  0 0.15184429E+04</rscale>
<asrwt>0</asrwt>
<pdfrwt beam="1">  1        2 0.24192341E+00 0.15184429E+04</pdfrwt>
<pdfrwt beam="2">  1       -2 0.56393928E-01 0.15184429E+04</pdfrwt>
<totfact> 0.32892187E+01</totfact>
</mgrwt>
</event>
<event>
 6    1  0.5026615E-004  0.1785057E+04  0.7818608E-02  0.8714287E-01
          2   -1    0    0  501    0  0.00000000000E+00  0.00000000000E+00  0.24374239107E+04  0.24374239107E+04  0.00000000000E+00 0.  1.
         -2   -1    0    0    0  501 -0.00000000000E+00 -0.00000000000E+00 -0.32682336922E+03  0.32682336922E+03  0.00000000000E+00 0. -1.
         23    2    1    2    0    0 -0.35327649447E+03  0.16533051401E+03 -0.18075000099E+03  0.43993538845E+03  0.93456528621E+02 0.  0.
         13    1    3    3    0    0 -0.23206936804E+03  0.10554283155E+03 -0.67807520639E+02  0.26380549791E+03  0.00000000000E+00 0. -1.
        -13    1    3    3    0    0 -0.12120712643E+03  0.59787682461E+02 -0.11294248035E+03  0.17612989053E+03  0.00000000000E+00 0.  1.
         22    1    1    2    0    0  0.35327649447E+03 -0.16533051401E+03  0.22913505424E+04  0.23243118914E+04  0.00000000000E+00 0.  1.
<mgrwt>
<rscale>  0 0.17850570E+04</rscale>
<asrwt>0</asrwt>
<pdfrwt beam="1">  1        2 0.37498828E+00 0.17850570E+04</pdfrwt>
<pdfrwt beam="2">  1       -2 0.50280520E-01 0.17850570E+04</pdfrwt>
<totfact> 0.13392312E+01</totfact>
</mgrwt>
</event>
<event>
 6    1  0.5026615E-004  0.3161013E+04  0.7818608E-02  0.8199190E-01
          2   -1    0    0  501    0  0.00000000000E+00  0.00000000000E+00  0.38169266582E+04  0.38169266582E+04  0.00000000000E+00 0.  1.
         -2   -1    0    0    0  501 -0.00000000000E+00 -0.00000000000E+00 -0.65445342954E+03  0.65445342954E+03  0.00000000000E+00 0. -1.
         23    2    1    2    0    0  0.44570846877E+03 -0.38849971355E+03  0.36538897605E+04  0.37025639365E+04  0.92093731879E+02 0.  0.
         13    1    3    3    0    0  0.38122688396E+03 -0.28319023787E+03  0.28933485466E+04  0.29320635157E+04  0.00000000000E+00 0. -1.
        -13    1    3    3    0    0  0.64481584812E+02 -0.10530947567E+03  0.76054121390E+03  0.77050042082E+03  0.00000000000E+00 0.  1.
         22    1    1    2    0    0 -0.44570846877E+03  0.38849971355E+03 -0.49141653187E+03  0.76881615120E+03  0.00000000000E+00 0. -1.
<mgrwt>
<rscale>  0 0.31610130E+04</rscale>
<asrwt>0</asrwt>
<pdfrwt beam="1">  1        2 0.58721947E+00 0.31610130E+04</pdfrwt>
<pdfrwt beam="2">  1       -2 0.10068515E+00 0.31610130E+04</pdfrwt>
<totfact> 0.32684413E-01</totfact>
</mgrwt>
</event>
<event>
 6    1  0.5026615E-004  0.2279075E+04  0.7818608E-02  0.8486217E-01
          2   -1    0    0  501    0  0.00000000000E+00  0.00000000000E+00  0.19667113325E+04  0.19667113325E+04  0.00000000000E+00 0.  1.
         -2   -1    0    0    0  501 -0.00000000000E+00 -0.00000000000E+00 -0.66026269025E+03  0.66026269025E+03  0.00000000000E+00 0. -1.
         23    2    1    2    0    0  0.24841564737E+03  0.97972767012E+03  0.12561499006E+04  0.16149924987E+04  0.93335720463E+02 0.  0.
         13    1    3    3    0    0  0.11676116369E+03  0.30450667065E+03  0.37143533932E+03  0.49428907849E+03  0.00000000000E+00 0. -1.
        -13    1    3    3    0    0  0.13165448368E+03  0.67522099947E+03  0.88471456130E+03  0.11207034203E+04  0.00000000000E+00 0.  1.
         22    1    1    2    0    0 -0.24841564737E+03 -0.97972767012E+03  0.50298741610E+02  0.10119815240E+04  0.00000000000E+00 0. -1.
<mgrwt>
<rscale>  0 0.22790754E+04</rscale>
<asrwt>0</asrwt>
<pdfrwt beam="1">  1        2 0.30257097E+00 0.22790754E+04</pdfrwt>
<pdfrwt beam="2">  1       -2 0.10157888E+00 0.22790754E+04</pdfrwt>
<totfact> 0.50384874E+00</totfact>
</mgrwt>
</event>
<event>
 6    1  0.5026615E-004  0.2480733E+04  0.7818608E-02  0.8409882E-01
         -2   -1    0    0    0  501 -0.00000000000E+00  0.00000000000E+00  0.12966973022E+04  0.12966973022E+04  0.00000000000E+00 0. -1.
          2   -1    0    0  501    0  0.00000000000E+00 -0.00000000000E+00 -0.11864831947E+04  0.11864831947E+04  0.00000000000E+00 0.  1.
         23    2    1    2    0    0 -0.89630224353E+03 -0.82087605016E+03 -0.18507868162E+03  0.12324235130E+04  0.86130108466E+02 0.  0.
         13    1    3    3    0    0 -0.65699330064E+03 -0.63838237675E+03 -0.16497133922E+03  0.93079954813E+03  0.00000000000E+00 0. -1.
        -13    1    3    3    0    0 -0.23930894289E+03 -0.18249367341E+03 -0.20107342397E+02  0.30162396490E+03  0.00000000000E+00 0.  1.
         22    1    1    2    0    0  0.89630224353E+03  0.82087605016E+03  0.29529278915E+03  0.12507569839E+04  0.00000000000E+00 0. -1.
<mgrwt>
<rscale>  0 0.24807334E+04</rscale>
<asrwt>0</asrwt>
<pdfrwt beam="1">  1        2 0.18253588E+00 0.24807334E+04</pdfrwt>
<pdfrwt beam="2">  1       -2 0.19949189E+00 0.24807334E+04</pdfrwt>
<totfact> 0.23103338E+00</totfact>
</mgrwt>
</event>
<event>
 6    1  0.5026615E-004  0.2941076E+04  0.7818608E-02  0.8260760E-01
          2   -1    0    0  501    0  0.00000000000E+00  0.00000000000E+00  0.26116146312E+04  0.26116146312E+04  0.00000000000E+00 0.  1.
         -2   -1    0    0    0  501 -0.00000000000E+00 -0.00000000000E+00 -0.82802493247E+03  0.82802493247E+03  0.00000000000E+00 0. -1.
         23    2    1    2    0    0  0.89610382174E+03  0.10976707556E+04  0.13462332365E+04  0.19566817686E+04  0.91523053129E+02 0.  0.
         11    1    3    3    0    0  0.58175288862E+03  0.75224449725E+03  0.85401370862E+03  0.12781422540E+04  0.00000000000E+00 0.  1.
        -11    1    3    3    0    0  0.31435093312E+03  0.34542625837E+03  0.49221952790E+03  0.67853951452E+03  0.00000000000E+00 0. -1.
         22    1    1    2    0    0 -0.89610382174E+03 -0.10976707556E+04  0.43735646224E+03  0.14829577951E+04  0.00000000000E+00 0.  1.
<mgrwt>
<rscale>  0 0.29410760E+04</rscale>
<asrwt>0</asrwt>
<pdfrwt beam="1">  1        2 0.40178686E+00 0.29410760E+04</pdfrwt>
<pdfrwt beam="2">  1       -2 0.12738845E+00 0.29410760E+04</pdfrwt>
<totfact> 0.11776931E+00</totfact>
</mgrwt>
</event>
<event>
 6    1  0.5026615E-004  0.1589459E+04  0.7818608E-02  0.8827050E-01
         -2   -1    0    0    0  501 -0.00000000000E+00  0.00000000000E+00  0.28521489444E+03  0.28521489444E+03  0.00000000000E+00 0. -1.
          2   -1    0    0  501    0  0.00000000000E+00 -0.00000000000E+00 -0.22144522868E+04  0.22144522868E+04  0.00000000000E+00 0.  1.
         23    2    1    2    0    0 -0.52736414080E+02 -0.44263293548E+03 -0.19975866048E+04  0.20486941667E+04  0.89947206717E+02 0.  0.
         13    1    3    3    0    0  0.23668244453E+02 -0.75116581608E+02 -0.38860364901E+03  0.39650407646E+03  0.00000000000E+00 0. -1.
        -13    1    3    3    0    0 -0.76404658533E+02 -0.36751635388E+03 -0.16089829558E+04  0.16521900903E+04  0.00000000000E+00 0.  1.
         22    1    1    2    0    0  0.52736414080E+02  0.44263293548E+03  0.68349212512E+02  0.45097301449E+03  0.00000000000E+00 0. -1.
<mgrwt>
<rscale>  0 0.15894587E+04</rscale>
<asrwt>0</asrwt>
<pdfrwt beam="1">  1        2 0.34068495E+00 0.15894587E+04</pdfrwt>
<pdfrwt beam="2">  1       -2 0.43879217E-01 0.15894587E+04</pdfrwt>
<totfact> 0.23975392E+01</totfact>
</mgrwt>
</event>
<event>
 6    1  0.5026615E-004  0.4334036E+04  0.7818608E-02  0.7940354E-01
          2   -1    0    0  501    0  0.00000000000E+00  0.00000000000E+00  0.20063039990E+04  0.20063039990E+04  0.00000000000E+00 0.  1.
         -2   -1    0    0    0  501 -0.00000000000E+00 -0.00000000000E+00 -0.23406060487E+04  0.23406060487E+04  0.00000000000E+00 0. -1.
         23    2    1    2    0    0  0.19954411606E+04  0.53219241844E+03  0.48799091899E+03  0.21240335504E+04  0.91483280439E+02 0.  0.
         11    1    3    3    0    0  0.14102698230E+04  0.36221299503E+03  0.30325295608E+03  0.14872866512E+04  0.00000000000E+00 0.  1.
        -11    1    3    3    0    0  0.58517133762E+03  0.16997942341E+03  0.18473796291E+03  0.63674689924E+03  0.00000000000E+00 0. -1.
         22    1    1    2    0    0 -0.19954411606E+04 -0.53219241844E+03 -0.82229296872E+03  0.22228764973E+04  0.00000000000E+00 0. -1.
<mgrwt>
<rscale>  0 0.43340361E+04</rscale>
<asrwt>0</asrwt>
<pdfrwt beam="1">  1        2 0.30866216E+00 0.43340361E+04</pdfrwt>
<pdfrwt beam="2">  1       -2 0.36009324E+00 0.43340361E+04</pdfrwt>
<totfact> 0.68337883E-02</totfact>
</mgrwt>
</event>
<event>
 6    1  0.5026615E-004  0.2007417E+04  0.7818608E-02  0.8603161E-01
          2   -1    0    0  501    0  0.00000000000E+00  0.00000000000E+00  0.13480208836E+04  0.13480208836E+04  0.00000000000E+00 0.  1.
         -2   -1    0    0    0  501 -0.00000000000E+00 -0.00000000000E+00 -0.74734087210E+03  0.74734087210E+03  0.00000000000E+00 0. -1.
         23    2    1    2    0    0  0.40536372571E+03  0.89118469788E+03  0.80234502518E+02  0.98658159549E+03  0.91519141747E+02 0.  0.
         11    1    3    3    0    0  0.12249295292E+03  0.36239904163E+03  0.87150170075E+01  0.38264022320E+03  0.00000000000E+00 0.  1.
        -11    1    3    3    0    0  0.28287077279E+03  0.52878565625E+03  0.71519485511E+02  0.60394137229E+03  0.00000000000E+00 0. -1.
         22    1    1    2    0    0 -0.40536372571E+03 -0.89118469788E+03  0.52044550897E+03  0.11087801602E+04  0.00000000000E+00 0.  1.
<mgrwt>
<rscale>  0 0.20074173E+04</rscale>
<asrwt>0</asrwt>
<pdfrwt beam="1">  1        2 0.20738783E+00 0.20074173E+04</pdfrwt>
<pdfrwt beam="2">  1       -2 0.11497552E+00 0.20074173E+04</pdfrwt>
<totfact> 0.84935200E+00</totfact>
</mgrwt>
</event>
<event>
 6    1  0.5026615E-004  0.2422357E+04  0.7818608E-02  0.8431180E-01
          2   -1    0    0  501    0  0.00000000000E+00  0.00000000000E+00  0.24701570217E+04  0.24701570217E+04  0.00000000000E+00 0. -1.
         -2   -1    0    0    0  501 -0.00000000000E+00 -0.00000000000E+00 -0.59387069084E+03  0.59387069084E+03  0.00000000000E+00 0.  1.
         23    2    1    2    0    0 -0.12076022014E+04 -0.55237540781E+02  0.98795247088E+03  0.15638639516E+04  0.90918158709E+02 0.  0.
         13    1    3    3    0    0 -0.86241857219E+03 -0.73218233676E+02  0.67544653532E+03  0.10978864811E+04  0.00000000000E+00 0. -1.
        -13    1    3    3    0    0 -0.34518362923E+03  0.17980692894E+02  0.31250593556E+03  0.46597747045E+03  0.00000000000E+00 0.  1.
         22    1    1    2    0    0  0.12076022014E+04  0.55237540781E+02  0.88833385997E+03  0.15001637609E+04  0.00000000000E+00 0.  1.
<mgrwt>
<rscale>  0 0.24223574E+04</rscale>
<asrwt>0</asrwt>
<pdfrwt beam="1">  1        2 0.38002415E+00 0.24223574E+04</pdfrwt>
<pdfrwt beam="2">  1       -2 0.91364723E-01 0.24223574E+04</pdfrwt>
<totfact> 0.33181117E+00</totfact>
</mgrwt>
</event>
<event>
 6    1  0.5026615E-004  0.2444205E+04  0.7818608E-02  0.8423137E-01
         -2   -1    0    0    0  501 -0.00000000000E+00  0.00000000000E+00  0.67914276837E+03  0.67914276837E+03  0.00000000000E+00 0. -1.
          2   -1    0    0  501    0  0.00000000000E+00 -0.00000000000E+00 -0.21991468412E+04  0.21991468412E+04  0.00000000000E+00 0.  1.
         23    2    1    2    0    0  0.61340498453E+03  0.10454263480E+04 -0.93064263425E+03  0.15305029687E+04  0.84626830031E+02 0.  0.
         11    1    3    3    0    0  0.31111799094E+03  0.44748299573E+03 -0.42271367995E+03  0.68972624350E+03  0.00000000000E+00 0.  1.
        -11    1    3    3    0    0  0.30228699359E+03  0.59794335222E+03 -0.50792895430E+03  0.84077672517E+03  0.00000000000E+00 0. -1.
         22    1    1    2    0    0 -0.61340498453E+03 -0.10454263480E+04 -0.58936143853E+03  0.13477866409E+04  0.00000000000E+00 0.  1.
<mgrwt>
<rscale>  0 0.24442051E+04</rscale>
<asrwt>0</asrwt>
<pdfrwt beam="1">  1        2 0.33833029E+00 0.24442051E+04</pdfrwt>
<pdfrwt beam="2">  1       -2 0.10448350E+00 0.24442051E+04</pdfrwt>
<totfact> 0.34448724E+00</totfact>
</mgrwt>
</event>
<event>
 6    1  0.5026615E-004  0.2973441E+04  0.7818608E-02  0.8251356E-01
          2   -1    0    0  501    0  0.00000000000E+00  0.00000000000E+00  0.17440345699E+04  0.17440345699E+04  0.00000000000E+00 0. -1.
         -2   -1    0    0    0  501 -0.00000000000E+00 -0.00000000000E+00 -0.12673703256E+04  0.12673703256E+04  0.00000000000E+00 0.  1.
         23    2    1    2    0    0 -0.14830080112E+04  0.84235072400E+02  0.24548946623E+03  0.15081251188E+04  0.88136185547E+02 0.  0.
         11    1    3    3    0    0 -0.30794647717E+03 -0.10959127840E+02  0.29020932281E+02  0.30950500770E+03  0.00000000000E+00 0.  1.
        -11    1    3    3    0    0 -0.11750615341E+04  0.95194200240E+02  0.21646853395E+03  0.11986201111E+04  0.00000000000E+00 0. -1.
         22    1    1    2    0    0  0.14830080112E+04 -0.84235072400E+02  0.23117477810E+03  0.15032797766E+04  0.00000000000E+00 0.  1.
<mgrwt>
<rscale>  0 0.29734409E+04</rscale>
<asrwt>0</asrwt>
<pdfrwt beam="1">  1        2 0.26831301E+00 0.29734409E+04</pdfrwt>
<pdfrwt beam="2">  1       -2 0.19498005E+00 0.29734409E+04</pdfrwt>
<totfact> 0.11417179E+00</totfact>
</mgrwt>
</event>
<event>
 6    1  0.5026615E-004  0.2414729E+04  0.7818608E-02  0.8434010E-01
          2   -1    0    0  501    0  0.00000000000E+00  0.00000000000E+00  0.24271647612E+04  0.24271647612E+04  0.00000000000E+00 0.  1.
         -2   -1    0    0    0  501 -0.00000000000E+00 -0.00000000000E+00 -0.60058921696E+03  0.60058921696E+03  0.00000000000E+00 0. -1.
         23    2    1    2    0    0 -0.10937875822E+04 -0.30335174719E+03  0.14241093199E+04  0.18234398084E+04  0.91933793697E+02 0.  0.
         11    1    3    3    0    0 -0.38704632459E+03 -0.62483130834E+02  0.50022103584E+03  0.63555494154E+03  0.00000000000E+00 0. -1.
        -11    1    3    3    0    0 -0.70674125765E+03 -0.24086861636E+03  0.92388828406E+03  0.11878848669E+04  0.00000000000E+00 0.  1.
         22    1    1    2    0    0  0.10937875822E+04  0.30335174719E+03  0.40246622432E+03  0.12043141697E+04  0.00000000000E+00 0. -1.
<mgrwt>
<rscale>  0 0.24147290E+04</rscale>
<asrwt>0</asrwt>
<pdfrwt beam="1">  1        2 0.37340996E+00 0.24147290E+04</pdfrwt>
<pdfrwt beam="2">  1       -2 0.92398343E-01 0.24147290E+04</pdfrwt>
<totfact> 0.34246067E+00</totfact>
</mgrwt>
</event>
<event>
 6    1  0.5026615E-004  0.3074598E+04  0.7818608E-02  0.8222744E-01
         -2   -1    0    0    0  501 -0.00000000000E+00  0.00000000000E+00  0.74196740645E+03  0.74196740645E+03  0.00000000000E+00 0.  1.
          2   -1    0    0  501    0  0.00000000000E+00 -0.00000000000E+00 -0.31851647733E+04  0.31851647733E+04  0.00000000000E+00 0. -1.
         23    2    1    2    0    0  0.30639739560E+03  0.99204982814E+03  0.22301081735E+03  0.10658897386E+04  0.91350340306E+02 0.  0.
         11    1    3    3    0    0  0.30341090087E+03  0.95429802396E+03  0.22984029735E+03  0.10274090985E+04  0.00000000000E+00 0.  1.
        -11    1    3    3    0    0  0.29864947325E+01  0.37751804177E+02 -0.68294800032E+01  0.38480640152E+02  0.00000000000E+00 0. -1.
         22    1    1    2    0    0 -0.30639739560E+03 -0.99204982814E+03 -0.26662081842E+04  0.28612424412E+04  0.00000000000E+00 0. -1.
<mgrwt>
<rscale>  0 0.30745981E+04</rscale>
<asrwt>0</asrwt>
<pdfrwt beam="1">  1        2 0.49002536E+00 0.30745981E+04</pdfrwt>
<pdfrwt beam="2">  1       -2 0.11414883E+00 0.30745981E+04</pdfrwt>
<totfact> 0.67683255E-01</totfact>
</mgrwt>
</event>
<event>
 6    1  0.5026615E-004  0.3427779E+04  0.7818608E-02  0.8131122E-01
          2   -1    0    0  501    0  0.00000000000E+00  0.00000000000E+00  0.15507460106E+04  0.15507460106E+04  0.00000000000E+00 0.  1.
         -2   -1    0    0    0  501 -0.00000000000E+00 -0.00000000000E+00 -0.18941958037E+04  0.18941958037E+04  0.00000000000E+00 0. -1.
         23    2    1    2    0    0  0.15524106244E+04  0.32809419950E+02  0.55482552325E+03  0.16510762260E+04  0.84653043684E+02 0.  0.
         13    1    3    3    0    0  0.10802269989E+04 -0.15565275792E+02  0.39261385907E+03  0.11494686987E+04  0.00000000000E+00 0.  1.
        -13    1    3    3    0    0  0.47218362557E+03  0.48374695742E+02  0.16221166418E+03  0.50160752729E+03  0.00000000000E+00 0. -1.
         22    1    1    2    0    0 -0.15524106244E+04 -0.32809419950E+02 -0.89827531641E+03  0.17938655883E+04  0.00000000000E+00 0. -1.
<mgrwt>
<rscale>  0 0.34277786E+04</rscale>
<asrwt>0</asrwt>
<pdfrwt beam="1">  1        2 0.23857631E+00 0.34277786E+04</pdfrwt>
<pdfrwt beam="2">  1       -2 0.29141474E+00 0.34277786E+04</pdfrwt>
<totfact> 0.35232784E-01</totfact>
</mgrwt>
</event>
<event>
 6    1  0.5026615E-004  0.5398963E+03  0.7818608E-02  0.1003860E+00
          2   -1    0    0  501    0  0.00000000000E+00  0.00000000000E+00  0.86379471538E+03  0.86379471538E+03  0.00000000000E+00 0.  1.
         -2   -1    0    0    0  501 -0.00000000000E+00 -0.00000000000E+00 -0.84362650943E+02  0.84362650943E+02  0.00000000000E+00 0. -1.
         23    2    1    2    0    0 -0.15194661375E+03  0.62073310509E+02  0.75930371754E+03  0.78279104673E+03  0.96326621784E+02 0.  0.
         13    1    3    3    0    0 -0.15627620261E+03  0.32478537206E+02  0.66338415473E+03  0.68231638088E+03  0.00000000000E+00 0. -1.
        -13    1    3    3    0    0  0.43295888614E+01  0.29594773303E+02  0.95919562814E+02  0.10047466585E+03  0.00000000000E+00 0.  1.
         22    1    1    2    0    0  0.15194661375E+03 -0.62073310509E+02  0.20128346898E+02  0.16536631959E+03  0.00000000000E+00 0. -1.
<mgrwt>
<rscale>  0 0.53989633E+03</rscale>
<asrwt>0</asrwt>
<pdfrwt beam="1">  1        2 0.13289149E+00 0.53989633E+03</pdfrwt>
<pdfrwt beam="2">  1       -2 0.12978870E-01 0.53989633E+03</pdfrwt>
<totfact> 0.13940270E+03</totfact>
</mgrwt>
</event>
<event>
 6    1  0.5026615E-004  0.3166669E+04  0.7818608E-02  0.8197676E-01
         -2   -1    0    0    0  501 -0.00000000000E+00  0.00000000000E+00  0.68846609377E+03  0.68846609377E+03  0.00000000000E+00 0. -1.
          2   -1    0    0  501    0  0.00000000000E+00 -0.00000000000E+00 -0.36413534728E+04  0.36413534728E+04  0.00000000000E+00 0.  1.
         23    2    1    2    0    0 -0.73769722561E+03 -0.24415435970E+03 -0.33615346791E+04  0.34518667410E+04  0.10798171308E+03 0.  0.
         11    1    3    3    0    0 -0.47054770384E+03 -0.20126574440E+03 -0.23180109580E+04  0.23738361028E+04  0.00000000000E+00 0.  1.
        -11    1    3    3    0    0 -0.26714952177E+03 -0.42888615298E+02 -0.10435237211E+04  0.10780306382E+04  0.00000000000E+00 0. -1.
         22    1    1    2    0    0  0.73769722561E+03  0.24415435970E+03  0.40864730013E+03  0.87795282557E+03  0.00000000000E+00 0. -1.
<mgrwt>
<rscale>  0 0.31666692E+04</rscale>
<asrwt>0</asrwt>
<pdfrwt beam="1">  1        2 0.56020823E+00 0.31666692E+04</pdfrwt>
<pdfrwt beam="2">  1       -2 0.10591786E+00 0.31666692E+04</pdfrwt>
<totfact> 0.39120051E-01</totfact>
</mgrwt>
</event>
<event>
 6    1  0.5026615E-004  0.2980125E+04  0.7818608E-02  0.8249429E-01
          2   -1    0    0  501    0  0.00000000000E+00  0.00000000000E+00  0.17548482859E+04  0.17548482859E+04  0.00000000000E+00 0.  1.
         -2   -1    0    0    0  501 -0.00000000000E+00 -0.00000000000E+00 -0.12652298515E+04  0.12652298515E+04  0.00000000000E+00 0. -1.
         23    2    1    2    0    0 -0.48478411676E+02 -0.14864439891E+04  0.17842608075E+03  0.15006352890E+04  0.90578778654E+02 0.  0.
         13    1    3    3    0    0 -0.75699745670E+01 -0.12454472149E+04  0.14354449779E+03  0.12537149167E+04  0.00000000000E+00 0. -1.
        -13    1    3    3    0    0 -0.40908437109E+02 -0.24099677420E+03  0.34881582954E+02  0.24692037225E+03  0.00000000000E+00 0.  1.
         22    1    1    2    0    0  0.48478411676E+02  0.14864439891E+04  0.31119235364E+03  0.15194428485E+04  0.00000000000E+00 0. -1.
<mgrwt>
<rscale>  0 0.29801251E+04</rscale>
<asrwt>0</asrwt>
<pdfrwt beam="1">  1        2 0.26997666E+00 0.29801251E+04</pdfrwt>
<pdfrwt beam="2">  1       -2 0.19465075E+00 0.29801251E+04</pdfrwt>
<totfact> 0.11311026E+00</totfact>
</mgrwt>
</event>
<event>
 6    1  0.5026615E-004  0.2774253E+04  0.7818608E-02  0.8311307E-01
          2   -1    0    0  501    0  0.00000000000E+00  0.00000000000E+00  0.16538046845E+04  0.16538046845E+04  0.00000000000E+00 0.  1.
         -2   -1    0    0    0  501 -0.00000000000E+00 -0.00000000000E+00 -0.11634506055E+04  0.11634506055E+04  0.00000000000E+00 0. -1.
         23    2    1    2    0    0 -0.21103428877E+03  0.45765570794E+03 -0.10651705246E+04  0.11821280746E+04  0.94097398322E+02 0.  0.
         13    1    3    3    0    0 -0.13098624466E+03  0.37496895360E+03 -0.84497212447E+03  0.93366857266E+03  0.00000000000E+00 0. -1.
        -13    1    3    3    0    0 -0.80048044116E+02  0.82686754338E+02 -0.22019840009E+03  0.24845950196E+03  0.00000000000E+00 0.  1.
         22    1    1    2    0    0  0.21103428877E+03 -0.45765570794E+03  0.15555246036E+04  0.16351272154E+04  0.00000000000E+00 0.  1.
<mgrwt>
<rscale>  0 0.27742531E+04</rscale>
<asrwt>0</asrwt>
<pdfrwt beam="1">  1        2 0.25443149E+00 0.27742531E+04</pdfrwt>
<pdfrwt beam="2">  1       -2 0.17899240E+00 0.27742531E+04</pdfrwt>
<totfact> 0.16722387E+00</totfact>
</mgrwt>
</event>
<event>
 6    1  0.5026615E-004  0.4184512E+04  0.7818608E-02  0.7968325E-01
          2   -1    0    0  501    0  0.00000000000E+00  0.00000000000E+00  0.31096087229E+04  0.31096087229E+04  0.00000000000E+00 0.  1.
         -2   -1    0    0    0  501 -0.00000000000E+00 -0.00000000000E+00 -0.14077447920E+04  0.14077447920E+04  0.00000000000E+00 0. -1.
         23    2    1    2    0    0  0.20549192344E+04 -0.37454091414E+03  0.96163510871E+03  0.23012956037E+04  0.90804280112E+02 0.  0.
         11    1    3    3    0    0  0.17659752094E+04 -0.31079381273E+03  0.79210649403E+03  0.19602790444E+04  0.00000000000E+00 0.  1.
        -11    1    3    3    0    0  0.28894402500E+03 -0.63747101410E+02  0.16952861468E+03  0.34101655930E+03  0.00000000000E+00 0. -1.
         22    1    1    2    0    0 -0.20549192344E+04  0.37454091414E+03  0.74022882222E+03  0.22160579111E+04  0.00000000000E+00 0.  1.
<mgrwt>
<rscale>  0 0.41845122E+04</rscale>
<asrwt>0</asrwt>
<pdfrwt beam="1">  1        2 0.47840134E+00 0.41845122E+04</pdfrwt>
<pdfrwt beam="2">  1       -2 0.21657612E+00 0.41845122E+04</pdfrwt>
<totfact> 0.11973743E-01</totfact>
</mgrwt>
</event>
<event>
 6    1  0.5026615E-004  0.8051150E+03  0.7818608E-02  0.9552643E-01
          2   -1    0    0  501    0  0.00000000000E+00  0.00000000000E+00  0.11026622944E+04  0.11026622944E+04  0.00000000000E+00 0.  1.
         -2   -1    0    0    0  501 -0.00000000000E+00 -0.00000000000E+00 -0.14696481411E+03  0.14696481411E+03  0.00000000000E+00 0. -1.
         23    2    1    2    0    0 -0.34518009709E+03  0.50585728771E+02  0.77875172284E+03  0.85845193489E+03  0.93687049866E+02 0.  0.
         11    1    3    3    0    0 -0.20365925898E+03  0.24185339420E+02  0.34414106809E+03  0.40061839593E+03  0.00000000000E+00 0. -1.
        -11    1    3    3    0    0 -0.14152083811E+03  0.26400389350E+02  0.43461065475E+03  0.45783353896E+03  0.00000000000E+00 0.  1.
         22    1    1    2    0    0  0.34518009709E+03 -0.50585728771E+02  0.17694575748E+03  0.39117517364E+03  0.00000000000E+00 0. -1.
<mgrwt>
<rscale>  0 0.80511505E+03</rscale>
<asrwt>0</asrwt>
<pdfrwt beam="1">  1        2 0.16964035E+00 0.80511505E+03</pdfrwt>
<pdfrwt beam="2">  1       -2 0.22609972E-01 0.80511505E+03</pdfrwt>
<totfact> 0.37461480E+02</totfact>
</mgrwt>
</event>
<event>
 6    1  0.5026615E-004  0.2148599E+04  0.7818608E-02  0.8540132E-01
         -2   -1    0    0    0  501 -0.00000000000E+00  0.00000000000E+00  0.82701533253E+03  0.82701533253E+03  0.00000000000E+00 0.  1.
          2   -1    0    0  501    0  0.00000000000E+00 -0.00000000000E+00 -0.13955234444E+04  0.13955234444E+04  0.00000000000E+00 0. -1.
         23    2    1    2    0    0 -0.99750600189E+02 -0.74581651654E+03  0.50536199026E+03  0.91128386090E+03  0.94101409963E+02 0.  0.
         13    1    3    3    0    0  0.22425865889E+00 -0.22496269810E+03  0.11429480833E+03  0.25233225921E+03  0.00000000000E+00 0.  1.
        -13    1    3    3    0    0 -0.99974858848E+02 -0.52085381844E+03  0.39106718193E+03  0.65895160169E+03  0.00000000000E+00 0. -1.
         22    1    1    2    0    0  0.99750600189E+02  0.74581651654E+03 -0.10738701021E+04  0.13112549160E+04  0.00000000000E+00 0. -1.
<mgrwt>
<rscale>  0 0.21485989E+04</rscale>
<asrwt>0</asrwt>
<pdfrwt beam="1">  1        2 0.21469591E+00 0.21485989E+04</pdfrwt>
<pdfrwt beam="2">  1       -2 0.12723313E+00 0.21485989E+04</pdfrwt>
<totfact> 0.61283294E+00</totfact>
</mgrwt>
</event>
<event>
 6    1  0.5026615E-004  0.2474415E+04  0.7818608E-02  0.8412157E-01
         -2   -1    0    0    0  501 -0.00000000000E+00  0.00000000000E+00  0.63063347472E+03  0.63063347472E+03  0.00000000000E+00 0.  1.
          2   -1    0    0  501    0  0.00000000000E+00 -0.00000000000E+00 -0.24272135004E+04  0.24272135004E+04  0.00000000000E+00 0. -1.
         23    2    1    2    0    0  0.10030389460E+04 -0.47673473508E+01 -0.77349951658E+01  0.10069748685E+04  0.88479945822E+02 0.  0.
         13    1    3    3    0    0  0.96874673255E+03  0.10627480697E+02 -0.11068657830E+01  0.96880565663E+03  0.00000000000E+00 0. -1.
        -13    1    3    3    0    0  0.34292213422E+02 -0.15394828048E+02 -0.66281293828E+01  0.38169211822E+02  0.00000000000E+00 0.  1.
         22    1    1    2    0    0 -0.10030389460E+04  0.47673473508E+01 -0.17888450306E+04  0.20508721067E+04  0.00000000000E+00 0. -1.
<mgrwt>
<rscale>  0 0.24744147E+04</rscale>
<asrwt>0</asrwt>
<pdfrwt beam="1">  1        2 0.37341746E+00 0.24744147E+04</pdfrwt>
<pdfrwt beam="2">  1       -2 0.97020535E-01 0.24744147E+04</pdfrwt>
<totfact> 0.30401486E+00</totfact>
</mgrwt>
</event>
<event>
 6    1  0.5026615E-004  0.2303337E+04  0.7818608E-02  0.8476607E-01
         -2   -1    0    0    0  501 -0.00000000000E+00  0.00000000000E+00  0.63705804573E+03  0.63705804573E+03  0.00000000000E+00 0. -1.
          2   -1    0    0  501    0  0.00000000000E+00 -0.00000000000E+00 -0.20819766838E+04  0.20819766838E+04  0.00000000000E+00 0.  1.
         23    2    1    2    0    0  0.31577075777E+03 -0.11081958210E+03 -0.20221132575E+04  0.20518422686E+04  0.95511871810E+02 0.  0.
         13    1    3    3    0    0  0.24147305263E+03 -0.69664559075E+02 -0.12458539080E+04  0.12709501745E+04  0.00000000000E+00 0. -1.
        -13    1    3    3    0    0  0.74297705144E+02 -0.41155023020E+02 -0.77625934950E+03  0.78089209407E+03  0.00000000000E+00 0.  1.
         22    1    1    2    0    0 -0.31577075777E+03  0.11081958210E+03  0.57719461945E+03  0.66719246096E+03  0.00000000000E+00 0. -1.
<mgrwt>
<rscale>  0 0.23033367E+04</rscale>
<asrwt>0</asrwt>
<pdfrwt beam="1">  1        2 0.32030410E+00 0.23033367E+04</pdfrwt>
<pdfrwt beam="2">  1       -2 0.98008930E-01 0.23033367E+04</pdfrwt>
<totfact> 0.47209769E+00</totfact>
</mgrwt>
</event>
<event>
 6    1  0.5026615E-004  0.1454143E+04  0.7818608E-02  0.8915533E-01
          2   -1    0    0  501    0  0.00000000000E+00  0.00000000000E+00  0.86682174739E+03  0.86682174739E+03  0.00000000000E+00 0.  1.
         -2   -1    0    0    0  501 -0.00000000000E+00 -0.00000000000E+00 -0.60985225147E+03  0.60985225147E+03  0.00000000000E+00 0. -1.
         23    2    1    2    0    0 -0.45153013439E+03  0.28229766815E+03 -0.36985893871E+03  0.65418672104E+03  0.87138944993E+02 0.  0.
         13    1    3    3    0    0 -0.31687973702E+03  0.18763167856E+03 -0.20615056660E+03  0.42203847057E+03  0.00000000000E+00 0.  1.
        -13    1    3    3    0    0 -0.13465039738E+03  0.94665989591E+02 -0.16370837211E+03  0.23214825047E+03  0.00000000000E+00 0. -1.
         22    1    1    2    0    0  0.45153013439E+03 -0.28229766815E+03  0.62682843463E+03  0.82248727782E+03  0.00000000000E+00 0.  1.
<mgrwt>
<rscale>  0 0.14541433E+04</rscale>
<asrwt>0</asrwt>
<pdfrwt beam="1">  1        2 0.13335719E+00 0.14541433E+04</pdfrwt>
<pdfrwt beam="2">  1       -2 0.93823423E-01 0.14541433E+04</pdfrwt>
<totfact> 0.28748452E+01</totfact>
</mgrwt>
</event>
<event>
 6    1  0.5026615E-004  0.2689461E+04  0.7818608E-02  0.8338433E-01
          2   -1    0    0  501    0  0.00000000000E+00  0.00000000000E+00  0.17453697270E+04  0.17453697270E+04  0.00000000000E+00 0.  1.
         -2   -1    0    0    0  501 -0.00000000000E+00 -0.00000000000E+00 -0.10360553671E+04  0.10360553671E+04  0.00000000000E+00 0. -1.
         23    2    1    2    0    0  0.12535931259E+04  0.45694508850E+03  0.51577431598E+03  0.14331846527E+04  0.87752860541E+02 0.  0.
         11    1    3    3    0    0  0.97464438019E+03  0.37785648017E+03  0.43478622798E+03  0.11321423283E+04  0.00000000000E+00 0.  1.
        -11    1    3    3    0    0  0.27894874571E+03  0.79088608335E+02  0.80988088000E+02  0.30104232443E+03  0.00000000000E+00 0. -1.
         22    1    1    2    0    0 -0.12535931259E+04 -0.45694508850E+03  0.19354004396E+03  0.13482404414E+04  0.00000000000E+00 0.  1.
<mgrwt>
<rscale>  0 0.26894607E+04</rscale>
<asrwt>0</asrwt>
<pdfrwt beam="1">  1        2 0.26851842E+00 0.26894607E+04</pdfrwt>
<pdfrwt beam="2">  1       -2 0.15939313E+00 0.26894607E+04</pdfrwt>
<totfact> 0.20682092E+00</totfact>
</mgrwt>
</event>
<event>
 6    1  0.5026615E-004  0.2239712E+04  0.7818608E-02  0.8502078E-01
          2   -1    0    0  501    0  0.00000000000E+00  0.00000000000E+00  0.24828608596E+04  0.24828608596E+04  0.00000000000E+00 0.  1.
         -2   -1    0    0    0  501 -0.00000000000E+00 -0.00000000000E+00 -0.50509389293E+03  0.50509389293E+03  0.00000000000E+00 0. -1.
         23    2    1    2    0    0  0.95002861395E+03  0.58947192614E+03  0.99431266070E+03  0.14989235605E+04  0.89903580792E+02 0.  0.
         11    1    3    3    0    0  0.40149088358E+03  0.28290913621E+03  0.48207145611E+03  0.68820447379E+03  0.00000000000E+00 0. -1.
        -11    1    3    3    0    0  0.54853773037E+03  0.30656278994E+03  0.51224120459E+03  0.81071908667E+03  0.00000000000E+00 0.  1.
         22    1    1    2    0    0 -0.95002861395E+03 -0.58947192614E+03  0.98345430595E+03  0.14890311921E+04  0.00000000000E+00 0. -1.
<mgrwt>
<rscale>  0 0.22397124E+04</rscale>
<asrwt>0</asrwt>
<pdfrwt beam="1">  1        2 0.38197859E+00 0.22397124E+04</pdfrwt>
<pdfrwt beam="2">  1       -2 0.77706754E-01 0.22397124E+04</pdfrwt>
<totfact> 0.47880743E+00</totfact>
</mgrwt>
</event>
<event>
 6    1  0.5026615E-004  0.3354837E+04  0.7818608E-02  0.8149081E-01
          2   -1    0    0  501    0  0.00000000000E+00  0.00000000000E+00  0.18009608044E+04  0.18009608044E+04  0.00000000000E+00 0.  1.
         -2   -1    0    0    0  501 -0.00000000000E+00 -0.00000000000E+00 -0.15623510917E+04  0.15623510917E+04  0.00000000000E+00 0. -1.
         23    2    1    2    0    0  0.97320536608E+03  0.12374624260E+04  0.69626843668E+03  0.17238322689E+04  0.91465924137E+02 0.  0.
         13    1    3    3    0    0  0.75763155990E+03  0.99909146030E+03  0.58603431871E+03  0.13840612520E+04  0.00000000000E+00 0.  1.
        -13    1    3    3    0    0  0.21557380618E+03  0.23837096566E+03  0.11023411797E+03  0.33977101693E+03  0.00000000000E+00 0. -1.
         22    1    1    2    0    0 -0.97320536608E+03 -0.12374624260E+04 -0.45765872396E+03  0.16394796272E+04  0.00000000000E+00 0. -1.
<mgrwt>
<rscale>  0 0.33548372E+04</rscale>
<asrwt>0</asrwt>
<pdfrwt beam="1">  1        2 0.27707089E+00 0.33548372E+04</pdfrwt>
<pdfrwt beam="2">  1       -2 0.24036171E+00 0.33548372E+04</pdfrwt>
<totfact> 0.52812130E-01</totfact>
</mgrwt>
</event>
<event>
 6    1  0.5026615E-004  0.3726779E+04  0.7818608E-02  0.8062053E-01
          2   -1    0    0  501    0  0.00000000000E+00  0.00000000000E+00  0.51921193296E+04  0.51921193296E+04  0.00000000000E+00 0.  1.
         -2   -1    0    0    0  501 -0.00000000000E+00 -0.00000000000E+00 -0.66874824230E+03  0.66874824230E+03  0.00000000000E+00 0. -1.
         23    2    1    2    0    0  0.15711178177E+04 -0.74600636689E+03  0.33098751845E+04  0.37401344433E+04  0.91625437069E+02 0.  0.
         11    1    3    3    0    0  0.13437706762E+03 -0.55548966903E+02  0.33236619199E+03  0.36278115938E+03  0.00000000000E+00 0.  1.
        -11    1    3    3    0    0  0.14367407500E+04 -0.69045739999E+03  0.29775089925E+04  0.33773532840E+04  0.00000000000E+00 0. -1.
         22    1    1    2    0    0 -0.15711178177E+04  0.74600636689E+03  0.12134959027E+04  0.21207331285E+04  0.00000000000E+00 0. -1.
<mgrwt>
<rscale>  0 0.37267791E+04</rscale>
<asrwt>0</asrwt>
<pdfrwt beam="1">  1        2 0.79878757E+00 0.37267791E+04</pdfrwt>
<pdfrwt beam="2">  1       -2 0.10288435E+00 0.37267791E+04</pdfrwt>
<totfact> 0.11649498E-02</totfact>
</mgrwt>
</event>
<event>
 6    1  0.5026615E-004  0.9328383E+03  0.7818608E-02  0.9385438E-01
         -2   -1    0    0    0  501 -0.00000000000E+00  0.00000000000E+00  0.24280764915E+03  0.24280764915E+03  0.00000000000E+00 0. -1.
          2   -1    0    0  501    0  0.00000000000E+00 -0.00000000000E+00 -0.89596369095E+03  0.89596369095E+03  0.00000000000E+00 0.  1.
         23    2    1    2    0    0 -0.13609609853E+03  0.23950838732E+03 -0.78260704063E+03  0.83439660932E+03  0.88642574263E+02 0.  0.
         13    1    3    3    0    0 -0.63329827439E+02  0.13418625320E+03 -0.29431371553E+03  0.32960154845E+03  0.00000000000E+00 0. -1.
        -13    1    3    3    0    0 -0.72766271090E+02  0.10532213412E+03 -0.48829332510E+03  0.50479506087E+03  0.00000000000E+00 0.  1.
         22    1    1    2    0    0  0.13609609853E+03 -0.23950838732E+03  0.12945099883E+03  0.30437473077E+03  0.00000000000E+00 0. -1.
<mgrwt>
<rscale>  0 0.93283833E+03</rscale>
<asrwt>0</asrwt>
<pdfrwt beam="1">  1        2 0.13784057E+00 0.93283833E+03</pdfrwt>
<pdfrwt beam="2">  1       -2 0.37355024E-01 0.93283833E+03</pdfrwt>
<totfact> 0.19949874E+02</totfact>
</mgrwt>
</event>
<event>
 6    1  0.5026615E-004  0.1255572E+04  0.7818608E-02  0.9065558E-01
          2   -1    0    0  501    0  0.00000000000E+00  0.00000000000E+00  0.22308233333E+04  0.22308233333E+04  0.00000000000E+00 0.  1.
         -2   -1    0    0    0  501 -0.00000000000E+00 -0.00000000000E+00 -0.17666810276E+03  0.17666810276E+03  0.00000000000E+00 0. -1.
         23    2    1    2    0    0 -0.24749247900E+03 -0.52721718211E+03  0.14644565395E+04  0.15786639326E+04  0.91303733293E+02 0.  0.
         11    1    3    3    0    0 -0.84825240974E+02 -0.26875061110E+03  0.63319922791E+03  0.69308258865E+03  0.00000000000E+00 0.  1.
        -11    1    3    3    0    0 -0.16266723802E+03 -0.25846657101E+03  0.83125731164E+03  0.88558134398E+03  0.00000000000E+00 0. -1.
         22    1    1    2    0    0  0.24749247900E+03  0.52721718211E+03  0.58969869098E+03  0.82882750341E+03  0.00000000000E+00 0. -1.
<mgrwt>
<rscale>  0 0.12555721E+04</rscale>
<asrwt>0</asrwt>
<pdfrwt beam="1">  1        2 0.34320357E+00 0.12555721E+04</pdfrwt>
<pdfrwt beam="2">  1       -2 0.27179710E-01 0.12555721E+04</pdfrwt>
<totfact> 0.60225252E+01</totfact>
</mgrwt>
</event>
<event>
 6    1  0.5026615E-004  0.1217493E+04  0.7818608E-02  0.9097682E-01
         -2   -1    0    0    0  501 -0.00000000000E+00  0.00000000000E+00  0.18225877505E+04  0.18225877505E+04  0.00000000000E+00 0. -1.
          2   -1    0    0  501    0  0.00000000000E+00 -0.00000000000E+00 -0.20332196289E+03  0.20332196289E+03  0.00000000000E+00 0.  1.
         23    2    1    2    0    0  0.77468456202E+02 -0.31922253223E+03 -0.32510487835E+02  0.34178701865E+03  0.88639988209E+02 0.  0.
         13    1    3    3    0    0  0.58572172095E+02 -0.77022387292E+02 -0.17955916723E+02  0.98415255085E+02  0.00000000000E+00 0. -1.
        -13    1    3    3    0    0  0.18896284106E+02 -0.24220014494E+03 -0.14554571112E+02  0.24337176357E+03  0.00000000000E+00 0.  1.
         22    1    1    2    0    0 -0.77468456202E+02  0.31922253223E+03  0.16517762755E+04  0.16841226948E+04  0.00000000000E+00 0. -1.
<mgrwt>
<rscale>  0 0.12174927E+04</rscale>
<asrwt>0</asrwt>
<pdfrwt beam="1">  1        2 0.31280303E-01 0.12174927E+04</pdfrwt>
<pdfrwt beam="2">  1       -2 0.28039810E+00 0.12174927E+04</pdfrwt>
<totfact> 0.70505998E+00</totfact>
</mgrwt>
</event>
<event>
 6    1  0.5026615E-004  0.1847634E+04  0.7818608E-02  0.8681370E-01
         -2   -1    0    0    0  501 -0.00000000000E+00  0.00000000000E+00  0.10481591197E+04  0.10481591197E+04  0.00000000000E+00 0. -1.
          2   -1    0    0  501    0  0.00000000000E+00 -0.00000000000E+00 -0.81422558891E+03  0.81422558891E+03  0.00000000000E+00 0.  1.
         23    2    1    2    0    0  0.60698053401E+03  0.68181939428E+03 -0.96854639686E+01  0.91758141176E+03  0.92513695815E+02 0.  0.
         13    1    3    3    0    0  0.27208000184E+03  0.28059327429E+03  0.38495162255E+02  0.39273654081E+03  0.00000000000E+00 0.  1.
        -13    1    3    3    0    0  0.33490053217E+03  0.40122611999E+03 -0.48180626223E+02  0.52484487094E+03  0.00000000000E+00 0. -1.
         22    1    1    2    0    0 -0.60698053401E+03 -0.68181939428E+03  0.24361899472E+03  0.94480329681E+03  0.00000000000E+00 0. -1.
<mgrwt>
<rscale>  0 0.18476341E+04</rscale>
<asrwt>0</asrwt>
<pdfrwt beam="1">  1        2 0.12526548E+00 0.18476341E+04</pdfrwt>
<pdfrwt beam="2">  1       -2 0.16125525E+00 0.18476341E+04</pdfrwt>
<totfact> 0.77984995E+00</totfact>
</mgrwt>
</event>
<event>
 6    1  0.5026615E-004  0.1792909E+04  0.7818608E-02  0.8710079E-01
          2   -1    0    0  501    0  0.00000000000E+00  0.00000000000E+00  0.23728189001E+04  0.23728189001E+04  0.00000000000E+00 0.  1.
         -2   -1    0    0    0  501 -0.00000000000E+00 -0.00000000000E+00 -0.33868191409E+03  0.33868191409E+03  0.00000000000E+00 0. -1.
         23    2    1    2    0    0  0.80784491673E+03 -0.38339892202E+03  0.10249764755E+04  0.13631636609E+04  0.89611652263E+02 0.  0.
         13    1    3    3    0    0  0.52425325240E+03 -0.20480052270E+03  0.66837052810E+03  0.87378709626E+03  0.00000000000E+00 0. -1.
        -13    1    3    3    0    0  0.28359166433E+03 -0.17859839932E+03  0.35660594736E+03  0.48937656463E+03  0.00000000000E+00 0.  1.
         22    1    1    2    0    0 -0.80784491673E+03  0.38339892202E+03  0.10091605105E+04  0.13483371533E+04  0.00000000000E+00 0.  1.
<mgrwt>
<rscale>  0 0.17929092E+04</rscale>
<asrwt>0</asrwt>
<pdfrwt beam="1">  1        2 0.36504905E+00 0.17929092E+04</pdfrwt>
<pdfrwt beam="2">  1       -2 0.52104911E-01 0.17929092E+04</pdfrwt>
<totfact> 0.13545001E+01</totfact>
</mgrwt>
</event>
<event>
 6    1  0.5026615E-004  0.6936442E+03  0.7818608E-02  0.9728164E-01
          2   -1    0    0  501    0  0.00000000000E+00  0.00000000000E+00  0.63486404451E+03  0.63486404451E+03  0.00000000000E+00 0.  1.
         -2   -1    0    0    0  501 -0.00000000000E+00 -0.00000000000E+00 -0.18946668444E+03  0.18946668444E+03  0.00000000000E+00 0. -1.
         23    2    1    2    0    0  0.85407941110E+02  0.15420355903E+03  0.57359186897E+03  0.60636952566E+03  0.87195845551E+02 0.  0.
         13    1    3    3    0    0  0.34400225625E+02  0.73722602932E+02  0.40150906958E+03  0.40966807376E+03  0.00000000000E+00 0.  1.
        -13    1    3    3    0    0  0.51007715485E+02  0.80480956097E+02  0.17208279939E+03  0.19670145190E+03  0.00000000000E+00 0. -1.
         22    1    1    2    0    0 -0.85407941110E+02 -0.15420355903E+03 -0.12819450890E+03  0.21796120328E+03  0.00000000000E+00 0. -1.
<mgrwt>
<rscale>  0 0.69364425E+03</rscale>
<asrwt>0</asrwt>
<pdfrwt beam="1">  1        2 0.97671391E-01 0.69364425E+03</pdfrwt>
<pdfrwt beam="2">  1       -2 0.29148721E-01 0.69364425E+03</pdfrwt>
<totfact> 0.50376913E+02</totfact>
</mgrwt>
</event>
<event>
 6    1  0.5026615E-004  0.2729309E+04  0.7818608E-02  0.8325557E-01
         -2   -1    0    0    0  501 -0.00000000000E+00  0.00000000000E+00  0.14498310242E+04  0.14498310242E+04  0.00000000000E+00 0. -1.
          2   -1    0    0  501    0  0.00000000000E+00 -0.00000000000E+00 -0.12844824418E+04  0.12844824418E+04  0.00000000000E+00 0.  1.
         23    2    1    2    0    0 -0.13601308790E+04  0.89731244337E+02  0.82518443545E+02  0.13687115709E+04  0.92489818619E+02 0.  0.
         11    1    3    3    0    0 -0.94463674347E+03  0.10309844044E+03  0.69837989813E+02  0.95280911538E+03  0.00000000000E+00 0.  1.
        -11    1    3    3    0    0 -0.41549413552E+03 -0.13367196106E+02  0.12680453733E+02  0.41590245550E+03  0.00000000000E+00 0. -1.
         22    1    1    2    0    0  0.13601308790E+04 -0.89731244337E+02  0.82830138810E+02  0.13656018952E+04  0.00000000000E+00 0.  1.
<mgrwt>
<rscale>  0 0.27293094E+04</rscale>
<asrwt>0</asrwt>
<pdfrwt beam="1">  1        2 0.19761268E+00 0.27293094E+04</pdfrwt>
<pdfrwt beam="2">  1       -2 0.22305093E+00 0.27293094E+04</pdfrwt>
<totfact> 0.13967387E+00</totfact>
</mgrwt>
</event>
<event>
 6    1  0.5026615E-004  0.1785166E+04  0.7818608E-02  0.8714228E-01
         -2   -1    0    0    0  501 -0.00000000000E+00  0.00000000000E+00  0.20752123315E+03  0.20752123315E+03  0.00000000000E+00 0. -1.
          2   -1    0    0  501    0  0.00000000000E+00 -0.00000000000E+00 -0.38391472274E+04  0.38391472274E+04  0.00000000000E+00 0.  1.
         23    2    1    2    0    0  0.33318603440E+03 -0.72684818499E+03 -0.27077984760E+04  0.28248753107E+04  0.91797150344E+02 0.  0.
         11    1    3    3    0    0  0.87323821624E+02 -0.10919484644E+03 -0.44589830204E+03  0.46730531783E+03  0.00000000000E+00 0.  1.
        -11    1    3    3    0    0  0.24586221277E+03 -0.61765333855E+03 -0.22619001740E+04  0.23575699929E+04  0.00000000000E+00 0. -1.
         22    1    1    2    0    0 -0.33318603440E+03  0.72684818499E+03 -0.92382751823E+03  0.12217931498E+04  0.00000000000E+00 0. -1.
<mgrwt>
<rscale>  0 0.17851662E+04</rscale>
<asrwt>0</asrwt>
<pdfrwt beam="1">  1        2 0.59063800E+00 0.17851662E+04</pdfrwt>
<pdfrwt beam="2">  1       -2 0.31926346E-01 0.17851662E+04</pdfrwt>
<totfact> 0.40032731E+00</totfact>
</mgrwt>
</event>
<event>
 6    1  0.5026615E-004  0.3315004E+04  0.7818608E-02  0.8159088E-01
         -2   -1    0    0    0  501 -0.00000000000E+00  0.00000000000E+00  0.13379829179E+04  0.13379829179E+04  0.00000000000E+00 0. -1.
          2   -1    0    0  501    0  0.00000000000E+00 -0.00000000000E+00 -0.20533239047E+04  0.20533239047E+04  0.00000000000E+00 0.  1.
         23    2    1    2    0    0  0.94067392056E+03 -0.10179736535E+04 -0.12854350707E+04  0.18925923573E+04  0.91786305001E+02 0.  0.
         11    1    3    3    0    0  0.61876140062E+03 -0.64985080909E+03 -0.77435194635E+03  0.11852395040E+04  0.00000000000E+00 0.  1.
        -11    1    3    3    0    0  0.32191251993E+03 -0.36812284438E+03 -0.51108312436E+03  0.70735285328E+03  0.00000000000E+00 0. -1.
         22    1    1    2    0    0 -0.94067392056E+03  0.10179736535E+04  0.57009408391E+03  0.14987144653E+04  0.00000000000E+00 0. -1.
<mgrwt>
<rscale>  0 0.33150037E+04</rscale>
<asrwt>0</asrwt>
<pdfrwt beam="1">  1        2 0.31589598E+00 0.33150037E+04</pdfrwt>
<pdfrwt beam="2">  1       -2 0.20584353E+00 0.33150037E+04</pdfrwt>
<totfact> 0.63405968E-01</totfact>
</mgrwt>
</event>
<event>
 6    1  0.6162319E-004  0.3448010E+04  0.7818608E-02  0.8126223E-01
          2   -1    0    0  501    0  0.00000000000E+00  0.00000000000E+00  0.18219390027E+04  0.18219390027E+04  0.00000000000E+00 0.  1.
         -2   -1    0    0    0  501 -0.00000000000E+00 -0.00000000000E+00 -0.16313356364E+04  0.16313356364E+04  0.00000000000E+00 0. -1.
         23    2    1    2    0    0  0.50169622523E+03  0.16456418711E+04  0.18277525845E+03  0.17328393599E+04  0.97412431321E+02 0.  0.
         13    1    3    3    0    0  0.21632411646E+03  0.84184106550E+03  0.62341760764E+02  0.87142354688E+03  0.00000000000E+00 0. -1.
        -13    1    3    3    0    0  0.28537210878E+03  0.80380080563E+03  0.12043349768E+03  0.86141581305E+03  0.00000000000E+00 0.  1.
         22    1    1    2    0    0 -0.50169622523E+03 -0.16456418711E+04  0.78281079194E+01  0.17204352791E+04  0.00000000000E+00 0. -1.
<mgrwt>
<rscale>  0 0.34480105E+04</rscale>
<asrwt>0</asrwt>
<pdfrwt beam="1">  1        2 0.28029831E+00 0.34480105E+04</pdfrwt>
<pdfrwt beam="2">  1       -2 0.25097471E+00 0.34480105E+04</pdfrwt>
<totfact> 0.43884145E-01</totfact>
</mgrwt>
</event>
<event>
 6    1  0.5026615E-004  0.1083867E+04  0.7818608E-02  0.9221060E-01
         -2   -1    0    0    0  501 -0.00000000000E+00  0.00000000000E+00  0.41052042976E+03  0.41052042976E+03  0.00000000000E+00 0. -1.
          2   -1    0    0  501    0  0.00000000000E+00 -0.00000000000E+00 -0.71541385305E+03  0.71541385305E+03  0.00000000000E+00 0.  1.
         23    2    1    2    0    0  0.39541809876E+03  0.13288265898E+03  0.19962247437E+03  0.47129731099E+03  0.90877660549E+02 0.  0.
         13    1    3    3    0    0  0.12170530124E+03 -0.21202876095E+01  0.58622903731E+02  0.13510485118E+03  0.00000000000E+00 0. -1.
        -13    1    3    3    0    0  0.27371279752E+03  0.13500294659E+03  0.14099957064E+03  0.33619245981E+03  0.00000000000E+00 0.  1.
         22    1    1    2    0    0 -0.39541809876E+03 -0.13288265898E+03 -0.50451589765E+03  0.65463697182E+03  0.00000000000E+00 0. -1.
<mgrwt>
<rscale>  0 0.10838672E+04</rscale>
<asrwt>0</asrwt>
<pdfrwt beam="1">  1        2 0.11006367E+00 0.10838672E+04</pdfrwt>
<pdfrwt beam="2">  1       -2 0.63156989E-01 0.10838672E+04</pdfrwt>
<totfact> 0.92016687E+01</totfact>
</mgrwt>
</event>
<event>
 6    1  0.5026615E-004  0.3410892E+04  0.7818608E-02  0.8135238E-01
         -2   -1    0    0    0  501 -0.00000000000E+00  0.00000000000E+00  0.10401702525E+04  0.10401702525E+04  0.00000000000E+00 0. -1.
          2   -1    0    0  501    0  0.00000000000E+00 -0.00000000000E+00 -0.27962215593E+04  0.27962215593E+04  0.00000000000E+00 0.  1.
         23    2    1    2    0    0  0.66063889325E+03  0.14926274863E+04 -0.14299691805E+04  0.21718467950E+04  0.87898143737E+02 0.  0.
         11    1    3    3    0    0  0.56143041603E+03  0.12508996777E+04 -0.11579281878E+04  0.17946453142E+04  0.00000000000E+00 0. -1.
        -11    1    3    3    0    0  0.99208477214E+02  0.24172780854E+03 -0.27204099272E+03  0.37720148077E+03  0.00000000000E+00 0.  1.
         22    1    1    2    0    0 -0.66063889325E+03 -0.14926274863E+04 -0.32608212632E+03  0.16645450169E+04  0.00000000000E+00 0. -1.
<mgrwt>
<rscale>  0 0.34108923E+04</rscale>
<asrwt>0</asrwt>
<pdfrwt beam="1">  1        2 0.43018793E+00 0.34108923E+04</pdfrwt>
<pdfrwt beam="2">  1       -2 0.16002619E+00 0.34108923E+04</pdfrwt>
<totfact> 0.48423236E-01</totfact>
</mgrwt>
</event>
<event>
 6    1  0.5026615E-004  0.4144007E+04  0.7818608E-02  0.7976110E-01
         -2   -1    0    0    0  501 -0.00000000000E+00  0.00000000000E+00  0.27998740642E+04  0.27998740642E+04  0.00000000000E+00 0. -1.
          2   -1    0    0  501    0  0.00000000000E+00 -0.00000000000E+00 -0.15333539333E+04  0.15333539333E+04  0.00000000000E+00 0.  1.
         23    2    1    2    0    0 -0.78301736921E+03 -0.91965828875E+02 -0.13689514807E+04  0.15823582205E+04  0.90859602739E+02 0.  0.
         11    1    3    3    0    0 -0.36994712221E+03 -0.51242022467E+02 -0.73796141315E+03  0.82708745934E+03  0.00000000000E+00 0. -1.
        -11    1    3    3    0    0 -0.41307024700E+03 -0.40723806409E+02 -0.63099006753E+03  0.75527076118E+03  0.00000000000E+00 0.  1.
         22    1    1    2    0    0  0.78301736921E+03  0.91965828875E+02  0.26354716116E+04  0.27508697770E+04  0.00000000000E+00 0. -1.
<mgrwt>
<rscale>  0 0.41440067E+04</rscale>
<asrwt>0</asrwt>
<pdfrwt beam="1">  1        2 0.23590061E+00 0.41440067E+04</pdfrwt>
<pdfrwt beam="2">  1       -2 0.43074986E+00 0.41440067E+04</pdfrwt>
<totfact> 0.44120897E-02</totfact>
</mgrwt>
</event>
<event>
 6    1  0.5026615E-004  0.4736790E+04  0.7818608E-02  0.7870444E-01
         -2   -1    0    0    0  501 -0.00000000000E+00  0.00000000000E+00  0.38454288573E+04  0.38454288573E+04  0.00000000000E+00 0. -1.
          2   -1    0    0  501    0  0.00000000000E+00 -0.00000000000E+00 -0.14586913618E+04  0.14586913618E+04  0.00000000000E+00 0.  1.
         23    2    1    2    0    0 -0.42067285244E+03  0.20226171902E+04  0.24887001119E+04  0.32357048057E+04  0.90616755049E+02 0.  0.
         11    1    3    3    0    0 -0.22028531538E+03  0.83953124109E+03  0.10449425295E+04  0.13583972964E+04  0.00000000000E+00 0.  1.
        -11    1    3    3    0    0 -0.20038753705E+03  0.11830859491E+04  0.14437575823E+04  0.18773075093E+04  0.00000000000E+00 0. -1.
         22    1    1    2    0    0  0.42067285244E+03 -0.20226171902E+04 -0.10196261630E+03  0.20684154133E+04  0.00000000000E+00 0.  1.
<mgrwt>
<rscale>  0 0.47367896E+04</rscale>
<asrwt>0</asrwt>
<pdfrwt beam="1">  1        2 0.22441406E+00 0.47367896E+04</pdfrwt>
<pdfrwt beam="2">  1       -2 0.59160443E+00 0.47367896E+04</pdfrwt>
<totfact> 0.55062498E-03</totfact>
</mgrwt>
</event>
<event>
 6    1  0.5026615E-004  0.2021676E+04  0.7818608E-02  0.8596553E-01
         -2   -1    0    0    0  501 -0.00000000000E+00  0.00000000000E+00  0.95787553418E+03  0.95787553418E+03  0.00000000000E+00 0. -1.
          2   -1    0    0  501    0  0.00000000000E+00 -0.00000000000E+00 -0.10667292815E+04  0.10667292815E+04  0.00000000000E+00 0.  1.
         23    2    1    2    0    0  0.74517154086E+03 -0.60295490915E+03 -0.36819770861E+03  0.10315818865E+04  0.98774430187E+02 0.  0.
         11    1    3    3    0    0  0.40346572042E+03 -0.33284354140E+03 -0.25310486371E+03  0.58106065315E+03  0.00000000000E+00 0. -1.
        -11    1    3    3    0    0  0.34170582044E+03 -0.27011136775E+03 -0.11509284490E+03  0.45052123330E+03  0.00000000000E+00 0.  1.
         22    1    1    2    0    0 -0.74517154086E+03  0.60295490915E+03  0.25934396126E+03  0.99302292925E+03  0.00000000000E+00 0. -1.
<mgrwt>
<rscale>  0 0.20216764E+04</rscale>
<asrwt>0</asrwt>
<pdfrwt beam="1">  1        2 0.16411220E+00 0.20216764E+04</pdfrwt>
<pdfrwt beam="2">  1       -2 0.14736547E+00 0.20216764E+04</pdfrwt>
<totfact> 0.66539368E+00</totfact>
</mgrwt>
</event>
<event>
 6    1  0.5026615E-004  0.2583836E+04  0.7818608E-02  0.8373712E-01
         -2   -1    0    0    0  501 -0.00000000000E+00  0.00000000000E+00  0.46994846755E+03  0.46994846755E+03  0.00000000000E+00 0. -1.
          2   -1    0    0  501    0  0.00000000000E+00 -0.00000000000E+00 -0.35515654907E+04  0.35515654907E+04  0.00000000000E+00 0.  1.
         23    2    1    2    0    0 -0.57768770753E+03 -0.11411649476E+04 -0.12777682695E+04  0.18102132435E+04  0.90552256030E+02 0.  0.
         13    1    3    3    0    0 -0.36830334109E+03 -0.81048388511E+03 -0.86146510141E+03  0.12388113658E+04  0.00000000000E+00 0.  1.
        -13    1    3    3    0    0 -0.20938436643E+03 -0.33068106253E+03 -0.41630316809E+03  0.57140187765E+03  0.00000000000E+00 0. -1.
         22    1    1    2    0    0  0.57768770753E+03  0.11411649476E+04 -0.18038487537E+04  0.22113007148E+04  0.00000000000E+00 0.  1.
<mgrwt>
<rscale>  0 0.25838365E+04</rscale>
<asrwt>0</asrwt>
<pdfrwt beam="1">  1        2 0.54639467E+00 0.25838365E+04</pdfrwt>
<pdfrwt beam="2">  1       -2 0.72299767E-01 0.25838365E+04</pdfrwt>
<totfact> 0.11478423E+00</totfact>
</mgrwt>
</event>
<event>
 6    1  0.5026615E-004  0.2054901E+04  0.7818608E-02  0.8581374E-01
          2   -1    0    0  501    0  0.00000000000E+00  0.00000000000E+00  0.15158282406E+04  0.15158282406E+04  0.00000000000E+00 0.  1.
         -2   -1    0    0    0  501 -0.00000000000E+00 -0.00000000000E+00 -0.69642087106E+03  0.69642087106E+03  0.00000000000E+00 0. -1.
         23    2    1    2    0    0 -0.77791154753E+03 -0.99477949089E+02  0.11217505431E+04  0.13717411506E+04  0.91144200132E+02 0.  0.
         11    1    3    3    0    0 -0.45913610190E+03 -0.16078667716E+02  0.62666333079E+03  0.77702729281E+03  0.00000000000E+00 0. -1.
        -11    1    3    3    0    0 -0.31877544564E+03 -0.83399281373E+02  0.49508721227E+03  0.59471385777E+03  0.00000000000E+00 0.  1.
         22    1    1    2    0    0  0.77791154753E+03  0.99477949089E+02 -0.30234317349E+03  0.84050796111E+03  0.00000000000E+00 0. -1.
<mgrwt>
<rscale>  0 0.20549009E+04</rscale>
<asrwt>0</asrwt>
<pdfrwt beam="1">  1        2 0.23320435E+00 0.20549009E+04</pdfrwt>
<pdfrwt beam="2">  1       -2 0.10714167E+00 0.20549009E+04</pdfrwt>
<totfact> 0.80546664E+00</totfact>
</mgrwt>
</event>
<event>
 6    1  0.5873218E-004  0.3941793E+04  0.7818608E-02  0.8016393E-01
          2   -1    0    0  501    0  0.00000000000E+00  0.00000000000E+00  0.27874332067E+04  0.27874332067E+04  0.00000000000E+00 0.  1.
         -2   -1    0    0    0  501 -0.00000000000E+00 -0.00000000000E+00 -0.13935522933E+04  0.13935522933E+04  0.00000000000E+00 0. -1.
         23    2    1    2    0    0 -0.10548979544E+04 -0.35571805295E+03 -0.10265010954E+04  0.15168544793E+04  0.88306200955E+02 0.  0.
         11    1    3    3    0    0 -0.64635854860E+03 -0.20303643928E+03 -0.56855230395E+03  0.88445174620E+03  0.00000000000E+00 0. -1.
        -11    1    3    3    0    0 -0.40853940575E+03 -0.15268161366E+03 -0.45794879146E+03  0.63240273308E+03  0.00000000000E+00 0.  1.
         22    1    1    2    0    0  0.10548979544E+04  0.35571805295E+03  0.24203820088E+04  0.26641310207E+04  0.00000000000E+00 0.  1.
<mgrwt>
<rscale>  0 0.39417935E+04</rscale>
<asrwt>0</asrwt>
<pdfrwt beam="1">  1        2 0.42883588E+00 0.39417935E+04</pdfrwt>
<pdfrwt beam="2">  1       -2 0.21439266E+00 0.39417935E+04</pdfrwt>
<totfact> 0.20008882E-01</totfact>
</mgrwt>
</event>
<event>
 6    1  0.5026615E-004  0.6449943E+04  0.7818608E-02  0.7636987E-01
          2   -1    0    0  501    0  0.00000000000E+00  0.00000000000E+00  0.27307698075E+04  0.27307698075E+04  0.00000000000E+00 0.  1.
         -2   -1    0    0    0  501 -0.00000000000E+00 -0.00000000000E+00 -0.38086110639E+04  0.38086110639E+04  0.00000000000E+00 0. -1.
         23    2    1    2    0    0 -0.50168535805E+03  0.96415465369E+03  0.25386559814E+04  0.27630950420E+04  0.92938822039E+02 0.  0.
         11    1    3    3    0    0 -0.16328763848E+03  0.27583314863E+03  0.65359999871E+03  0.72796959901E+03  0.00000000000E+00 0. -1.
        -11    1    3    3    0    0 -0.33839771956E+03  0.68832150506E+03  0.18850559827E+04  0.20351254430E+04  0.00000000000E+00 0.  1.
         22    1    1    2    0    0  0.50168535805E+03 -0.96415465369E+03 -0.36164972377E+04  0.37762858294E+04  0.00000000000E+00 0. -1.
<mgrwt>
<rscale>  0 0.64499427E+04</rscale>
<asrwt>0</asrwt>
<pdfrwt beam="1">  1        2 0.42011844E+00 0.64499427E+04</pdfrwt>
<pdfrwt beam="2">  1       -2 0.58594016E+00 0.64499427E+04</pdfrwt>
<totfact> 0.98255533E-04</totfact>
</mgrwt>
</event>
<event>
 6    1  0.5026615E-004  0.2674259E+04  0.7818608E-02  0.8343406E-01
          2   -1    0    0  501    0  0.00000000000E+00  0.00000000000E+00  0.22631975286E+04  0.22631975286E+04  0.00000000000E+00 0.  1.
         -2   -1    0    0    0  501 -0.00000000000E+00 -0.00000000000E+00 -0.78999525702E+03  0.78999525702E+03  0.00000000000E+00 0. -1.
         23    2    1    2    0    0  0.81798887703E+03 -0.22700195601E+03  0.19146791861E+04  0.20963555179E+04  0.89857557422E+02 0.  0.
         11    1    3    3    0    0  0.40058270615E+03 -0.65602408780E+02  0.88790391956E+03  0.97629071023E+03  0.00000000000E+00 0.  1.
        -11    1    3    3    0    0  0.41740617088E+03 -0.16139954723E+03  0.10267752665E+04  0.11200648076E+04  0.00000000000E+00 0. -1.
         22    1    1    2    0    0 -0.81798887703E+03  0.22700195601E+03 -0.44147691449E+03  0.95683726778E+03  0.00000000000E+00 0. -1.
<mgrwt>
<rscale>  0 0.26742590E+04</rscale>
<asrwt>0</asrwt>
<pdfrwt beam="1">  1        2 0.34818423E+00 0.26742590E+04</pdfrwt>
<pdfrwt beam="2">  1       -2 0.12153773E+00 0.26742590E+04</pdfrwt>
<totfact> 0.21509586E+00</totfact>
</mgrwt>
</event>
<event>
 6    1  0.5026615E-004  0.2773559E+04  0.7818608E-02  0.8311525E-01
         -2   -1    0    0    0  501 -0.00000000000E+00  0.00000000000E+00  0.11069776347E+04  0.11069776347E+04  0.00000000000E+00 0. -1.
          2   -1    0    0  501    0  0.00000000000E+00 -0.00000000000E+00 -0.17373044637E+04  0.17373044637E+04  0.00000000000E+00 0.  1.
         23    2    1    2    0    0 -0.81638876409E+03  0.10682155023E+04 -0.65846591909E+03  0.14995268115E+04  0.86187691313E+02 0.  0.
         11    1    3    3    0    0 -0.64448098957E+03  0.81580956875E+03 -0.54405041215E+03  0.11734103499E+04  0.00000000000E+00 0. -1.
        -11    1    3    3    0    0 -0.17190777452E+03  0.25240593359E+03 -0.11441550694E+03  0.32611646153E+03  0.00000000000E+00 0.  1.
         22    1    1    2    0    0  0.81638876409E+03 -0.10682155023E+04  0.28139090078E+02  0.13447552870E+04  0.00000000000E+00 0.  1.
<mgrwt>
<rscale>  0 0.27735589E+04</rscale>
<asrwt>0</asrwt>
<pdfrwt beam="1">  1        2 0.26727761E+00 0.27735589E+04</pdfrwt>
<pdfrwt beam="2">  1       -2 0.17030425E+00 0.27735589E+04</pdfrwt>
<totfact> 0.17292908E+00</totfact>
</mgrwt>
</event>
<event>
 6    1  0.5026615E-004  0.2876055E+04  0.7818608E-02  0.8280038E-01
         -2   -1    0    0    0  501 -0.00000000000E+00  0.00000000000E+00  0.10232568577E+04  0.10232568577E+04  0.00000000000E+00 0.  1.
          2   -1    0    0  501    0  0.00000000000E+00 -0.00000000000E+00 -0.20209230806E+04  0.20209230806E+04  0.00000000000E+00 0. -1.
         23    2    1    2    0    0 -0.61160185371E+02  0.11730445072E+04  0.37618621391E+03  0.12366278637E+04  0.89209985938E+02 0.  0.
         11    1    3    3    0    0 -0.29339787852E+02  0.93472977346E+03  0.26693635122E+03  0.97254078996E+03  0.00000000000E+00 0. -1.
        -11    1    3    3    0    0 -0.31820397519E+02  0.23831473378E+03  0.10924986269E+03  0.26408707377E+03  0.00000000000E+00 0.  1.
         22    1    1    2    0    0  0.61160185371E+02 -0.11730445072E+04 -0.13738524368E+04  0.18075520746E+04  0.00000000000E+00 0. -1.
<mgrwt>
<rscale>  0 0.28760552E+04</rscale>
<asrwt>0</asrwt>
<pdfrwt beam="1">  1        2 0.31091124E+00 0.28760552E+04</pdfrwt>
<pdfrwt beam="2">  1       -2 0.15742413E+00 0.28760552E+04</pdfrwt>
<totfact> 0.14808145E+00</totfact>
</mgrwt>
</event>
<event>
 6    1  0.5026615E-004  0.1516823E+04  0.7818608E-02  0.8873343E-01
          2   -1    0    0  501    0  0.00000000000E+00  0.00000000000E+00  0.10478097333E+04  0.10478097333E+04  0.00000000000E+00 0. -1.
         -2   -1    0    0    0  501 -0.00000000000E+00 -0.00000000000E+00 -0.54894283856E+03  0.54894283856E+03  0.00000000000E+00 0.  1.
         23    2    1    2    0    0  0.36910294884E+03  0.37908260411E+03 -0.31656357252E+03  0.62470964352E+03  0.10054370032E+03 0.  0.
         13    1    3    3    0    0  0.33045080053E+03  0.33897676542E+03 -0.31569205400E+03  0.56900303341E+03  0.00000000000E+00 0. -1.
        -13    1    3    3    0    0  0.38652148309E+02  0.40105838691E+02 -0.87151852889E+00  0.55706610116E+02  0.00000000000E+00 0.  1.
         22    1    1    2    0    0 -0.36910294884E+03 -0.37908260411E+03  0.81543046730E+03  0.97204292836E+03  0.00000000000E+00 0. -1.
<mgrwt>
<rscale>  0 0.15168225E+04</rscale>
<asrwt>0</asrwt>
<pdfrwt beam="1">  1        2 0.16120150E+00 0.15168225E+04</pdfrwt>
<pdfrwt beam="2">  1       -2 0.84452744E-01 0.15168225E+04</pdfrwt>
<totfact> 0.27714625E+01</totfact>
</mgrwt>
</event>
<event>
 6    1  0.5026615E-004  0.2285239E+04  0.7818608E-02  0.8483764E-01
          2   -1    0    0  501    0  0.00000000000E+00  0.00000000000E+00  0.78904309940E+03  0.78904309940E+03  0.00000000000E+00 0.  1.
         -2   -1    0    0    0  501 -0.00000000000E+00 -0.00000000000E+00 -0.16546358175E+04  0.16546358175E+04  0.00000000000E+00 0. -1.
         23    2    1    2    0    0 -0.96504285414E+03 -0.72291137728E+01 -0.10839819081E+04  0.14542074375E+04  0.91337416863E+02 0.  0.
         11    1    3    3    0    0 -0.39391449577E+03  0.95592511461E+01 -0.37855762333E+03  0.54641182586E+03  0.00000000000E+00 0. -1.
        -11    1    3    3    0    0 -0.57112835837E+03 -0.16788364919E+02 -0.70542428474E+03  0.90779561160E+03  0.00000000000E+00 0.  1.
         22    1    1    2    0    0  0.96504285414E+03  0.72291137728E+01  0.21838918993E+03  0.98947147948E+03  0.00000000000E+00 0. -1.
<mgrwt>
<rscale>  0 0.22852387E+04</rscale>
<asrwt>0</asrwt>
<pdfrwt beam="1">  1        2 0.12139125E+00 0.22852387E+04</pdfrwt>
<pdfrwt beam="2">  1       -2 0.25455936E+00 0.22852387E+04</pdfrwt>
<totfact> 0.19182744E+00</totfact>
</mgrwt>
</event>
<event>
 6    1  0.5029683E-004  0.3425271E+04  0.7818608E-02  0.8131732E-01
          2   -1    0    0  501    0  0.00000000000E+00  0.00000000000E+00  0.15597466892E+04  0.15597466892E+04  0.00000000000E+00 0.  1.
         -2   -1    0    0    0  501 -0.00000000000E+00 -0.00000000000E+00 -0.18805109648E+04  0.18805109648E+04  0.00000000000E+00 0. -1.
         23    2    1    2    0    0  0.16097732502E+03  0.16636487523E+04 -0.52990279983E+03  0.17558052822E+04  0.91729720978E+02 0.  0.
         13    1    3    3    0    0  0.83247491900E+02  0.45440324581E+03 -0.13336536270E+03  0.48083133704E+03  0.00000000000E+00 0.  1.
        -13    1    3    3    0    0  0.77729833116E+02  0.12092455065E+04 -0.39653743713E+03  0.12749739452E+04  0.00000000000E+00 0. -1.
         22    1    1    2    0    0 -0.16097732502E+03 -0.16636487523E+04  0.20913852425E+03  0.16844523717E+04  0.00000000000E+00 0.  1.
<mgrwt>
<rscale>  0 0.34252712E+04</rscale>
<asrwt>0</asrwt>
<pdfrwt beam="1">  1        2 0.23996103E+00 0.34252712E+04</pdfrwt>
<pdfrwt beam="2">  1       -2 0.28930938E+00 0.34252712E+04</pdfrwt>
<totfact> 0.35879390E-01</totfact>
</mgrwt>
</event>
<event>
 6    1  0.5026615E-004  0.3775255E+04  0.7818608E-02  0.8051486E-01
          2   -1    0    0  501    0  0.00000000000E+00  0.00000000000E+00  0.26312999523E+04  0.26312999523E+04  0.00000000000E+00 0.  1.
         -2   -1    0    0    0  501 -0.00000000000E+00 -0.00000000000E+00 -0.13541354972E+04  0.13541354972E+04  0.00000000000E+00 0. -1.
         23    2    1    2    0    0 -0.53738455614E+03  0.13695711569E+04  0.18854828796E+04  0.23934057323E+04  0.94010611876E+02 0.  0.
         13    1    3    3    0    0 -0.18819658316E+03  0.38923147285E+03  0.50982282746E+03  0.66845972861E+03  0.00000000000E+00 0. -1.
        -13    1    3    3    0    0 -0.34918797298E+03  0.98033968405E+03  0.13756600522E+04  0.17249460037E+04  0.00000000000E+00 0.  1.
         22    1    1    2    0    0  0.53738455614E+03 -0.13695711569E+04 -0.60831842448E+03  0.15920297172E+04  0.00000000000E+00 0. -1.
<mgrwt>
<rscale>  0 0.37752545E+04</rscale>
<asrwt>0</asrwt>
<pdfrwt beam="1">  1        2 0.40481538E+00 0.37752545E+04</pdfrwt>
<pdfrwt beam="2">  1       -2 0.20832854E+00 0.37752545E+04</pdfrwt>
<totfact> 0.27504479E-01</totfact>
</mgrwt>
</event>
<event>
 6    1  0.5026615E-004  0.1717177E+04  0.7818608E-02  0.8751628E-01
          2   -1    0    0  501    0  0.00000000000E+00  0.00000000000E+00  0.44973250903E+03  0.44973250903E+03  0.00000000000E+00 0.  1.
         -2   -1    0    0    0  501 -0.00000000000E+00 -0.00000000000E+00 -0.16391389956E+04  0.16391389956E+04  0.00000000000E+00 0. -1.
         23    2    1    2    0    0  0.51599178463E+02  0.85459580138E+03 -0.59912308846E+03  0.10489527823E+04  0.91416658517E+02 0.  0.
         11    1    3    3    0    0  0.12719963545E+02  0.54800037765E+03 -0.42978771559E+03  0.69655128444E+03  0.00000000000E+00 0. -1.
        -11    1    3    3    0    0  0.38879214917E+02  0.30659542373E+03 -0.16933537287E+03  0.35240149788E+03  0.00000000000E+00 0.  1.
         22    1    1    2    0    0 -0.51599178463E+02 -0.85459580138E+03 -0.59028339811E+03  0.10399187223E+04  0.00000000000E+00 0. -1.
<mgrwt>
<rscale>  0 0.17171769E+04</rscale>
<asrwt>0</asrwt>
<pdfrwt beam="1">  1        2 0.69189617E-01 0.17171769E+04</pdfrwt>
<pdfrwt beam="2">  1       -2 0.25217523E+00 0.17171769E+04</pdfrwt>
<totfact> 0.41214576E+00</totfact>
</mgrwt>
</event>
<event>
 6    1  0.5026615E-004  0.2199708E+04  0.7818608E-02  0.8518549E-01
         -2   -1    0    0    0  501 -0.00000000000E+00  0.00000000000E+00  0.46512195630E+03  0.46512195630E+03  0.00000000000E+00 0. -1.
          2   -1    0    0  501    0  0.00000000000E+00 -0.00000000000E+00 -0.26007788105E+04  0.26007788105E+04  0.00000000000E+00 0.  1.
         23    2    1    2    0    0 -0.72820037569E+03 -0.39197221282E+03 -0.20762640366E+04  0.22367774289E+04  0.91558253350E+02 0.  0.
         13    1    3    3    0    0 -0.57972040899E+03 -0.27507219838E+03 -0.16564175457E+04  0.17763613237E+04  0.00000000000E+00 0.  1.
        -13    1    3    3    0    0 -0.14847996670E+03 -0.11690001444E+03 -0.41984649096E+03  0.46041610513E+03  0.00000000000E+00 0. -1.
         22    1    1    2    0    0  0.72820037569E+03  0.39197221282E+03 -0.59392817618E+02  0.82912333797E+03  0.00000000000E+00 0. -1.
<mgrwt>
<rscale>  0 0.21997085E+04</rscale>
<asrwt>0</asrwt>
<pdfrwt beam="1">  1        2 0.40011983E+00 0.21997085E+04</pdfrwt>
<pdfrwt beam="2">  1       -2 0.71557222E-01 0.21997085E+04</pdfrwt>
<totfact> 0.49235484E+00</totfact>
</mgrwt>
</event>
<event>
 6    1  0.5026615E-004  0.9399084E+03  0.7818608E-02  0.9377025E-01
          2   -1    0    0  501    0  0.00000000000E+00  0.00000000000E+00  0.43958856363E+03  0.43958856363E+03  0.00000000000E+00 0.  1.
         -2   -1    0    0    0  501 -0.00000000000E+00 -0.00000000000E+00 -0.50241736304E+03  0.50241736304E+03  0.00000000000E+00 0. -1.
         23    2    1    2    0    0 -0.20443693689E+03  0.24539364141E+03 -0.37087663172E+03  0.49826504801E+03  0.93306386168E+02 0.  0.
         13    1    3    3    0    0 -0.51279126459E+01  0.44232022216E+02 -0.24358327393E+02  0.50755249885E+02  0.00000000000E+00 0. -1.
        -13    1    3    3    0    0 -0.19930902425E+03  0.20116161919E+03 -0.34651830433E+03  0.44750979812E+03  0.00000000000E+00 0.  1.
         22    1    1    2    0    0  0.20443693689E+03 -0.24539364141E+03  0.30804783231E+03  0.44374087867E+03  0.00000000000E+00 0.  1.
<mgrwt>
<rscale>  0 0.93990835E+03</rscale>
<asrwt>0</asrwt>
<pdfrwt beam="1">  1        2 0.67629010E-01 0.93990835E+03</pdfrwt>
<pdfrwt beam="2">  1       -2 0.77294978E-01 0.93990835E+03</pdfrwt>
<totfact> 0.10689635E+02</totfact>
</mgrwt>
</event>
<event>
 6    1  0.5026615E-004  0.3675303E+04  0.7818608E-02  0.8073457E-01
          2   -1    0    0  501    0  0.00000000000E+00  0.00000000000E+00  0.19858451122E+04  0.19858451122E+04  0.00000000000E+00 0.  1.
         -2   -1    0    0    0  501 -0.00000000000E+00 -0.00000000000E+00 -0.17005169851E+04  0.17005169851E+04  0.00000000000E+00 0. -1.
         23    2    1    2    0    0 -0.14330715897E+04 -0.11018903786E+04 -0.18216772852E+03  0.18191692945E+04  0.91297606894E+02 0.  0.
         11    1    3    3    0    0 -0.10473873976E+04 -0.81310001642E+03 -0.93399123391E+02  0.13292386519E+04  0.00000000000E+00 0. -1.
        -11    1    3    3    0    0 -0.38568419211E+03 -0.28879036219E+03 -0.88768605133E+02  0.48993064264E+03  0.00000000000E+00 0.  1.
         22    1    1    2    0    0  0.14330715897E+04  0.11018903786E+04  0.46749585564E+03  0.18671928028E+04  0.00000000000E+00 0.  1.
<mgrwt>
<rscale>  0 0.36753032E+04</rscale>
<asrwt>0</asrwt>
<pdfrwt beam="1">  1        2 0.30551463E+00 0.36753032E+04</pdfrwt>
<pdfrwt beam="2">  1       -2 0.26161800E+00 0.36753032E+04</pdfrwt>
<totfact> 0.30056679E-01</totfact>
</mgrwt>
</event>
<event>
 6    1  0.5026615E-004  0.1257432E+04  0.7818608E-02  0.9064020E-01
          2   -1    0    0  501    0  0.00000000000E+00  0.00000000000E+00  0.10084652121E+04  0.10084652121E+04  0.00000000000E+00 0.  1.
         -2   -1    0    0    0  501 -0.00000000000E+00 -0.00000000000E+00 -0.39196599472E+03  0.39196599472E+03  0.00000000000E+00 0. -1.
         23    2    1    2    0    0 -0.32709766717E+03  0.51235116693E+03  0.47341020365E+03  0.77595457155E+03  0.92150279820E+02 0.  0.
         11    1    3    3    0    0 -0.20016043610E+03  0.32743107632E+03  0.24206778233E+03  0.45373133147E+03  0.00000000000E+00 0. -1.
        -11    1    3    3    0    0 -0.12693723107E+03  0.18492009060E+03  0.23134242133E+03  0.32222324008E+03  0.00000000000E+00 0.  1.
         22    1    1    2    0    0  0.32709766717E+03 -0.51235116693E+03  0.14308901369E+03  0.62447663524E+03  0.00000000000E+00 0.  1.
<mgrwt>
<rscale>  0 0.12574324E+04</rscale>
<asrwt>0</asrwt>
<pdfrwt beam="1">  1        2 0.15514849E+00 0.12574324E+04</pdfrwt>
<pdfrwt beam="2">  1       -2 0.60302461E-01 0.12574324E+04</pdfrwt>
<totfact> 0.62666792E+01</totfact>
</mgrwt>
</event>
<event>
 6    1  0.5026615E-004  0.2634819E+04  0.7818608E-02  0.8356469E-01
         -2   -1    0    0    0  501 -0.00000000000E+00  0.00000000000E+00  0.40735199717E+03  0.40735199717E+03  0.00000000000E+00 0. -1.
          2   -1    0    0  501    0  0.00000000000E+00 -0.00000000000E+00 -0.42606090432E+04  0.42606090432E+04  0.00000000000E+00 0.  1.
         23    2    1    2    0    0  0.51044426111E+02 -0.20679829825E+03 -0.42293656521E+04  0.42357241224E+04  0.91945378365E+02 0.  0.
         13    1    3    3    0    0 -0.10451087932E+02 -0.11489877569E+03 -0.16767708801E+04  0.16807354159E+04  0.00000000000E+00 0.  1.
        -13    1    3    3    0    0  0.61495514043E+02 -0.91899522569E+02 -0.25525947720E+04  0.25549887066E+04  0.00000000000E+00 0. -1.
         22    1    1    2    0    0 -0.51044426111E+02  0.20679829825E+03  0.37610860611E+03  0.43223691789E+03  0.00000000000E+00 0. -1.
<mgrwt>
<rscale>  0 0.26348189E+04</rscale>
<asrwt>0</asrwt>
<pdfrwt beam="1">  1        2 0.65547831E+00 0.26348189E+04</pdfrwt>
<pdfrwt beam="2">  1       -2 0.62669539E-01 0.26348189E+04</pdfrwt>
<totfact> 0.42962626E-01</totfact>
</mgrwt>
</event>
<event>
 6    1  0.5026615E-004  0.1717486E+04  0.7818608E-02  0.8751454E-01
         -2   -1    0    0    0  501 -0.00000000000E+00  0.00000000000E+00  0.51625395224E+03  0.51625395224E+03  0.00000000000E+00 0. -1.
          2   -1    0    0  501    0  0.00000000000E+00 -0.00000000000E+00 -0.14284437846E+04  0.14284437846E+04  0.00000000000E+00 0.  1.
         23    2    1    2    0    0 -0.39937901613E+03 -0.53208719911E+03 -0.10677716564E+04  0.12614510098E+04  0.92206040986E+02 0.  0.
         11    1    3    3    0    0 -0.12650031052E+03 -0.11118358908E+03 -0.30767980586E+03  0.35075772547E+03  0.00000000000E+00 0.  1.
        -11    1    3    3    0    0 -0.27287870562E+03 -0.42090361003E+03 -0.76009185053E+03  0.91069328435E+03  0.00000000000E+00 0. -1.
         22    1    1    2    0    0  0.39937901613E+03  0.53208719911E+03  0.15558182405E+03  0.68324672700E+03  0.00000000000E+00 0. -1.
<mgrwt>
<rscale>  0 0.17174862E+04</rscale>
<asrwt>0</asrwt>
<pdfrwt beam="1">  1        2 0.21976058E+00 0.17174862E+04</pdfrwt>
<pdfrwt beam="2">  1       -2 0.79423686E-01 0.17174862E+04</pdfrwt>
<totfact> 0.18609352E+01</totfact>
</mgrwt>
</event>
<event>
 6    1  0.5026615E-004  0.3632084E+04  0.7818608E-02  0.8083182E-01
          2   -1    0    0  501    0  0.00000000000E+00  0.00000000000E+00  0.37848260139E+04  0.37848260139E+04  0.00000000000E+00 0.  1.
         -2   -1    0    0    0  501 -0.00000000000E+00 -0.00000000000E+00 -0.87137672673E+03  0.87137672673E+03  0.00000000000E+00 0. -1.
         23    2    1    2    0    0 -0.17726116898E+04 -0.36756682122E+03  0.16237344044E+04  0.24334517313E+04  0.88973825457E+02 0.  0.
         11    1    3    3    0    0 -0.11745115756E+04 -0.27319338392E+03  0.11213164696E+04  0.16466519641E+04  0.00000000000E+00 0.  1.
        -11    1    3    3    0    0 -0.59810011423E+03 -0.94373437300E+02  0.50241793485E+03  0.78679976713E+03  0.00000000000E+00 0. -1.
         22    1    1    2    0    0  0.17726116898E+04  0.36756682122E+03  0.12897148828E+04  0.22227510094E+04  0.00000000000E+00 0.  1.
<mgrwt>
<rscale>  0 0.36320844E+04</rscale>
<asrwt>0</asrwt>
<pdfrwt beam="1">  1        2 0.58228092E+00 0.36320844E+04</pdfrwt>
<pdfrwt beam="2">  1       -2 0.13405796E+00 0.36320844E+04</pdfrwt>
<totfact> 0.16426412E-01</totfact>
</mgrwt>
</event>
<event>
 6    1  0.5026615E-004  0.1537542E+04  0.7818608E-02  0.8859865E-01
         -2   -1    0    0    0  501 -0.00000000000E+00  0.00000000000E+00  0.46198570716E+03  0.46198570716E+03  0.00000000000E+00 0. -1.
          2   -1    0    0  501    0  0.00000000000E+00 -0.00000000000E+00 -0.12792793182E+04  0.12792793182E+04  0.00000000000E+00 0.  1.
         23    2    1    2    0    0  0.51162124722E+03 -0.51436388412E+03 -0.13168094110E+03  0.74307103665E+03  0.92131370116E+02 0.  0.
         11    1    3    3    0    0  0.50169009997E+03 -0.49097200184E+03 -0.14104318987E+03  0.71598857841E+03  0.00000000000E+00 0.  1.
        -11    1    3    3    0    0  0.99311472493E+01 -0.23391882277E+02  0.93622487710E+01  0.27082458238E+02  0.00000000000E+00 0. -1.
         22    1    1    2    0    0 -0.51162124722E+03  0.51436388412E+03 -0.68561266994E+03  0.99819398870E+03  0.00000000000E+00 0.  1.
<mgrwt>
<rscale>  0 0.15375419E+04</rscale>
<asrwt>0</asrwt>
<pdfrwt beam="1">  1        2 0.19681220E+00 0.15375419E+04</pdfrwt>
<pdfrwt beam="2">  1       -2 0.71074725E-01 0.15375419E+04</pdfrwt>
<totfact> 0.29448548E+01</totfact>
</mgrwt>
</event>
<event>
 6    1  0.5026615E-004  0.2422083E+04  0.7818608E-02  0.8431282E-01
          2   -1    0    0  501    0  0.00000000000E+00  0.00000000000E+00  0.16125419776E+04  0.16125419776E+04  0.00000000000E+00 0.  1.
         -2   -1    0    0    0  501 -0.00000000000E+00 -0.00000000000E+00 -0.90950874170E+03  0.90950874170E+03  0.00000000000E+00 0. -1.
         23    2    1    2    0    0  0.72255050693E+03 -0.80611640626E+03 -0.20902209026E+03  0.11065127250E+04  0.93687142992E+02 0.  0.
         11    1    3    3    0    0  0.39934037523E+03 -0.38345990027E+03 -0.12883160786E+03  0.56842925117E+03  0.00000000000E+00 0. -1.
        -11    1    3    3    0    0  0.32321013169E+03 -0.42265650599E+03 -0.80190482399E+02  0.53808347378E+03  0.00000000000E+00 0.  1.
         22    1    1    2    0    0 -0.72255050693E+03  0.80611640626E+03  0.91205532618E+03  0.14155379944E+04  0.00000000000E+00 0.  1.
<mgrwt>
<rscale>  0 0.24220826E+04</rscale>
<asrwt>0</asrwt>
<pdfrwt beam="1">  1        2 0.24808338E+00 0.24220826E+04</pdfrwt>
<pdfrwt beam="2">  1       -2 0.13992442E+00 0.24220826E+04</pdfrwt>
<totfact> 0.35431153E+00</totfact>
</mgrwt>
</event>
<event>
 6    1  0.5026615E-004  0.1752649E+04  0.7818608E-02  0.8731893E-01
          2   -1    0    0  501    0  0.00000000000E+00  0.00000000000E+00  0.43024064839E+03  0.43024064839E+03  0.00000000000E+00 0.  1.
         -2   -1    0    0    0  501 -0.00000000000E+00 -0.00000000000E+00 -0.17849197053E+04  0.17849197053E+04  0.00000000000E+00 0. -1.
         23    2    1    2    0    0  0.85362108613E+03  0.71253440734E+02 -0.89805389014E+03  0.12444634111E+04  0.91882426885E+02 0.  0.
         11    1    3    3    0    0  0.32649493151E+03  0.92055899060E+01 -0.28413096351E+03  0.43291348745E+03  0.00000000000E+00 0.  1.
        -11    1    3    3    0    0  0.52712615461E+03  0.62047850828E+02 -0.61392292663E+03  0.81154992361E+03  0.00000000000E+00 0. -1.
         22    1    1    2    0    0 -0.85362108613E+03 -0.71253440734E+02 -0.45662516677E+03  0.97069694263E+03  0.00000000000E+00 0.  1.
<mgrwt>
<rscale>  0 0.17526494E+04</rscale>
<asrwt>0</asrwt>
<pdfrwt beam="1">  1        2 0.66190869E-01 0.17526494E+04</pdfrwt>
<pdfrwt beam="2">  1       -2 0.27460303E+00 0.17526494E+04</pdfrwt>
<totfact> 0.31543681E+00</totfact>
</mgrwt>
</event>
<event>
 6    1  0.5026615E-004  0.5444364E+04  0.7818608E-02  0.7763391E-01
         -2   -1    0    0    0  501 -0.00000000000E+00  0.00000000000E+00  0.24985472602E+04  0.24985472602E+04  0.00000000000E+00 0. -1.
          2   -1    0    0  501    0  0.00000000000E+00 -0.00000000000E+00 -0.29658332983E+04  0.29658332983E+04  0.00000000000E+00 0.  1.
         23    2    1    2    0    0  0.13040722159E+04  0.23673979931E+04  0.85650346538E+02  0.27055916488E+04  0.87821331706E+02 0.  0.
         13    1    3    3    0    0  0.85041118238E+03  0.15710382179E+04  0.17126322202E+02  0.17865199613E+04  0.00000000000E+00 0. -1.
        -13    1    3    3    0    0  0.45366103356E+03  0.79635977524E+03  0.68524024336E+02  0.91907168758E+03  0.00000000000E+00 0.  1.
         22    1    1    2    0    0 -0.13040722159E+04 -0.23673979931E+04 -0.55293638463E+03  0.27587889096E+04  0.00000000000E+00 0.  1.
<mgrwt>
<rscale>  0 0.54443639E+04</rscale>
<asrwt>0</asrwt>
<pdfrwt beam="1">  1        2 0.45628204E+00 0.54443639E+04</pdfrwt>
<pdfrwt beam="2">  1       -2 0.38439189E+00 0.54443639E+04</pdfrwt>
<totfact> 0.12058883E-02</totfact>
</mgrwt>
</event>
<event>
 6    1  0.5026615E-004  0.3209991E+04  0.7818608E-02  0.8186184E-01
         -2   -1    0    0    0  501 -0.00000000000E+00  0.00000000000E+00  0.78010907589E+03  0.78010907589E+03  0.00000000000E+00 0.  1.
          2   -1    0    0  501    0  0.00000000000E+00 -0.00000000000E+00 -0.33021161028E+04  0.33021161028E+04  0.00000000000E+00 0. -1.
         23    2    1    2    0    0  0.84582226402E+03  0.93016818577E+03 -0.25281609270E+04  0.28249797665E+04  0.91021164048E+02 0.  0.
         11    1    3    3    0    0  0.77324590952E+03  0.83105603323E+03 -0.23304889162E+04  0.25922465075E+04  0.00000000000E+00 0. -1.
        -11    1    3    3    0    0  0.72576354506E+02  0.99112152541E+02 -0.19767201077E+03  0.23273325903E+03  0.00000000000E+00 0.  1.
         22    1    1    2    0    0 -0.84582226402E+03 -0.93016818577E+03  0.61539000155E+01  0.12572454122E+04  0.00000000000E+00 0.  1.
<mgrwt>
<rscale>  0 0.32099911E+04</rscale>
<asrwt>0</asrwt>
<pdfrwt beam="1">  1        2 0.50801786E+00 0.32099911E+04</pdfrwt>
<pdfrwt beam="2">  1       -2 0.12001678E+00 0.32099911E+04</pdfrwt>
<totfact> 0.49531585E-01</totfact>
</mgrwt>
</event>
<event>
 6    1  0.5026615E-004  0.4256647E+04  0.7818608E-02  0.7954684E-01
         -2   -1    0    0    0  501 -0.00000000000E+00  0.00000000000E+00  0.16059131786E+04  0.16059131786E+04  0.00000000000E+00 0. -1.
          2   -1    0    0  501    0  0.00000000000E+00 -0.00000000000E+00 -0.28206755858E+04  0.28206755858E+04  0.00000000000E+00 0.  1.
         23    2    1    2    0    0  0.55567085821E+03  0.20370212358E+04 -0.87761561912E+03  0.22883900893E+04  0.91073641425E+02 0.  0.
         11    1    3    3    0    0  0.41875281068E+03  0.15943106837E+04 -0.64748326059E+03  0.17709926723E+04  0.00000000000E+00 0. -1.
        -11    1    3    3    0    0  0.13691804753E+03  0.44271055207E+03 -0.23013235853E+03  0.51739741698E+03  0.00000000000E+00 0.  1.
         22    1    1    2    0    0 -0.55567085821E+03 -0.20370212358E+04 -0.33714678801E+03  0.21381986751E+04  0.00000000000E+00 0.  1.
<mgrwt>
<rscale>  0 0.42566466E+04</rscale>
<asrwt>0</asrwt>
<pdfrwt beam="1">  1        2 0.43395009E+00 0.42566466E+04</pdfrwt>
<pdfrwt beam="2">  1       -2 0.24706357E+00 0.42566466E+04</pdfrwt>
<totfact> 0.11627283E-01</totfact>
</mgrwt>
</event>
<event>
 6    1  0.5026615E-004  0.2202137E+04  0.7818608E-02  0.8517539E-01
          2   -1    0    0  501    0  0.00000000000E+00  0.00000000000E+00  0.19236699663E+04  0.19236699663E+04  0.00000000000E+00 0.  1.
         -2   -1    0    0    0  501 -0.00000000000E+00 -0.00000000000E+00 -0.63022853771E+03  0.63022853771E+03  0.00000000000E+00 0. -1.
         23    2    1    2    0    0 -0.72867959848E+03 -0.61745032487E+03  0.16876452578E+02  0.95958454531E+03  0.91097881527E+02 0.  0.
         13    1    3    3    0    0 -0.60539822883E+03 -0.47465228591E+03  0.34869583035E+02  0.77007642206E+03  0.00000000000E+00 0. -1.
        -13    1    3    3    0    0 -0.12328136965E+03 -0.14279803896E+03 -0.17993130457E+02  0.18950812325E+03  0.00000000000E+00 0.  1.
         22    1    1    2    0    0  0.72867959848E+03  0.61745032487E+03  0.12765649760E+04  0.15943139587E+04  0.00000000000E+00 0.  1.
<mgrwt>
<rscale>  0 0.22021369E+04</rscale>
<asrwt>0</asrwt>
<pdfrwt beam="1">  1        2 0.29594922E+00 0.22021369E+04</pdfrwt>
<pdfrwt beam="2">  1       -2 0.96958237E-01 0.22021369E+04</pdfrwt>
<totfact> 0.59814019E+00</totfact>
</mgrwt>
</event>
<event>
 6    1  0.5026615E-004  0.1173809E+04  0.7818608E-02  0.9136096E-01
         -2   -1    0    0    0  501 -0.00000000000E+00  0.00000000000E+00  0.28239847173E+03  0.28239847173E+03  0.00000000000E+00 0. -1.
          2   -1    0    0  501    0  0.00000000000E+00 -0.00000000000E+00 -0.12197546488E+04  0.12197546488E+04  0.00000000000E+00 0.  1.
         23    2    1    2    0    0  0.17010838503E+03 -0.37387265854E+03  0.60004494951E+02  0.42352160905E+03  0.83978488041E+02 0.  0.
         11    1    3    3    0    0  0.79867563845E+02 -0.21211540941E+03  0.72251340762E+02  0.23789079618E+03  0.00000000000E+00 0. -1.
        -11    1    3    3    0    0  0.90240821187E+02 -0.16175724913E+03 -0.12246845811E+02  0.18563081287E+03  0.00000000000E+00 0.  1.
         22    1    1    2    0    0 -0.17010838503E+03  0.37387265854E+03 -0.99736067205E+03  0.10786315115E+04  0.00000000000E+00 0.  1.
<mgrwt>
<rscale>  0 0.11738089E+04</rscale>
<asrwt>0</asrwt>
<pdfrwt beam="1">  1        2 0.18765456E+00 0.11738089E+04</pdfrwt>
<pdfrwt beam="2">  1       -2 0.43445919E-01 0.11738089E+04</pdfrwt>
<totfact> 0.91477101E+01</totfact>
</mgrwt>
</event>
<event>
 6    1  0.5026615E-004  0.2293151E+04  0.7818608E-02  0.8480627E-01
         -2   -1    0    0    0  501 -0.00000000000E+00  0.00000000000E+00  0.12249293623E+04  0.12249293623E+04  0.00000000000E+00 0. -1.
          2   -1    0    0  501    0  0.00000000000E+00 -0.00000000000E+00 -0.10732334790E+04  0.10732334790E+04  0.00000000000E+00 0.  1.
         23    2    1    2    0    0 -0.73031226479E+03 -0.63461779173E+02  0.95714526195E+03  0.12090659204E+04  0.91268536885E+02 0.  0.
         13    1    3    3    0    0 -0.26728098320E+03  0.18631081226E+02  0.36987118790E+03  0.45671756788E+03  0.00000000000E+00 0. -1.
        -13    1    3    3    0    0 -0.46303128160E+03 -0.82092860398E+02  0.58727407405E+03  0.75234835250E+03  0.00000000000E+00 0.  1.
         22    1    1    2    0    0  0.73031226479E+03  0.63461779173E+02 -0.80544937863E+03  0.10890969209E+04  0.00000000000E+00 0.  1.
<mgrwt>
<rscale>  0 0.22931508E+04</rscale>
<asrwt>0</asrwt>
<pdfrwt beam="1">  1        2 0.16511284E+00 0.22931508E+04</pdfrwt>
<pdfrwt beam="2">  1       -2 0.18845067E+00 0.22931508E+04</pdfrwt>
<totfact> 0.32596557E+00</totfact>
</mgrwt>
</event>
<event>
 6    1  0.5026615E-004  0.1835832E+04  0.7818608E-02  0.8687473E-01
          2   -1    0    0  501    0  0.00000000000E+00  0.00000000000E+00  0.25918349723E+04  0.25918349723E+04  0.00000000000E+00 0.  1.
         -2   -1    0    0    0  501 -0.00000000000E+00 -0.00000000000E+00 -0.32508619267E+03  0.32508619267E+03  0.00000000000E+00 0. -1.
         23    2    1    2    0    0 -0.65917767653E+03 -0.48293611243E+03  0.17921805892E+04  0.19719568983E+04  0.94658578469E+02 0.  0.
         13    1    3    3    0    0 -0.14512355919E+03 -0.70177090166E+02  0.29814072543E+03  0.33893002755E+03  0.00000000000E+00 0. -1.
        -13    1    3    3    0    0 -0.51405411734E+03 -0.41275902227E+03  0.14940398638E+04  0.16330268708E+04  0.00000000000E+00 0.  1.
         22    1    1    2    0    0  0.65917767653E+03  0.48293611243E+03  0.47456819040E+03  0.94496426666E+03  0.00000000000E+00 0. -1.
<mgrwt>
<rscale>  0 0.18358320E+04</rscale>
<asrwt>0</asrwt>
<pdfrwt beam="1">  1        2 0.39874383E+00 0.18358320E+04</pdfrwt>
<pdfrwt beam="2">  1       -2 0.50013262E-01 0.18358320E+04</pdfrwt>
<totfact> 0.10970732E+01</totfact>
</mgrwt>
</event>
<event>
 6    1  0.5026615E-004  0.1806513E+04  0.7818608E-02  0.8702844E-01
         -2   -1    0    0    0  501 -0.00000000000E+00  0.00000000000E+00  0.10954102678E+04  0.10954102678E+04  0.00000000000E+00 0. -1.
          2   -1    0    0  501    0  0.00000000000E+00 -0.00000000000E+00 -0.74480990760E+03  0.74480990760E+03  0.00000000000E+00 0.  1.
         23    2    1    2    0    0 -0.28685530225E+03 -0.42153547371E+03 -0.58074479974E+03  0.77843774621E+03  0.93395301129E+02 0.  0.
         13    1    3    3    0    0 -0.88082976964E+02 -0.69689709659E+02 -0.99760428027E+02  0.15022453017E+03  0.00000000000E+00 0. -1.
        -13    1    3    3    0    0 -0.19877232529E+03 -0.35184576405E+03 -0.48098437171E+03  0.62821321604E+03  0.00000000000E+00 0.  1.
         22    1    1    2    0    0  0.28685530225E+03  0.42153547371E+03  0.93134515998E+03  0.10617824292E+04  0.00000000000E+00 0. -1.
<mgrwt>
<rscale>  0 0.18065131E+04</rscale>
<asrwt>0</asrwt>
<pdfrwt beam="1">  1        2 0.11458614E+00 0.18065131E+04</pdfrwt>
<pdfrwt beam="2">  1       -2 0.16852466E+00 0.18065131E+04</pdfrwt>
<totfact> 0.77919867E+00</totfact>
</mgrwt>
</event>
<event>
 6    1  0.5026615E-004  0.5866321E+04  0.7818608E-02  0.7707201E-01
         -2   -1    0    0    0  501 -0.00000000000E+00  0.00000000000E+00  0.21147059608E+04  0.21147059608E+04  0.00000000000E+00 0. -1.
          2   -1    0    0  501    0  0.00000000000E+00 -0.00000000000E+00 -0.40683816381E+04  0.40683816381E+04  0.00000000000E+00 0.  1.
         23    2    1    2    0    0 -0.75932473312E+03  0.26273741223E+04  0.13820283036E+03  0.27398878486E+04  0.90645306552E+02 0.  0.
         11    1    3    3    0    0 -0.24782197586E+03  0.89708994973E+03  0.54783654001E+01  0.93070732355E+03  0.00000000000E+00 0.  1.
        -11    1    3    3    0    0 -0.51150275725E+03  0.17302841726E+04  0.13272446496E+03  0.18091805251E+04  0.00000000000E+00 0. -1.
         22    1    1    2    0    0  0.75932473312E+03 -0.26273741223E+04 -0.20918785077E+04  0.34431997503E+04  0.00000000000E+00 0.  1.
<mgrwt>
<rscale>  0 0.58663211E+04</rscale>
<asrwt>0</asrwt>
<pdfrwt beam="1">  1        2 0.62590486E+00 0.58663211E+04</pdfrwt>
<pdfrwt beam="2">  1       -2 0.32533938E+00 0.58663211E+04</pdfrwt>
<totfact> 0.45106181E-03</totfact>
</mgrwt>
</event>
<event>
 6    1  0.5026615E-004  0.1211551E+04  0.7818608E-02  0.9102805E-01
         -4   -1    0    0    0  501 -0.00000000000E+00  0.00000000000E+00  0.37092477672E+03  0.37092477672E+03  0.00000000000E+00 0. -1.
          4   -1    0    0  501    0  0.00000000000E+00 -0.00000000000E+00 -0.98932243953E+03  0.98932243953E+03  0.00000000000E+00 0.  1.
         23    2    1    2    0    0 -0.15545968963E+03  0.40912667895E+03 -0.77624705900E+03  0.89498515418E+03  0.82985390645E+02 0.  0.
         11    1    3    3    0    0  0.47371317026E+01  0.28411213196E+02 -0.27272748424E+02  0.39666613904E+02  0.00000000000E+00 0. -1.
        -11    1    3    3    0    0 -0.16019682133E+03  0.38071546575E+03 -0.74897431058E+03  0.85531854027E+03  0.00000000000E+00 0.  1.
         22    1    1    2    0    0  0.15545968963E+03 -0.40912667895E+03  0.15784939619E+03  0.46526206207E+03  0.00000000000E+00 0. -1.
<mgrwt>
<rscale>  0 0.12115514E+04</rscale>
<asrwt>0</asrwt>
<pdfrwt beam="1">  1        4 0.15220345E+00 0.12115514E+04</pdfrwt>
<pdfrwt beam="2">  1       -4 0.57065351E-01 0.12115514E+04</pdfrwt>
<totfact> 0.16450130E+00</totfact>
</mgrwt>
</event>
<event>
 6    1  0.5026615E-004  0.2562017E+04  0.7818608E-02  0.8381219E-01
         -2   -1    0    0    0  501 -0.00000000000E+00  0.00000000000E+00  0.74113362645E+03  0.74113362645E+03  0.00000000000E+00 0. -1.
          2   -1    0    0  501    0  0.00000000000E+00 -0.00000000000E+00 -0.22141519402E+04  0.22141519402E+04  0.00000000000E+00 0.  1.
         23    2    1    2    0    0 -0.59010678080E+03 -0.27013908164E+03  0.53437687845E+03  0.84558497324E+03  0.90852421882E+02 0.  0.
         13    1    3    3    0    0 -0.43453515963E+03 -0.19593879149E+03  0.33827422984E+03  0.58450172757E+03  0.00000000000E+00 0. -1.
        -13    1    3    3    0    0 -0.15557162117E+03 -0.74200290157E+02  0.19610264861E+03  0.26108324567E+03  0.00000000000E+00 0.  1.
         22    1    1    2    0    0  0.59010678080E+03  0.27013908164E+03 -0.20073951922E+04  0.21097005934E+04  0.00000000000E+00 0.  1.
<mgrwt>
<rscale>  0 0.25620168E+04</rscale>
<asrwt>0</asrwt>
<pdfrwt beam="1">  1        2 0.34063876E+00 0.25620168E+04</pdfrwt>
<pdfrwt beam="2">  1       -2 0.11402056E+00 0.25620168E+04</pdfrwt>
<totfact> 0.27083350E+00</totfact>
</mgrwt>
</event>
<event>
 6    1  0.5026615E-004  0.3855518E+04  0.7818608E-02  0.8034345E-01
         -1   -1    0    0    0  501 -0.00000000000E+00  0.00000000000E+00  0.40727250640E+04  0.40727250640E+04  0.00000000000E+00 0.  1.
          1   -1    0    0  501    0  0.00000000000E+00 -0.00000000000E+00 -0.91247383384E+03  0.91247383384E+03  0.00000000000E+00 0. -1.
         23    2    1    2    0    0 -0.10002772762E+04  0.15508671363E+04  0.86506162830E+03  0.20400946871E+04  0.88944969430E+02 0.  0.
         13    1    3    3    0    0 -0.16137509559E+03  0.24592146859E+03  0.10266421931E+03  0.31154330697E+03  0.00000000000E+00 0.  1.
        -13    1    3    3    0    0 -0.83890218066E+03  0.13049456677E+04  0.76239740899E+03  0.17285513801E+04  0.00000000000E+00 0. -1.
         22    1    1    2    0    0  0.10002772762E+04 -0.15508671363E+04  0.22951896019E+04  0.29451042108E+04  0.00000000000E+00 0.  1.
<mgrwt>
<rscale>  0 0.38555182E+04</rscale>
<asrwt>0</asrwt>
<pdfrwt beam="1">  1        1 0.14038059E+00 0.38555182E+04</pdfrwt>
<pdfrwt beam="2">  1       -1 0.62657308E+00 0.38555182E+04</pdfrwt>
<totfact> 0.49337558E-03</totfact>
</mgrwt>
</event>
<event>
 6    1  0.5026615E-004  0.3628538E+04  0.7818608E-02  0.8083986E-01
         -2   -1    0    0    0  501 -0.00000000000E+00  0.00000000000E+00  0.13968403064E+04  0.13968403064E+04  0.00000000000E+00 0. -1.
          2   -1    0    0  501    0  0.00000000000E+00 -0.00000000000E+00 -0.23564416413E+04  0.23564416413E+04  0.00000000000E+00 0.  1.
         23    2    1    2    0    0 -0.14060822001E+04 -0.58834794359E+03 -0.14958114371E+04  0.21375029623E+04  0.90810805234E+02 0.  0.
         13    1    3    3    0    0 -0.66331120994E+03 -0.23087026339E+03 -0.66866484994E+03  0.96973992456E+03  0.00000000000E+00 0.  1.
        -13    1    3    3    0    0 -0.74277099012E+03 -0.35747768020E+03 -0.82714658716E+03  0.11677630377E+04  0.00000000000E+00 0. -1.
         22    1    1    2    0    0  0.14060822001E+04  0.58834794359E+03  0.53621010220E+03  0.16157789854E+04  0.00000000000E+00 0. -1.
<mgrwt>
<rscale>  0 0.36285384E+04</rscale>
<asrwt>0</asrwt>
<pdfrwt beam="1">  1        2 0.36252948E+00 0.36285384E+04</pdfrwt>
<pdfrwt beam="2">  1       -2 0.21489851E+00 0.36285384E+04</pdfrwt>
<totfact> 0.36464045E-01</totfact>
</mgrwt>
</event>
<event>
 6    1  0.5026615E-004  0.3847770E+04  0.7818608E-02  0.8035981E-01
          2   -1    0    0  501    0  0.00000000000E+00  0.00000000000E+00  0.22295634797E+04  0.22295634797E+04  0.00000000000E+00 0.  1.
         -2   -1    0    0    0  501 -0.00000000000E+00 -0.00000000000E+00 -0.16601153866E+04  0.16601153866E+04  0.00000000000E+00 0. -1.
         23    2    1    2    0    0 -0.14636325580E+03  0.47308971729E+03  0.21630530486E+04  0.22209030164E+04  0.91518489912E+02 0.  0.
         13    1    3    3    0    0 -0.38604045996E+02  0.26360573822E+03  0.10590970148E+04  0.10920919120E+04  0.00000000000E+00 0.  1.
        -13    1    3    3    0    0 -0.10775920980E+03  0.20948397906E+03  0.11039560338E+04  0.11288111043E+04  0.00000000000E+00 0. -1.
         22    1    1    2    0    0  0.14636325580E+03 -0.47308971729E+03 -0.15936049554E+04  0.16687758499E+04  0.00000000000E+00 0. -1.
<mgrwt>
<rscale>  0 0.38477696E+04</rscale>
<asrwt>0</asrwt>
<pdfrwt beam="1">  1        2 0.34300977E+00 0.38477696E+04</pdfrwt>
<pdfrwt beam="2">  1       -2 0.25540237E+00 0.38477696E+04</pdfrwt>
<totfact> 0.23630164E-01</totfact>
</mgrwt>
</event>
<event>
 6    1  0.5026615E-004  0.1922334E+04  0.7818608E-02  0.8643819E-01
          1   -1    0    0  501    0  0.00000000000E+00  0.00000000000E+00  0.25080256039E+04  0.25080256039E+04  0.00000000000E+00 0.  1.
         -1   -1    0    0    0  501 -0.00000000000E+00 -0.00000000000E+00 -0.36835413159E+03  0.36835413159E+03  0.00000000000E+00 0. -1.
         23    2    1    2    0    0  0.18457855647E+03 -0.56265371843E+03 -0.56228357978E+02  0.60203927833E+03  0.92958130578E+02 0.  0.
         13    1    3    3    0    0  0.80794194475E+02 -0.15646235880E+03 -0.48818873020E+02  0.18273328637E+03  0.00000000000E+00 0. -1.
        -13    1    3    3    0    0  0.10378436199E+03 -0.40619135963E+03 -0.74094849576E+01  0.41930599197E+03  0.00000000000E+00 0.  1.
         22    1    1    2    0    0 -0.18457855647E+03  0.56265371843E+03  0.21958998303E+04  0.22743404572E+04  0.00000000000E+00 0.  1.
<mgrwt>
<rscale>  0 0.19223336E+04</rscale>
<asrwt>0</asrwt>
<pdfrwt beam="1">  1        1 0.38585008E+00 0.19223336E+04</pdfrwt>
<pdfrwt beam="2">  1       -1 0.56669868E-01 0.19223336E+04</pdfrwt>
<totfact> 0.39393415E+00</totfact>
</mgrwt>
</event>
<event>
 6    1  0.5026615E-004  0.3396039E+04  0.7818608E-02  0.8138879E-01
          2   -1    0    0  501    0  0.00000000000E+00  0.00000000000E+00  0.12896120770E+04  0.12896120770E+04  0.00000000000E+00 0.  1.
         -2   -1    0    0    0  501 -0.00000000000E+00 -0.00000000000E+00 -0.22357660708E+04  0.22357660708E+04  0.00000000000E+00 0. -1.
         23    2    1    2    0    0  0.41743187084E+03  0.41418367896E+03  0.11788442855E+04  0.13205164346E+04  0.91062165123E+02 0.  0.
         11    1    3    3    0    0  0.19750712180E+03  0.13746679982E+03  0.51445814213E+03  0.56795542450E+03  0.00000000000E+00 0.  1.
        -11    1    3    3    0    0  0.21992474903E+03  0.27671687914E+03  0.66438614340E+03  0.75256101014E+03  0.00000000000E+00 0. -1.
         22    1    1    2    0    0 -0.41743187084E+03 -0.41418367896E+03 -0.21249982794E+04  0.22048617131E+04  0.00000000000E+00 0. -1.
<mgrwt>
<rscale>  0 0.33960394E+04</rscale>
<asrwt>0</asrwt>
<pdfrwt beam="1">  1        2 0.19840186E+00 0.33960394E+04</pdfrwt>
<pdfrwt beam="2">  1       -2 0.34396401E+00 0.33960394E+04</pdfrwt>
<totfact> 0.23581133E-01</totfact>
</mgrwt>
</event>
<event>
 6    1  0.5026615E-004  0.3718681E+04  0.7818608E-02  0.8063834E-01
         -2   -1    0    0    0  501 -0.00000000000E+00  0.00000000000E+00  0.85588860908E+03  0.85588860908E+03  0.00000000000E+00 0. -1.
          2   -1    0    0  501    0  0.00000000000E+00 -0.00000000000E+00 -0.40392487188E+04  0.40392487188E+04  0.00000000000E+00 0.  1.
         23    2    1    2    0    0 -0.17130001605E+04 -0.64247569784E+03 -0.20209013541E+04  0.27275453620E+04  0.91196744578E+02 0.  0.
         13    1    3    3    0    0 -0.15259284137E+03 -0.83699258478E+02 -0.20710656597E+03  0.27052406690E+03  0.00000000000E+00 0. -1.
        -13    1    3    3    0    0 -0.15604073192E+04 -0.55877643937E+03 -0.18137947882E+04  0.24570212951E+04  0.00000000000E+00 0.  1.
         22    1    1    2    0    0  0.17130001605E+04  0.64247569784E+03 -0.11624587556E+04  0.21675919659E+04  0.00000000000E+00 0. -1.
<mgrwt>
<rscale>  0 0.37186809E+04</rscale>
<asrwt>0</asrwt>
<pdfrwt beam="1">  1        2 0.62142288E+00 0.37186809E+04</pdfrwt>
<pdfrwt beam="2">  1       -2 0.13167517E+00 0.37186809E+04</pdfrwt>
<totfact> 0.10748611E-01</totfact>
</mgrwt>
</event>
<event>
 6    1  0.5026615E-004  0.1386992E+04  0.7818608E-02  0.8963289E-01
          2   -1    0    0  501    0  0.00000000000E+00  0.00000000000E+00  0.12361992991E+04  0.12361992991E+04  0.00000000000E+00 0.  1.
         -2   -1    0    0    0  501 -0.00000000000E+00 -0.00000000000E+00 -0.38904440065E+03  0.38904440065E+03  0.00000000000E+00 0. -1.
         23    2    1    2    0    0 -0.43541460489E+03 -0.14784976777E+03  0.10290444202E+04  0.11307447310E+04  0.90585848660E+02 0.  0.
         11    1    3    3    0    0 -0.28946144707E+03 -0.13122238612E+03  0.63232386326E+03  0.70770100466E+03  0.00000000000E+00 0. -1.
        -11    1    3    3    0    0 -0.14595315782E+03 -0.16627381657E+02  0.39672055695E+03  0.42304372635E+03  0.00000000000E+00 0.  1.
         22    1    1    2    0    0  0.43541460489E+03  0.14784976777E+03 -0.18188952174E+03  0.49449896875E+03  0.00000000000E+00 0. -1.
<mgrwt>
<rscale>  0 0.13869916E+04</rscale>
<asrwt>0</asrwt>
<pdfrwt beam="1">  1        2 0.19018451E+00 0.13869916E+04</pdfrwt>
<pdfrwt beam="2">  1       -2 0.59852985E-01 0.13869916E+04</pdfrwt>
<totfact> 0.45711224E+01</totfact>
</mgrwt>
</event>
<event>
 6    1  0.5026615E-004  0.1917363E+04  0.7818608E-02  0.8646262E-01
         -2   -1    0    0    0  501 -0.00000000000E+00  0.00000000000E+00  0.51442637256E+03  0.51442637256E+03  0.00000000000E+00 0. -1.
          2   -1    0    0  501    0  0.00000000000E+00 -0.00000000000E+00 -0.17865921261E+04  0.17865921261E+04  0.00000000000E+00 0.  1.
         23    2    1    2    0    0  0.19973617391E+03 -0.77213854835E+03 -0.12711233529E+04  0.15034637585E+04  0.92499826220E+02 0.  0.
         11    1    3    3    0    0  0.26556694850E+02 -0.17782322450E+03 -0.35292660439E+03  0.39608527529E+03  0.00000000000E+00 0.  1.
        -11    1    3    3    0    0  0.17317947906E+03 -0.59431532385E+03 -0.91819674846E+03  0.11073784832E+04  0.00000000000E+00 0. -1.
         22    1    1    2    0    0 -0.19973617391E+03  0.77213854835E+03 -0.10424006980E+01  0.79755474020E+03  0.00000000000E+00 0. -1.
<mgrwt>
<rscale>  0 0.19173629E+04</rscale>
<asrwt>0</asrwt>
<pdfrwt beam="1">  1        2 0.27486033E+00 0.19173629E+04</pdfrwt>
<pdfrwt beam="2">  1       -2 0.79142519E-01 0.19173629E+04</pdfrwt>
<totfact> 0.11625671E+01</totfact>
</mgrwt>
</event>
<event>
 6    1  0.5026615E-004  0.7792853E+03  0.7818608E-02  0.9590494E-01
         -2   -1    0    0    0  501 -0.00000000000E+00  0.00000000000E+00  0.53748438651E+03  0.53748438651E+03  0.00000000000E+00 0. -1.
          2   -1    0    0  501    0  0.00000000000E+00 -0.00000000000E+00 -0.28246658665E+03  0.28246658665E+03  0.00000000000E+00 0.  1.
         23    2    1    2    0    0 -0.48957938836E+02 -0.16461279829E+03  0.49109824964E+03  0.52801222632E+03  0.90139709394E+02 0.  0.
         11    1    3    3    0    0 -0.14615577776E+02 -0.15838038072E+03  0.40220375722E+03  0.43251106625E+03  0.00000000000E+00 0. -1.
        -11    1    3    3    0    0 -0.34342361060E+02 -0.62324175779E+01  0.88894492417E+02  0.95501160067E+02  0.00000000000E+00 0.  1.
         22    1    1    2    0    0  0.48957938836E+02  0.16461279829E+03 -0.23608044978E+03  0.29193874684E+03  0.00000000000E+00 0.  1.
<mgrwt>
<rscale>  0 0.77928526E+03</rscale>
<asrwt>0</asrwt>
<pdfrwt beam="1">  1        2 0.43456398E-01 0.77928526E+03</pdfrwt>
<pdfrwt beam="2">  1       -2 0.82689905E-01 0.77928526E+03</pdfrwt>
<totfact> 0.15185098E+02</totfact>
</mgrwt>
</event>
<event>
 6    1  0.5026615E-004  0.4051849E+04  0.7818608E-02  0.7994168E-01
          2   -1    0    0  501    0  0.00000000000E+00  0.00000000000E+00  0.41668345422E+04  0.41668345422E+04  0.00000000000E+00 0.  1.
         -2   -1    0    0    0  501 -0.00000000000E+00 -0.00000000000E+00 -0.98500930291E+03  0.98500930291E+03  0.00000000000E+00 0. -1.
         23    2    1    2    0    0  0.11390437116E+04 -0.12446927731E+04  0.30153112238E+04  0.34564360495E+04  0.90375391791E+02 0.  0.
         13    1    3    3    0    0  0.73582549583E+03 -0.76618777928E+03  0.19691931898E+04  0.22374549587E+04  0.00000000000E+00 0. -1.
        -13    1    3    3    0    0  0.40321821574E+03 -0.47850499381E+03  0.10461180340E+04  0.12189810908E+04  0.00000000000E+00 0.  1.
         22    1    1    2    0    0 -0.11390437116E+04  0.12446927731E+04  0.16651401551E+03  0.16954077957E+04  0.00000000000E+00 0. -1.
<mgrwt>
<rscale>  0 0.40518493E+04</rscale>
<asrwt>0</asrwt>
<pdfrwt beam="1">  1        2 0.64105146E+00 0.40518493E+04</pdfrwt>
<pdfrwt beam="2">  1       -2 0.15153989E+00 0.40518493E+04</pdfrwt>
<totfact> 0.56629422E-02</totfact>
</mgrwt>
</event>
<event>
 6    1  0.5026615E-004  0.2330999E+04  0.7818608E-02  0.8465798E-01
         -2   -1    0    0    0  501 -0.00000000000E+00  0.00000000000E+00  0.40358708683E+03  0.40358708683E+03  0.00000000000E+00 0. -1.
          2   -1    0    0  501    0  0.00000000000E+00 -0.00000000000E+00 -0.33657897227E+04  0.33657897227E+04  0.00000000000E+00 0.  1.
         23    2    1    2    0    0 -0.30163376640E+03 -0.45426207372E+03  0.17906625527E+03  0.58113164846E+03  0.91171861983E+02 0.  0.
         13    1    3    3    0    0 -0.93553224189E+02 -0.13227284474E+03  0.97789441958E+02  0.18923817313E+03  0.00000000000E+00 0. -1.
        -13    1    3    3    0    0 -0.20808054221E+03 -0.32198922898E+03  0.81276813311E+02  0.39189347533E+03  0.00000000000E+00 0.  1.
         22    1    1    2    0    0  0.30163376640E+03  0.45426207372E+03 -0.31412688911E+04  0.31882451611E+04  0.00000000000E+00 0.  1.
<mgrwt>
<rscale>  0 0.23309992E+04</rscale>
<asrwt>0</asrwt>
<pdfrwt beam="1">  1        2 0.51781381E+00 0.23309992E+04</pdfrwt>
<pdfrwt beam="2">  1       -2 0.62090320E-01 0.23309992E+04</pdfrwt>
<totfact> 0.21947919E+00</totfact>
</mgrwt>
</event>
<event>
 6    1  0.5026615E-004  0.1683316E+04  0.7818608E-02  0.8770937E-01
         -2   -1    0    0    0  501 -0.00000000000E+00  0.00000000000E+00  0.44568853828E+03  0.44568853828E+03  0.00000000000E+00 0. -1.
          2   -1    0    0  501    0  0.00000000000E+00 -0.00000000000E+00 -0.15894249793E+04  0.15894249793E+04  0.00000000000E+00 0.  1.
         23    2    1    2    0    0  0.65952576854E+01  0.11228166706E+03 -0.15781702843E+04  0.15863558610E+04  0.11512081098E+03 0.  0.
         13    1    3    3    0    0 -0.31691570429E+02  0.32097364096E+01 -0.14142977151E+03  0.14497254331E+03  0.00000000000E+00 0. -1.
        -13    1    3    3    0    0  0.38286828114E+02  0.10907193065E+03 -0.14367405128E+04  0.14413833176E+04  0.00000000000E+00 0.  1.
         22    1    1    2    0    0 -0.65952576854E+01 -0.11228166706E+03  0.43443384329E+03  0.44875765662E+03  0.00000000000E+00 0. -1.
<mgrwt>
<rscale>  0 0.16833164E+04</rscale>
<asrwt>0</asrwt>
<pdfrwt beam="1">  1        2 0.24452692E+00 0.16833164E+04</pdfrwt>
<pdfrwt beam="2">  1       -2 0.68567467E-01 0.16833164E+04</pdfrwt>
<totfact> 0.20945075E+01</totfact>
</mgrwt>
</event>
<event>
 6    1  0.5026615E-004  0.8637059E+03  0.7818608E-02  0.9472124E-01
         -2   -1    0    0    0  501 -0.00000000000E+00  0.00000000000E+00  0.90302917160E+03  0.90302917160E+03  0.00000000000E+00 0. -1.
          2   -1    0    0  501    0  0.00000000000E+00 -0.00000000000E+00 -0.20652375893E+03  0.20652375893E+03  0.00000000000E+00 0.  1.
         23    2    1    2    0    0  0.34891104853E+03  0.13290037806E+03  0.61853791188E+03  0.72813405128E+03  0.90490982622E+02 0.  0.
         11    1    3    3    0    0  0.16298336460E+03  0.14387563446E+02  0.25659289228E+03  0.30431971919E+03  0.00000000000E+00 0.  1.
        -11    1    3    3    0    0  0.18592768393E+03  0.11851281461E+03  0.36194501960E+03  0.42381433210E+03  0.00000000000E+00 0. -1.
         22    1    1    2    0    0 -0.34891104853E+03 -0.13290037806E+03  0.77967500793E+02  0.38141887926E+03  0.00000000000E+00 0.  1.
<mgrwt>
<rscale>  0 0.86370592E+03</rscale>
<asrwt>0</asrwt>
<pdfrwt beam="1">  1        2 0.31772886E-01 0.86370592E+03</pdfrwt>
<pdfrwt beam="2">  1       -2 0.13892756E+00 0.86370592E+03</pdfrwt>
<totfact> 0.61398363E+01</totfact>
</mgrwt>
</event>
<event>
 6    1  0.5026615E-004  0.3017247E+04  0.7818608E-02  0.8238823E-01
         -2   -1    0    0    0  501 -0.00000000000E+00  0.00000000000E+00  0.20663065809E+04  0.20663065809E+04  0.00000000000E+00 0. -1.
          2   -1    0    0  501    0  0.00000000000E+00 -0.00000000000E+00 -0.11014551991E+04  0.11014551991E+04  0.00000000000E+00 0.  1.
         23    2    1    2    0    0  0.30870448673E+03 -0.13934709330E+04  0.99144723868E+03  0.17402580004E+04  0.92035752951E+02 0.  0.
         11    1    3    3    0    0  0.27298471755E+02 -0.22391279978E+03  0.18845431620E+03  0.29393396837E+03  0.00000000000E+00 0. -1.
        -11    1    3    3    0    0  0.28140601498E+03 -0.11695581332E+04  0.80299292247E+03  0.14463240320E+04  0.00000000000E+00 0.  1.
         22    1    1    2    0    0 -0.30870448673E+03  0.13934709330E+04 -0.26595856858E+02  0.14275037796E+04  0.00000000000E+00 0.  1.
<mgrwt>
<rscale>  0 0.30172465E+04</rscale>
<asrwt>0</asrwt>
<pdfrwt beam="1">  1        2 0.16945465E+00 0.30172465E+04</pdfrwt>
<pdfrwt beam="2">  1       -2 0.31789332E+00 0.30172465E+04</pdfrwt>
<totfact> 0.45846228E-01</totfact>
</mgrwt>
</event>
<event>
 6    1  0.5026615E-004  0.2086808E+04  0.7818608E-02  0.8567077E-01
          1   -1    0    0  501    0  0.00000000000E+00  0.00000000000E+00  0.15591814907E+04  0.15591814907E+04  0.00000000000E+00 0.  1.
         -1   -1    0    0    0  501 -0.00000000000E+00 -0.00000000000E+00 -0.69824566081E+03  0.69824566081E+03  0.00000000000E+00 0. -1.
         23    2    1    2    0    0 -0.66767663468E+03  0.55066619057E+03 -0.19528319296E+03  0.89191480585E+03  0.91384645840E+02 0.  0.
         11    1    3    3    0    0 -0.28367915439E+03  0.24408071065E+03 -0.13027676646E+03  0.39625912207E+03  0.00000000000E+00 0. -1.
        -11    1    3    3    0    0 -0.38399748030E+03  0.30658547991E+03 -0.65006426500E+02  0.49565568377E+03  0.00000000000E+00 0.  1.
         22    1    1    2    0    0  0.66767663468E+03 -0.55066619057E+03  0.10562190229E+04  0.13655123457E+04  0.00000000000E+00 0.  1.
<mgrwt>
<rscale>  0 0.20868078E+04</rscale>
<asrwt>0</asrwt>
<pdfrwt beam="1">  1        1 0.23987407E+00 0.20868078E+04</pdfrwt>
<pdfrwt beam="2">  1       -1 0.10742241E+00 0.20868078E+04</pdfrwt>
<totfact> 0.44236239E+00</totfact>
</mgrwt>
</event>
<event>
 6    1  0.9806292E-004  0.2609652E+04  0.7818608E-02  0.8364930E-01
          2   -1    0    0  501    0  0.00000000000E+00  0.00000000000E+00  0.15103720186E+04  0.15103720186E+04  0.00000000000E+00 0. -1.
         -2   -1    0    0    0  501 -0.00000000000E+00 -0.00000000000E+00 -0.11272530385E+04  0.11272530385E+04  0.00000000000E+00 0.  1.
         23    2    1    2    0    0  0.15008276079E+03 -0.74717055132E+03  0.12590954916E+04  0.14765378439E+04  0.11854906036E+03 0.  0.
         11    1    3    3    0    0  0.67055891663E+02 -0.37489237158E+03  0.51666113562E+03  0.64185630163E+03  0.00000000000E+00 0. -1.
        -11    1    3    3    0    0  0.83026869125E+02 -0.37227817973E+03  0.74243435597E+03  0.83468154228E+03  0.00000000000E+00 0.  1.
         22    1    1    2    0    0 -0.15008276079E+03  0.74717055132E+03 -0.87597651155E+03  0.11610872132E+04  0.00000000000E+00 0.  1.
<mgrwt>
<rscale>  0 0.26096524E+04</rscale>
<asrwt>0</asrwt>
<pdfrwt beam="1">  1        2 0.23236493E+00 0.26096524E+04</pdfrwt>
<pdfrwt beam="2">  1       -2 0.17342354E+00 0.26096524E+04</pdfrwt>
<totfact> 0.22315120E+00</totfact>
</mgrwt>
</event>
<event>
 6    1  0.5026615E-004  0.1394381E+04  0.7818608E-02  0.8957896E-01
          2   -1    0    0  501    0  0.00000000000E+00  0.00000000000E+00  0.10844490076E+04  0.10844490076E+04  0.00000000000E+00 0.  1.
         -2   -1    0    0    0  501 -0.00000000000E+00 -0.00000000000E+00 -0.44822277271E+03  0.44822277271E+03  0.00000000000E+00 0. -1.
         23    2    1    2    0    0 -0.45403159619E+03 -0.24951681632E+03 -0.18859623940E+03  0.55864126432E+03  0.90045481356E+02 0.  0.
         13    1    3    3    0    0 -0.19765330673E+03 -0.15111982090E+03 -0.62922091067E+02  0.25663830477E+03  0.00000000000E+00 0.  1.
        -13    1    3    3    0    0 -0.25637828946E+03 -0.98396995415E+02 -0.12567414834E+03  0.30200295954E+03  0.00000000000E+00 0. -1.
         22    1    1    2    0    0  0.45403159619E+03  0.24951681632E+03  0.82482247431E+03  0.97403051600E+03  0.00000000000E+00 0.  1.
<mgrwt>
<rscale>  0 0.13943812E+04</rscale>
<asrwt>0</asrwt>
<pdfrwt beam="1">  1        2 0.16683831E+00 0.13943812E+04</pdfrwt>
<pdfrwt beam="2">  1       -2 0.68957350E-01 0.13943812E+04</pdfrwt>
<totfact> 0.41668053E+01</totfact>
</mgrwt>
</event>
<event>
 6    1  0.5026615E-004  0.2937534E+04  0.7818608E-02  0.8261797E-01
         -2   -1    0    0    0  501 -0.00000000000E+00  0.00000000000E+00  0.12206187196E+04  0.12206187196E+04  0.00000000000E+00 0. -1.
          2   -1    0    0  501    0  0.00000000000E+00 -0.00000000000E+00 -0.17673631385E+04  0.17673631385E+04  0.00000000000E+00 0.  1.
         23    2    1    2    0    0  0.51359969222E+02 -0.14511011340E+04 -0.48842325003E+03  0.15348013097E+04  0.93410071764E+02 0.  0.
         13    1    3    3    0    0  0.52023018362E+01 -0.11786831681E+04 -0.39848503163E+03  0.12442312466E+04  0.00000000000E+00 0. -1.
        -13    1    3    3    0    0  0.46157667386E+02 -0.27241796595E+03 -0.89938218397E+02  0.29057006308E+03  0.00000000000E+00 0.  1.
         22    1    1    2    0    0 -0.51359969222E+02  0.14511011340E+04 -0.58321168825E+02  0.14531805484E+04  0.00000000000E+00 0.  1.
<mgrwt>
<rscale>  0 0.29375340E+04</rscale>
<asrwt>0</asrwt>
<pdfrwt beam="1">  1        2 0.27190202E+00 0.29375340E+04</pdfrwt>
<pdfrwt beam="2">  1       -2 0.18778749E+00 0.29375340E+04</pdfrwt>
<totfact> 0.12418723E+00</totfact>
</mgrwt>
</event>
<event>
 6    1  0.5026615E-004  0.2935299E+04  0.7818608E-02  0.8262452E-01
          2   -1    0    0  501    0  0.00000000000E+00  0.00000000000E+00  0.12909093714E+04  0.12909093714E+04  0.00000000000E+00 0.  1.
         -2   -1    0    0    0  501 -0.00000000000E+00 -0.00000000000E+00 -0.16685872890E+04  0.16685872890E+04  0.00000000000E+00 0. -1.
         23    2    1    2    0    0 -0.58653789023E+03  0.38036896437E+03 -0.14892245560E+04  0.16463922568E+04  0.64112707854E+02 0.  0.
         13    1    3    3    0    0 -0.47228649580E+03  0.31228966605E+03 -0.11443014965E+04  0.12767166030E+04  0.00000000000E+00 0. -1.
        -13    1    3    3    0    0 -0.11425139443E+03  0.68079298321E+02 -0.34492305951E+03  0.36967565374E+03  0.00000000000E+00 0.  1.
         22    1    1    2    0    0  0.58653789023E+03 -0.38036896437E+03  0.11115466384E+04  0.13131044037E+04  0.00000000000E+00 0.  1.
<mgrwt>
<rscale>  0 0.29352989E+04</rscale>
<asrwt>0</asrwt>
<pdfrwt beam="1">  1        2 0.19860144E+00 0.29352989E+04</pdfrwt>
<pdfrwt beam="2">  1       -2 0.25670574E+00 0.29352989E+04</pdfrwt>
<totfact> 0.84171946E-01</totfact>
</mgrwt>
</event>
<event>
 6    1  0.8466757E-004  0.3235893E+04  0.7818608E-02  0.8179402E-01
          2   -1    0    0  501    0  0.00000000000E+00  0.00000000000E+00  0.15766861555E+04  0.15766861555E+04  0.00000000000E+00 0.  1.
         -2   -1    0    0    0  501 -0.00000000000E+00 -0.00000000000E+00 -0.16602861165E+04  0.16602861165E+04  0.00000000000E+00 0. -1.
         23    2    1    2    0    0 -0.91709111241E+03  0.27164648462E+02  0.12897040095E+04  0.15853797611E+04  0.91096258594E+02 0.  0.
         13    1    3    3    0    0 -0.37714845483E+03  0.16866134051E+02  0.45526616121E+03  0.59143275273E+03  0.00000000000E+00 0.  1.
        -13    1    3    3    0    0 -0.53994265758E+03  0.10298514411E+02  0.83443784826E+03  0.99394700839E+03  0.00000000000E+00 0. -1.
         22    1    1    2    0    0  0.91709111241E+03 -0.27164648462E+02 -0.13733039705E+04  0.16515925108E+04  0.00000000000E+00 0. -1.
<mgrwt>
<rscale>  0 0.32358925E+04</rscale>
<asrwt>0</asrwt>
<pdfrwt beam="1">  1        2 0.24256710E+00 0.32358925E+04</pdfrwt>
<pdfrwt beam="2">  1       -2 0.25542863E+00 0.32358925E+04</pdfrwt>
<totfact> 0.57421859E-01</totfact>
</mgrwt>
</event>
<event>
 6    1  0.5026615E-004  0.2590682E+04  0.7818608E-02  0.8371373E-01
         -1   -1    0    0    0  501 -0.00000000000E+00  0.00000000000E+00  0.20857907718E+04  0.20857907718E+04  0.00000000000E+00 0.  1.
          1   -1    0    0  501    0  0.00000000000E+00 -0.00000000000E+00 -0.80444721589E+03  0.80444721589E+03  0.00000000000E+00 0. -1.
         23    2    1    2    0    0  0.12709506740E+04  0.33341292819E+02  0.37471842693E+03  0.13287014424E+04  0.92770501586E+02 0.  0.
         11    1    3    3    0    0  0.26658643720E+03 -0.27685673193E+02  0.63272201066E+02  0.27538735706E+03  0.00000000000E+00 0.  1.
        -11    1    3    3    0    0  0.10043642368E+04  0.61026966012E+02  0.31144622587E+03  0.10533140854E+04  0.00000000000E+00 0. -1.
         22    1    1    2    0    0 -0.12709506740E+04 -0.33341292819E+02  0.90662512894E+03  0.15615365452E+04  0.00000000000E+00 0.  1.
<mgrwt>
<rscale>  0 0.25906822E+04</rscale>
<asrwt>0</asrwt>
<pdfrwt beam="1">  1        1 0.12376111E+00 0.25906822E+04</pdfrwt>
<pdfrwt beam="2">  1       -1 0.32089089E+00 0.25906822E+04</pdfrwt>
<totfact> 0.46650013E-01</totfact>
</mgrwt>
</event>
<event>
 6    1  0.5026615E-004  0.3131317E+04  0.7818608E-02  0.8207195E-01
         -2   -1    0    0    0  501 -0.00000000000E+00  0.00000000000E+00  0.16959611208E+04  0.16959611208E+04  0.00000000000E+00 0. -1.
          2   -1    0    0  501    0  0.00000000000E+00 -0.00000000000E+00 -0.14453676101E+04  0.14453676101E+04  0.00000000000E+00 0.  1.
         23    2    1    2    0    0 -0.39958570712E+03 -0.45391736552E+03 -0.13219596116E+04  0.14565043973E+04  0.90100680492E+02 0.  0.
         13    1    3    3    0    0 -0.39345213198E+02 -0.95306400942E+02 -0.22326505482E+03  0.24592405447E+03  0.00000000000E+00 0. -1.
        -13    1    3    3    0    0 -0.36024049392E+03 -0.35861096457E+03 -0.10986945568E+04  0.12105803429E+04  0.00000000000E+00 0.  1.
         22    1    1    2    0    0  0.39958570712E+03  0.45391736552E+03  0.15725531224E+04  0.16848243335E+04  0.00000000000E+00 0. -1.
<mgrwt>
<rscale>  0 0.31313175E+04</rscale>
<asrwt>0</asrwt>
<pdfrwt beam="1">  1        2 0.22236425E+00 0.31313175E+04</pdfrwt>
<pdfrwt beam="2">  1       -2 0.26091710E+00 0.31313175E+04</pdfrwt>
<totfact> 0.63583407E-01</totfact>
</mgrwt>
</event>
<event>
 6    1  0.5026615E-004  0.5565343E+04  0.7818608E-02  0.7746761E-01
         -2   -1    0    0    0  501 -0.00000000000E+00  0.00000000000E+00  0.22425207877E+04  0.22425207877E+04  0.00000000000E+00 0. -1.
          2   -1    0    0  501    0  0.00000000000E+00 -0.00000000000E+00 -0.34529270347E+04  0.34529270347E+04  0.00000000000E+00 0.  1.
         23    2    1    2    0    0  0.41420833831E+03  0.30118474505E+03 -0.34036853738E+04  0.34431702805E+04  0.89814577133E+02 0.  0.
         13    1    3    3    0    0  0.93198936511E+02  0.66846046508E+02 -0.10397949267E+04  0.10461012978E+04  0.00000000000E+00 0. -1.
        -13    1    3    3    0    0  0.32100940180E+03  0.23433869854E+03 -0.23638904471E+04  0.23970689827E+04  0.00000000000E+00 0.  1.
         22    1    1    2    0    0 -0.41420833831E+03 -0.30118474505E+03  0.21932791268E+04  0.22522775420E+04  0.00000000000E+00 0. -1.
<mgrwt>
<rscale>  0 0.55653430E+04</rscale>
<asrwt>0</asrwt>
<pdfrwt beam="1">  1        2 0.53121954E+00 0.55653430E+04</pdfrwt>
<pdfrwt beam="2">  1       -2 0.34500320E+00 0.55653430E+04</pdfrwt>
<totfact> 0.10191874E-02</totfact>
</mgrwt>
</event>
<event>
 6    1  0.5026615E-004  0.1756855E+04  0.7818608E-02  0.8729586E-01
         -2   -1    0    0    0  501 -0.00000000000E+00  0.00000000000E+00  0.23325111154E+03  0.23325111154E+03  0.00000000000E+00 0. -1.
          2   -1    0    0  501    0  0.00000000000E+00 -0.00000000000E+00 -0.33081713828E+04  0.33081713828E+04  0.00000000000E+00 0.  1.
         23    2    1    2    0    0  0.34752724774E+03  0.78929332105E+03 -0.12291051679E+04  0.15040731060E+04  0.88188773380E+02 0.  0.
         11    1    3    3    0    0  0.11021664690E+02  0.88255179608E+02 -0.11351859937E+03  0.14421139422E+03  0.00000000000E+00 0.  1.
        -11    1    3    3    0    0  0.33650558305E+03  0.70103814144E+03 -0.11155865686E+04  0.13598617118E+04  0.00000000000E+00 0. -1.
         22    1    1    2    0    0 -0.34752724774E+03 -0.78929332105E+03 -0.18458151034E+04  0.20373493884E+04  0.00000000000E+00 0. -1.
<mgrwt>
<rscale>  0 0.17568547E+04</rscale>
<asrwt>0</asrwt>
<pdfrwt beam="1">  1        2 0.50894941E+00 0.17568547E+04</pdfrwt>
<pdfrwt beam="2">  1       -2 0.35884789E-01 0.17568547E+04</pdfrwt>
<totfact> 0.76617781E+00</totfact>
</mgrwt>
</event>
<event>
 6    1  0.5026615E-004  0.3307116E+04  0.7818608E-02  0.8161087E-01
          2   -1    0    0  501    0  0.00000000000E+00  0.00000000000E+00  0.40850290951E+04  0.40850290951E+04  0.00000000000E+00 0.  1.
         -2   -1    0    0    0  501 -0.00000000000E+00 -0.00000000000E+00 -0.66933542708E+03  0.66933542708E+03  0.00000000000E+00 0. -1.
         23    2    1    2    0    0 -0.45121830779E+03 -0.20662319251E+03  0.39748489971E+04  0.40067377524E+04  0.90729055136E+02 0.  0.
         11    1    3    3    0    0 -0.37172011696E+03 -0.15340291298E+03  0.29200593476E+04  0.29476185120E+04  0.00000000000E+00 0.  1.
        -11    1    3    3    0    0 -0.79498190828E+02 -0.53220279529E+02  0.10547896495E+04  0.10591192404E+04  0.00000000000E+00 0. -1.
         22    1    1    2    0    0  0.45121830779E+03  0.20662319251E+03 -0.55915532906E+03  0.74762676984E+03  0.00000000000E+00 0. -1.
<mgrwt>
<rscale>  0 0.33071164E+04</rscale>
<asrwt>0</asrwt>
<pdfrwt beam="1">  1        2 0.62846600E+00 0.33071164E+04</pdfrwt>
<pdfrwt beam="2">  1       -2 0.10297468E+00 0.33071164E+04</pdfrwt>
<totfact> 0.18684178E-01</totfact>
</mgrwt>
</event>
<event>
 6    1  0.5026615E-004  0.1480798E+04  0.7818608E-02  0.8897323E-01
         -2   -1    0    0    0  501 -0.00000000000E+00  0.00000000000E+00  0.49006539911E+03  0.49006539911E+03  0.00000000000E+00 0. -1.
          2   -1    0    0  501    0  0.00000000000E+00 -0.00000000000E+00 -0.11186072594E+04  0.11186072594E+04  0.00000000000E+00 0.  1.
         23    2    1    2    0    0  0.20810793069E+03  0.38400876050E+03 -0.96125199840E+03  0.10596119378E+04  0.89445040999E+02 0.  0.
         11    1    3    3    0    0  0.11588885575E+03  0.12292950593E+03 -0.36725449379E+03  0.40424961784E+03  0.00000000000E+00 0. -1.
        -11    1    3    3    0    0  0.92219074937E+02  0.26107925457E+03 -0.59399750460E+03  0.65536231996E+03  0.00000000000E+00 0.  1.
         22    1    1    2    0    0 -0.20810793069E+03 -0.38400876050E+03  0.33271013815E+03  0.54906072067E+03  0.00000000000E+00 0. -1.
<mgrwt>
<rscale>  0 0.14807980E+04</rscale>
<asrwt>0</asrwt>
<pdfrwt beam="1">  1        2 0.17209342E+00 0.14807980E+04</pdfrwt>
<pdfrwt beam="2">  1       -2 0.75394677E-01 0.14807980E+04</pdfrwt>
<totfact> 0.32409185E+01</totfact>
</mgrwt>
</event>
<event>
 6    1  0.5026615E-004  0.2520352E+04  0.7818608E-02  0.8395771E-01
         -2   -1    0    0    0  501 -0.00000000000E+00  0.00000000000E+00  0.59923066196E+03  0.59923066196E+03  0.00000000000E+00 0. -1.
          2   -1    0    0  501    0  0.00000000000E+00 -0.00000000000E+00 -0.26501364408E+04  0.26501364408E+04  0.00000000000E+00 0.  1.
         23    2    1    2    0    0  0.12934774007E+03 -0.58656561396E+03  0.39882312569E+03  0.72707414535E+03  0.93738305435E+02 0.  0.
         13    1    3    3    0    0  0.61338910726E+02 -0.21579032673E+03  0.98071247860E+02  0.24483851155E+03  0.00000000000E+00 0. -1.
        -13    1    3    3    0    0  0.68008829343E+02 -0.37077528723E+03  0.30075187783E+03  0.48223563380E+03  0.00000000000E+00 0.  1.
         22    1    1    2    0    0 -0.12934774007E+03  0.58656561396E+03 -0.24497289045E+04  0.25222929574E+04  0.00000000000E+00 0.  1.
<mgrwt>
<rscale>  0 0.25203516E+04</rscale>
<asrwt>0</asrwt>
<pdfrwt beam="1">  1        2 0.40771329E+00 0.25203516E+04</pdfrwt>
<pdfrwt beam="2">  1       -2 0.92189334E-01 0.25203516E+04</pdfrwt>
<totfact> 0.25298699E+00</totfact>
</mgrwt>
</event>
<event>
 6    1  0.5026615E-004  0.3673784E+04  0.7818608E-02  0.8073797E-01
         -2   -1    0    0    0  501 -0.00000000000E+00  0.00000000000E+00  0.95420625143E+03  0.95420625143E+03  0.00000000000E+00 0. -1.
          2   -1    0    0  501    0  0.00000000000E+00 -0.00000000000E+00 -0.35361027878E+04  0.35361027878E+04  0.00000000000E+00 0.  1.
         23    2    1    2    0    0  0.15666611158E+04 -0.25008562276E+03 -0.24205670611E+04  0.28956313069E+04  0.92552135236E+02 0.  0.
         11    1    3    3    0    0  0.58562656553E+03 -0.67006026423E+02 -0.96561408857E+03  0.11313084681E+04  0.00000000000E+00 0.  1.
        -11    1    3    3    0    0  0.98103455024E+03 -0.18307959633E+03 -0.14549529725E+04  0.17643228388E+04  0.00000000000E+00 0. -1.
         22    1    1    2    0    0 -0.15666611158E+04  0.25008562276E+03 -0.16132947525E+03  0.15946777323E+04  0.00000000000E+00 0. -1.
<mgrwt>
<rscale>  0 0.36737835E+04</rscale>
<asrwt>0</asrwt>
<pdfrwt beam="1">  1        2 0.54401580E+00 0.36737835E+04</pdfrwt>
<pdfrwt beam="2">  1       -2 0.14680097E+00 0.36737835E+04</pdfrwt>
<totfact> 0.19668534E-01</totfact>
</mgrwt>
</event>
<event>
 6    1  0.5026615E-004  0.2768823E+04  0.7818608E-02  0.8313013E-01
          2   -1    0    0  501    0  0.00000000000E+00  0.00000000000E+00  0.19638451350E+04  0.19638451350E+04  0.00000000000E+00 0.  1.
         -2   -1    0    0    0  501 -0.00000000000E+00 -0.00000000000E+00 -0.97593997190E+03  0.97593997190E+03  0.00000000000E+00 0. -1.
         23    2    1    2    0    0 -0.43725365158E+03 -0.12058515867E+03  0.18815857192E+04  0.19375892813E+04  0.90309843715E+02 0.  0.
         11    1    3    3    0    0 -0.27488886108E+03 -0.49106845286E+02  0.12950086327E+04  0.13247727077E+04  0.00000000000E+00 0. -1.
        -11    1    3    3    0    0 -0.16236479050E+03 -0.71478313384E+02  0.58657708655E+03  0.61281657365E+03  0.00000000000E+00 0.  1.
         22    1    1    2    0    0  0.43725365158E+03  0.12058515867E+03 -0.89368055617E+03  0.10021958256E+04  0.00000000000E+00 0. -1.
<mgrwt>
<rscale>  0 0.27688228E+04</rscale>
<asrwt>0</asrwt>
<pdfrwt beam="1">  1        2 0.30213002E+00 0.27688228E+04</pdfrwt>
<pdfrwt beam="2">  1       -2 0.15014461E+00 0.27688228E+04</pdfrwt>
<totfact> 0.18245953E+00</totfact>
</mgrwt>
</event>
<event>
 6    1  0.5026615E-004  0.1907866E+04  0.7818608E-02  0.8650951E-01
          2   -1    0    0  501    0  0.00000000000E+00  0.00000000000E+00  0.40596267522E+04  0.40596267522E+04  0.00000000000E+00 0.  1.
         -2   -1    0    0    0  501 -0.00000000000E+00 -0.00000000000E+00 -0.22415557544E+03  0.22415557544E+03  0.00000000000E+00 0. -1.
         23    2    1    2    0    0  0.24942342697E+03 -0.68815093080E+03  0.55676720063E+03  0.92436816552E+03  0.93290086611E+02 0.  0.
         13    1    3    3    0    0  0.21520320575E+03 -0.65783427126E+03  0.52054815405E+03  0.86604199026E+03  0.00000000000E+00 0. -1.
        -13    1    3    3    0    0  0.34220221221E+02 -0.30316659539E+02  0.36219046576E+02  0.58326175264E+02  0.00000000000E+00 0.  1.
         22    1    1    2    0    0 -0.24942342697E+03  0.68815093080E+03  0.32787039761E+04  0.33594141621E+04  0.00000000000E+00 0. -1.
<mgrwt>
<rscale>  0 0.19078658E+04</rscale>
<asrwt>0</asrwt>
<pdfrwt beam="1">  1        2 0.62455791E+00 0.19078658E+04</pdfrwt>
<pdfrwt beam="2">  1       -2 0.34485476E-01 0.19078658E+04</pdfrwt>
<totfact> 0.22850778E+00</totfact>
</mgrwt>
</event>
<event>
 6    1  0.5026615E-004  0.2799948E+04  0.7818608E-02  0.8303284E-01
          2   -1    0    0  501    0  0.00000000000E+00  0.00000000000E+00  0.10084507050E+04  0.10084507050E+04  0.00000000000E+00 0.  1.
         -2   -1    0    0    0  501 -0.00000000000E+00 -0.00000000000E+00 -0.19435038020E+04  0.19435038020E+04  0.00000000000E+00 0. -1.
         23    2    1    2    0    0  0.82724980435E+03  0.27662007702E+03 -0.16204683971E+04  0.18426055811E+04  0.91742006716E+02 0.  0.
         11    1    3    3    0    0  0.18863949598E+03  0.67496675060E+02 -0.45768402764E+03  0.49961518166E+03  0.00000000000E+00 0. -1.
        -11    1    3    3    0    0  0.63861030837E+03  0.20912340196E+03 -0.11627843695E+04  0.13429903995E+04  0.00000000000E+00 0.  1.
         22    1    1    2    0    0 -0.82724980435E+03 -0.27662007702E+03  0.68541530006E+03  0.11093489259E+04  0.00000000000E+00 0.  1.
<mgrwt>
<rscale>  0 0.27999484E+04</rscale>
<asrwt>0</asrwt>
<pdfrwt beam="1">  1        2 0.15514626E+00 0.27999484E+04</pdfrwt>
<pdfrwt beam="2">  1       -2 0.29900058E+00 0.27999484E+04</pdfrwt>
<totfact> 0.69773094E-01</totfact>
</mgrwt>
</event>
<event>
 6    1  0.5026615E-004  0.2426415E+04  0.7818608E-02  0.8429680E-01
         -2   -1    0    0    0  501 -0.00000000000E+00  0.00000000000E+00  0.43493644675E+03  0.43493644675E+03  0.00000000000E+00 0. -1.
          2   -1    0    0  501    0  0.00000000000E+00 -0.00000000000E+00 -0.33841094248E+04  0.33841094248E+04  0.00000000000E+00 0.  1.
         23    2    1    2    0    0 -0.22192997734E+03  0.26449447603E+03 -0.33044254417E+04  0.33236525374E+04  0.90710788125E+02 0.  0.
         13    1    3    3    0    0 -0.33997644563E+02  0.96262326628E+02 -0.77863503960E+03  0.78529917882E+03  0.00000000000E+00 0. -1.
        -13    1    3    3    0    0 -0.18793233278E+03  0.16823214941E+03 -0.25257904021E+04  0.25383533586E+04  0.00000000000E+00 0.  1.
         22    1    1    2    0    0  0.22192997734E+03 -0.26449447603E+03  0.35525246357E+03  0.49539333420E+03  0.00000000000E+00 0. -1.
<mgrwt>
<rscale>  0 0.24264151E+04</rscale>
<asrwt>0</asrwt>
<pdfrwt beam="1">  1        2 0.52063223E+00 0.24264151E+04</pdfrwt>
<pdfrwt beam="2">  1       -2 0.66913298E-01 0.24264151E+04</pdfrwt>
<totfact> 0.18010353E+00</totfact>
</mgrwt>
</event>
<event>
 6    1  0.5026615E-004  0.3027034E+04  0.7818608E-02  0.8236053E-01
          2   -1    0    0  501    0  0.00000000000E+00  0.00000000000E+00  0.24040420300E+04  0.24040420300E+04  0.00000000000E+00 0.  1.
         -2   -1    0    0    0  501 -0.00000000000E+00 -0.00000000000E+00 -0.95286774904E+03  0.95286774904E+03  0.00000000000E+00 0. -1.
         23    2    1    2    0    0  0.10971518098E+04 -0.60529903362E+02  0.18781230961E+04  0.21780581117E+04  0.95837417672E+02 0.  0.
         13    1    3    3    0    0  0.11770744941E+03  0.43461290071E+01  0.15127796311E+03  0.19172624914E+03  0.00000000000E+00 0.  1.
        -13    1    3    3    0    0  0.97944436040E+03 -0.64876032369E+02  0.17268451330E+04  0.19863318625E+04  0.00000000000E+00 0. -1.
         22    1    1    2    0    0 -0.10971518098E+04  0.60529903362E+02 -0.42694881515E+03  0.11788516674E+04  0.00000000000E+00 0. -1.
<mgrwt>
<rscale>  0 0.30270343E+04</rscale>
<asrwt>0</asrwt>
<pdfrwt beam="1">  1        2 0.36985262E+00 0.30270343E+04</pdfrwt>
<pdfrwt beam="2">  1       -2 0.14659504E+00 0.30270343E+04</pdfrwt>
<totfact> 0.10751555E+00</totfact>
</mgrwt>
</event>
<event>
 6    1  0.5026615E-004  0.2485226E+04  0.7818608E-02  0.8408268E-01
          2   -1    0    0  501    0  0.00000000000E+00  0.00000000000E+00  0.33435427331E+04  0.33435427331E+04  0.00000000000E+00 0.  1.
         -2   -1    0    0    0  501 -0.00000000000E+00 -0.00000000000E+00 -0.46181150427E+03  0.46181150427E+03  0.00000000000E+00 0. -1.
         23    2    1    2    0    0 -0.11358711008E+04  0.46318378685E+03  0.17297409990E+04  0.21225518521E+04  0.92087260494E+02 0.  0.
         13    1    3    3    0    0 -0.27435185116E+03  0.12010441918E+03  0.49169511177E+03  0.57572397264E+03  0.00000000000E+00 0. -1.
        -13    1    3    3    0    0 -0.86151924962E+03  0.34307936768E+03  0.12380458872E+04  0.15468278795E+04  0.00000000000E+00 0.  1.
         22    1    1    2    0    0  0.11358711008E+04 -0.46318378685E+03  0.11519902298E+04  0.16828023852E+04  0.00000000000E+00 0. -1.
<mgrwt>
<rscale>  0 0.24852255E+04</rscale>
<asrwt>0</asrwt>
<pdfrwt beam="1">  1        2 0.51439117E+00 0.24852255E+04</pdfrwt>
<pdfrwt beam="2">  1       -2 0.71047926E-01 0.24852255E+04</pdfrwt>
<totfact> 0.16748275E+00</totfact>
</mgrwt>
</event>
<event>
 6    1  0.5026615E-004  0.1910214E+04  0.7818608E-02  0.8649789E-01
         -2   -1    0    0    0  501 -0.00000000000E+00  0.00000000000E+00  0.39514327026E+03  0.39514327026E+03  0.00000000000E+00 0.  1.
          2   -1    0    0  501    0  0.00000000000E+00 -0.00000000000E+00 -0.23086047964E+04  0.23086047964E+04  0.00000000000E+00 0. -1.
         23    2    1    2    0    0 -0.71863331339E+03  0.47287549063E+03 -0.37863065944E+03  0.94427346948E+03  0.90808260305E+02 0.  0.
         11    1    3    3    0    0 -0.82537588071E+02  0.23248071767E+02 -0.45420945708E+02  0.97036016996E+02  0.00000000000E+00 0.  1.
        -11    1    3    3    0    0 -0.63609572532E+03  0.44962741887E+03 -0.33320971373E+03  0.84723745248E+03  0.00000000000E+00 0. -1.
         22    1    1    2    0    0  0.71863331339E+03 -0.47287549063E+03 -0.15348308667E+04  0.17594745972E+04  0.00000000000E+00 0. -1.
<mgrwt>
<rscale>  0 0.19102143E+04</rscale>
<asrwt>0</asrwt>
<pdfrwt beam="1">  1        2 0.35516997E+00 0.19102143E+04</pdfrwt>
<pdfrwt beam="2">  1       -2 0.60791272E-01 0.19102143E+04</pdfrwt>
<totfact> 0.10570657E+01</totfact>
</mgrwt>
</event>
<event>
 6    1  0.5026615E-004  0.1665016E+04  0.7818608E-02  0.8781572E-01
         -2   -1    0    0    0  501 -0.00000000000E+00  0.00000000000E+00  0.43263009102E+03  0.43263009102E+03  0.00000000000E+00 0. -1.
          2   -1    0    0  501    0  0.00000000000E+00 -0.00000000000E+00 -0.16019910611E+04  0.16019910611E+04  0.00000000000E+00 0.  1.
         23    2    1    2    0    0  0.88009989921E+02 -0.77368986168E+03 -0.94052634573E+03  0.12230134602E+04  0.69500764869E+02 0.  0.
         11    1    3    3    0    0  0.83114323856E+02 -0.48803251569E+03 -0.62606939209E+03  0.79815199737E+03  0.00000000000E+00 0. -1.
        -11    1    3    3    0    0  0.48956660647E+01 -0.28565734599E+03 -0.31445695364E+03  0.42486146278E+03  0.00000000000E+00 0.  1.
         22    1    1    2    0    0 -0.88009989921E+02  0.77368986168E+03 -0.22883462438E+03  0.81160769200E+03  0.00000000000E+00 0. -1.
<mgrwt>
<rscale>  0 0.16650160E+04</rscale>
<asrwt>0</asrwt>
<pdfrwt beam="1">  1        2 0.24646016E+00 0.16650160E+04</pdfrwt>
<pdfrwt beam="2">  1       -2 0.66558476E-01 0.16650160E+04</pdfrwt>
<totfact> 0.22013161E+01</totfact>
</mgrwt>
</event>
<event>
 6    1  0.5026615E-004  0.3214299E+04  0.7818608E-02  0.8185051E-01
         -2   -1    0    0    0  501 -0.00000000000E+00  0.00000000000E+00  0.84703868918E+03  0.84703868918E+03  0.00000000000E+00 0. -1.
          2   -1    0    0  501    0  0.00000000000E+00 -0.00000000000E+00 -0.30493648341E+04  0.30493648341E+04  0.00000000000E+00 0.  1.
         23    2    1    2    0    0  0.59698832906E+03  0.60190783578E+03 -0.27552393619E+04  0.28842764892E+04  0.94967450734E+02 0.  0.
         13    1    3    3    0    0  0.16173863708E+03  0.10727602401E+03 -0.60759767979E+03  0.63784204356E+03  0.00000000000E+00 0. -1.
        -13    1    3    3    0    0  0.43524969199E+03  0.49463181177E+03 -0.21476416821E+04  0.22464344456E+04  0.00000000000E+00 0.  1.
         22    1    1    2    0    0 -0.59698832906E+03 -0.60190783578E+03  0.55291321694E+03  0.10121270342E+04  0.00000000000E+00 0. -1.
<mgrwt>
<rscale>  0 0.32142993E+04</rscale>
<asrwt>0</asrwt>
<pdfrwt beam="1">  1        2 0.46913305E+00 0.32142993E+04</pdfrwt>
<pdfrwt beam="2">  1       -2 0.13031364E+00 0.32142993E+04</pdfrwt>
<totfact> 0.58796745E-01</totfact>
</mgrwt>
</event>
<event>
 6    1  0.5026615E-004  0.1710042E+04  0.7818608E-02  0.8755657E-01
         -2   -1    0    0    0  501 -0.00000000000E+00  0.00000000000E+00  0.25586078931E+03  0.25586078931E+03  0.00000000000E+00 0. -1.
          2   -1    0    0  501    0  0.00000000000E+00 -0.00000000000E+00 -0.28572615791E+04  0.28572615791E+04  0.00000000000E+00 0.  1.
         23    2    1    2    0    0 -0.49744791003E+03 -0.69237729044E+03 -0.13201615976E+04  0.15741569357E+04  0.91119036843E+02 0.  0.
         11    1    3    3    0    0 -0.29410215199E+03 -0.45137250484E+03 -0.89843085931E+03  0.10475739701E+04  0.00000000000E+00 0. -1.
        -11    1    3    3    0    0 -0.20334575805E+03 -0.24100478560E+03 -0.42173073831E+03  0.52658296557E+03  0.00000000000E+00 0.  1.
         22    1    1    2    0    0  0.49744791003E+03  0.69237729044E+03 -0.12812391921E+04  0.15389654327E+04  0.00000000000E+00 0.  1.
<mgrwt>
<rscale>  0 0.17100423E+04</rscale>
<asrwt>0</asrwt>
<pdfrwt beam="1">  1        2 0.43957873E+00 0.17100423E+04</pdfrwt>
<pdfrwt beam="2">  1       -2 0.39363196E-01 0.17100423E+04</pdfrwt>
<totfact> 0.12429376E+01</totfact>
</mgrwt>
</event>
<event>
 6    1  0.5026615E-004  0.2236903E+04  0.7818608E-02  0.8503223E-01
         -2   -1    0    0    0  501 -0.00000000000E+00  0.00000000000E+00  0.83351174872E+03  0.83351174872E+03  0.00000000000E+00 0. -1.
          2   -1    0    0  501    0  0.00000000000E+00 -0.00000000000E+00 -0.15007989394E+04  0.15007989394E+04  0.00000000000E+00 0.  1.
         23    2    1    2    0    0  0.59854402612E+03 -0.39819712918E+03  0.55754579694E+03  0.91408825749E+03  0.88792578041E+02 0.  0.
         11    1    3    3    0    0  0.16799482250E+03 -0.11001063068E+03  0.10725337291E+03  0.22765738567E+03  0.00000000000E+00 0.  1.
        -11    1    3    3    0    0  0.43054920362E+03 -0.28818649849E+03  0.45029242403E+03  0.68643087182E+03  0.00000000000E+00 0. -1.
         22    1    1    2    0    0 -0.59854402612E+03  0.39819712918E+03 -0.12248329876E+04  0.14202224306E+04  0.00000000000E+00 0.  1.
<mgrwt>
<rscale>  0 0.22369028E+04</rscale>
<asrwt>0</asrwt>
<pdfrwt beam="1">  1        2 0.23089214E+00 0.22369028E+04</pdfrwt>
<pdfrwt beam="2">  1       -2 0.12823258E+00 0.22369028E+04</pdfrwt>
<totfact> 0.51964533E+00</totfact>
</mgrwt>
</event>
<event>
 6    1  0.5026615E-004  0.2143346E+04  0.7818608E-02  0.8542386E-01
          2   -1    0    0  501    0  0.00000000000E+00  0.00000000000E+00  0.12773277874E+04  0.12773277874E+04  0.00000000000E+00 0.  1.
         -2   -1    0    0    0  501 -0.00000000000E+00 -0.00000000000E+00 -0.89912975453E+03  0.89912975453E+03  0.00000000000E+00 0. -1.
         23    2    1    2    0    0 -0.25559966775E+03 -0.14958095924E+03  0.12331305161E+04  0.12716839767E+04  0.94146764850E+02 0.  0.
         13    1    3    3    0    0 -0.16230625760E+03 -0.11528475001E+03  0.97413226472E+03  0.99426735037E+03  0.00000000000E+00 0.  1.
        -13    1    3    3    0    0 -0.93293410149E+02 -0.34296209229E+02  0.25899825133E+03  0.27741662628E+03  0.00000000000E+00 0. -1.
         22    1    1    2    0    0  0.25559966775E+03  0.14958095924E+03 -0.85493248321E+03  0.90477356525E+03  0.00000000000E+00 0. -1.
<mgrwt>
<rscale>  0 0.21433464E+04</rscale>
<asrwt>0</asrwt>
<pdfrwt beam="1">  1        2 0.19651197E+00 0.21433464E+04</pdfrwt>
<pdfrwt beam="2">  1       -2 0.13832766E+00 0.21433464E+04</pdfrwt>
<totfact> 0.58005450E+00</totfact>
</mgrwt>
</event>
<event>
 6    1  0.5026615E-004  0.2021007E+04  0.7818608E-02  0.8596862E-01
          2   -1    0    0  501    0  0.00000000000E+00  0.00000000000E+00  0.91764951140E+03  0.91764951140E+03  0.00000000000E+00 0.  1.
         -2   -1    0    0    0  501 -0.00000000000E+00 -0.00000000000E+00 -0.11127535344E+04  0.11127535344E+04  0.00000000000E+00 0. -1.
         23    2    1    2    0    0  0.43581939377E+03 -0.52321861597E+03  0.64952379514E+03  0.94546414647E+03  0.91241589892E+02 0.  0.
         13    1    3    3    0    0  0.30505021693E+03 -0.33988057837E+03  0.37902053714E+03  0.59349053066E+03  0.00000000000E+00 0. -1.
        -13    1    3    3    0    0  0.13076917684E+03 -0.18333803760E+03  0.27050325800E+03  0.35197361582E+03  0.00000000000E+00 0.  1.
         22    1    1    2    0    0 -0.43581939377E+03  0.52321861597E+03 -0.84462781813E+03  0.10849388993E+04  0.00000000000E+00 0. -1.
<mgrwt>
<rscale>  0 0.20210074E+04</rscale>
<asrwt>0</asrwt>
<pdfrwt beam="1">  1        2 0.14117685E+00 0.20210074E+04</pdfrwt>
<pdfrwt beam="2">  1       -2 0.17119285E+00 0.20210074E+04</pdfrwt>
<totfact> 0.55288368E+00</totfact>
</mgrwt>
</event>
<event>
 6    1  0.5026615E-004  0.3164911E+04  0.7818608E-02  0.8198146E-01
          2   -1    0    0  501    0  0.00000000000E+00  0.00000000000E+00  0.10705926924E+04  0.10705926924E+04  0.00000000000E+00 0.  1.
         -2   -1    0    0    0  501 -0.00000000000E+00 -0.00000000000E+00 -0.23390463616E+04  0.23390463616E+04  0.00000000000E+00 0. -1.
         23    2    1    2    0    0  0.44148414314E+03  0.14747936636E+04 -0.10232995178E+04  0.18507852581E+04  0.91321243042E+02 0.  0.
         11    1    3    3    0    0  0.38690703579E+03  0.13752372825E+04 -0.94753262492E+03  0.17142907317E+04  0.00000000000E+00 0.  1.
        -11    1    3    3    0    0  0.54577107349E+02  0.99556381107E+02 -0.75766892880E+02  0.13649452635E+03  0.00000000000E+00 0. -1.
         22    1    1    2    0    0 -0.44148414314E+03 -0.14747936636E+04 -0.24515415141E+03  0.15588537959E+04  0.00000000000E+00 0.  1.
<mgrwt>
<rscale>  0 0.31649113E+04</rscale>
<asrwt>0</asrwt>
<pdfrwt beam="1">  1        2 0.16470657E+00 0.31649113E+04</pdfrwt>
<pdfrwt beam="2">  1       -2 0.35985329E+00 0.31649113E+04</pdfrwt>
<totfact> 0.25848020E-01</totfact>
</mgrwt>
</event>
<event>
 6    1  0.5026615E-004  0.1977665E+04  0.7818608E-02  0.8617135E-01
          2   -1    0    0  501    0  0.00000000000E+00  0.00000000000E+00  0.16537364073E+04  0.16537364073E+04  0.00000000000E+00 0.  1.
         -2   -1    0    0    0  501 -0.00000000000E+00 -0.00000000000E+00 -0.59126063752E+03  0.59126063752E+03  0.00000000000E+00 0. -1.
         23    2    1    2    0    0  0.12703526506E+03 -0.92501996830E+03  0.16973327825E+03  0.95318085954E+03  0.89131727933E+02 0.  0.
         11    1    3    3    0    0  0.72798009689E+02 -0.73903415516E+03  0.15703064433E+03  0.75903205201E+03  0.00000000000E+00 0. -1.
        -11    1    3    3    0    0  0.54237255373E+02 -0.18598581313E+03  0.12702633921E+02  0.19414880753E+03  0.00000000000E+00 0.  1.
         22    1    1    2    0    0 -0.12703526506E+03  0.92501996830E+03  0.89274249149E+03  0.12918161852E+04  0.00000000000E+00 0.  1.
<mgrwt>
<rscale>  0 0.19776645E+04</rscale>
<asrwt>0</asrwt>
<pdfrwt beam="1">  1        2 0.25442098E+00 0.19776645E+04</pdfrwt>
<pdfrwt beam="2">  1       -2 0.90963176E-01 0.19776645E+04</pdfrwt>
<totfact> 0.99874306E+00</totfact>
</mgrwt>
</event>
<event>
 6    1  0.5026615E-004  0.1075165E+04  0.7818608E-02  0.9229742E-01
          2   -1    0    0  501    0  0.00000000000E+00  0.00000000000E+00  0.81315477972E+03  0.81315477972E+03  0.00000000000E+00 0.  1.
         -2   -1    0    0    0  501 -0.00000000000E+00 -0.00000000000E+00 -0.35539957962E+03  0.35539957962E+03  0.00000000000E+00 0. -1.
         23    2    1    2    0    0 -0.49265320886E+03  0.20530406727E+03  0.22324328991E+03  0.58558542341E+03  0.90640925580E+02 0.  0.
         13    1    3    3    0    0 -0.51703316509E+02 -0.63990063891E+01  0.25275512966E+02  0.57905369151E+02  0.00000000000E+00 0.  1.
        -13    1    3    3    0    0 -0.44094989235E+03  0.21170307366E+03  0.19796777694E+03  0.52768005426E+03  0.00000000000E+00 0. -1.
         22    1    1    2    0    0  0.49265320886E+03 -0.20530406727E+03  0.23451191019E+03  0.58296893593E+03  0.00000000000E+00 0. -1.
<mgrwt>
<rscale>  0 0.10751649E+04</rscale>
<asrwt>0</asrwt>
<pdfrwt beam="1">  1        2 0.12510073E+00 0.10751649E+04</pdfrwt>
<pdfrwt beam="2">  1       -2 0.54676859E-01 0.10751649E+04</pdfrwt>
<totfact> 0.10548768E+02</totfact>
</mgrwt>
</event>
<event>
 6    1  0.5026615E-004  0.5265510E+04  0.7818608E-02  0.7788806E-01
          2   -1    0    0  501    0  0.00000000000E+00  0.00000000000E+00  0.30592121948E+04  0.30592121948E+04  0.00000000000E+00 0.  1.
         -2   -1    0    0    0  501 -0.00000000000E+00 -0.00000000000E+00 -0.22657465318E+04  0.22657465318E+04  0.00000000000E+00 0. -1.
         23    2    1    2    0    0  0.23618616436E+04  0.10976853714E+04  0.13041389841E+02  0.26060682095E+04  0.90099037896E+02 0.  0.
         13    1    3    3    0    0  0.64046388888E+03  0.32696949078E+03 -0.26660343293E+02  0.71959281178E+03  0.00000000000E+00 0. -1.
        -13    1    3    3    0    0  0.17213977547E+04  0.77071588060E+03  0.39701733133E+02  0.18864753977E+04  0.00000000000E+00 0.  1.
         22    1    1    2    0    0 -0.23618616436E+04 -0.10976853714E+04  0.78042427308E+03  0.27188905171E+04  0.00000000000E+00 0. -1.
<mgrwt>
<rscale>  0 0.52655102E+04</rscale>
<asrwt>0</asrwt>
<pdfrwt beam="1">  1        2 0.47064803E+00 0.52655102E+04</pdfrwt>
<pdfrwt beam="2">  1       -2 0.34857639E+00 0.52655102E+04</pdfrwt>
<totfact> 0.18080758E-02</totfact>
</mgrwt>
</event>
<event>
 6    1  0.5433208E-004  0.3858462E+04  0.7818608E-02  0.8033724E-01
         -2   -1    0    0    0  501 -0.00000000000E+00  0.00000000000E+00  0.12640725456E+04  0.12640725456E+04  0.00000000000E+00 0. -1.
          2   -1    0    0  501    0  0.00000000000E+00 -0.00000000000E+00 -0.29443978048E+04  0.29443978048E+04  0.00000000000E+00 0.  1.
         23    2    1    2    0    0  0.12704189143E+03  0.18934215724E+04 -0.12127946286E+04  0.22540472172E+04  0.93129765070E+02 0.  0.
         13    1    3    3    0    0 -0.15405941053E+00  0.61274742842E+03 -0.37448787436E+03  0.71812297193E+03  0.00000000000E+00 0. -1.
        -13    1    3    3    0    0  0.12719595084E+03  0.12806741440E+04 -0.83830675423E+03  0.15359242453E+04  0.00000000000E+00 0.  1.
         22    1    1    2    0    0 -0.12704189143E+03 -0.18934215724E+04 -0.46753063066E+03  0.19544231332E+04  0.00000000000E+00 0.  1.
<mgrwt>
<rscale>  0 0.38584621E+04</rscale>
<asrwt>0</asrwt>
<pdfrwt beam="1">  1        2 0.45298428E+00 0.38584621E+04</pdfrwt>
<pdfrwt beam="2">  1       -2 0.19447270E+00 0.38584621E+04</pdfrwt>
<totfact> 0.21762859E-01</totfact>
</mgrwt>
</event>
<event>
 6    1  0.5026615E-004  0.9186766E+03  0.7818608E-02  0.9402531E-01
         -2   -1    0    0    0  501 -0.00000000000E+00  0.00000000000E+00  0.12233619935E+03  0.12233619935E+03  0.00000000000E+00 0. -1.
          2   -1    0    0  501    0  0.00000000000E+00 -0.00000000000E+00 -0.17246872499E+04  0.17246872499E+04  0.00000000000E+00 0.  1.
         23    2    1    2    0    0 -0.33497227696E+03 -0.25716163825E+02 -0.14252743914E+04  0.14672552428E+04  0.92537070114E+02 0.  0.
         13    1    3    3    0    0 -0.69488322630E+02 -0.69418243370E+01 -0.16474150894E+03  0.17893177660E+03  0.00000000000E+00 0.  1.
        -13    1    3    3    0    0 -0.26548395433E+03 -0.18774339488E+02 -0.12605328825E+04  0.12883234662E+04  0.00000000000E+00 0. -1.
         22    1    1    2    0    0  0.33497227696E+03  0.25716163825E+02 -0.17707665916E+03  0.37976820646E+03  0.00000000000E+00 0. -1.
<mgrwt>
<rscale>  0 0.91867662E+03</rscale>
<asrwt>0</asrwt>
<pdfrwt beam="1">  1        2 0.26533650E+00 0.91867662E+03</pdfrwt>
<pdfrwt beam="2">  1       -2 0.18820953E-01 0.91867662E+03</pdfrwt>
<totfact> 0.22679959E+02</totfact>
</mgrwt>
</event>
<event>
 6    1  0.5026615E-004  0.2139657E+04  0.7818608E-02  0.8543972E-01
          2   -1    0    0  501    0  0.00000000000E+00  0.00000000000E+00  0.14503131107E+04  0.14503131107E+04  0.00000000000E+00 0.  1.
         -2   -1    0    0    0  501 -0.00000000000E+00 -0.00000000000E+00 -0.78916300835E+03  0.78916300835E+03  0.00000000000E+00 0. -1.
         23    2    1    2    0    0 -0.82227303736E+03 -0.30730118081E+03 -0.30501989747E+03  0.93408290922E+03  0.94375737138E+02 0.  0.
         11    1    3    3    0    0 -0.53672469173E+03 -0.15289561123E+03 -0.18374949297E+03  0.58754943521E+03  0.00000000000E+00 0.  1.
        -11    1    3    3    0    0 -0.28554834563E+03 -0.15440556957E+03 -0.12127040450E+03  0.34653347402E+03  0.00000000000E+00 0. -1.
         22    1    1    2    0    0  0.82227303736E+03  0.30730118081E+03  0.96616999979E+03  0.13053932098E+04  0.00000000000E+00 0.  1.
<mgrwt>
<rscale>  0 0.21396574E+04</rscale>
<asrwt>0</asrwt>
<pdfrwt beam="1">  1        2 0.22312509E+00 0.21396574E+04</pdfrwt>
<pdfrwt beam="2">  1       -2 0.12140969E+00 0.21396574E+04</pdfrwt>
<totfact> 0.64181862E+00</totfact>
</mgrwt>
</event>
<event>
 6    1  0.5026615E-004  0.6949688E+03  0.7818608E-02  0.9725875E-01
          2   -1    0    0  501    0  0.00000000000E+00  0.00000000000E+00  0.78579228421E+03  0.78579228421E+03  0.00000000000E+00 0.  1.
         -2   -1    0    0    0  501 -0.00000000000E+00 -0.00000000000E+00 -0.15366073293E+03  0.15366073293E+03  0.00000000000E+00 0. -1.
         23    2    1    2    0    0 -0.15225905526E+03 -0.28901321235E+03  0.18717554717E+03  0.38745908383E+03  0.91533596919E+02 0.  0.
         13    1    3    3    0    0 -0.11306947777E+03 -0.17749554890E+03  0.16446951564E+03  0.26709473648E+03  0.00000000000E+00 0. -1.
        -13    1    3    3    0    0 -0.39189577482E+02 -0.11151766345E+03  0.22706031531E+02  0.12036434735E+03  0.00000000000E+00 0.  1.
         22    1    1    2    0    0  0.15225905526E+03  0.28901321235E+03  0.44495600411E+03  0.55199393332E+03  0.00000000000E+00 0. -1.
<mgrwt>
<rscale>  0 0.69496883E+03</rscale>
<asrwt>0</asrwt>
<pdfrwt beam="1">  1        2 0.12089112E+00 0.69496883E+03</pdfrwt>
<pdfrwt beam="2">  1       -2 0.23640113E-01 0.69496883E+03</pdfrwt>
<totfact> 0.56263564E+02</totfact>
</mgrwt>
</event>
<event>
 6    1  0.5026615E-004  0.3689627E+04  0.7818608E-02  0.8070265E-01
         -2   -1    0    0    0  501 -0.00000000000E+00  0.00000000000E+00  0.13251447595E+04  0.13251447595E+04  0.00000000000E+00 0. -1.
          2   -1    0    0  501    0  0.00000000000E+00 -0.00000000000E+00 -0.25682751130E+04  0.25682751130E+04  0.00000000000E+00 0.  1.
         23    2    1    2    0    0 -0.76066838059E+03  0.29240855928E+03  0.11232834601E+04  0.13906147488E+04  0.89019644011E+02 0.  0.
         11    1    3    3    0    0 -0.12527036694E+03  0.34821010905E+02  0.23421306462E+03  0.26788230115E+03  0.00000000000E+00 0. -1.
        -11    1    3    3    0    0 -0.63539801365E+03  0.25758754837E+03  0.88907039546E+03  0.11227324476E+04  0.00000000000E+00 0.  1.
         22    1    1    2    0    0  0.76066838059E+03 -0.29240855928E+03 -0.23664138135E+04  0.25028051238E+04  0.00000000000E+00 0.  1.
<mgrwt>
<rscale>  0 0.36896267E+04</rscale>
<asrwt>0</asrwt>
<pdfrwt beam="1">  1        2 0.39511924E+00 0.36896267E+04</pdfrwt>
<pdfrwt beam="2">  1       -2 0.20386843E+00 0.36896267E+04</pdfrwt>
<totfact> 0.32241918E-01</totfact>
</mgrwt>
</event>
<event>
 6    1  0.5026615E-004  0.1373767E+04  0.7818608E-02  0.8973029E-01
          2   -1    0    0  501    0  0.00000000000E+00  0.00000000000E+00  0.29946078144E+03  0.29946078144E+03  0.00000000000E+00 0.  1.
         -2   -1    0    0    0  501 -0.00000000000E+00 -0.00000000000E+00 -0.15755279081E+04  0.15755279081E+04  0.00000000000E+00 0. -1.
         23    2    1    2    0    0  0.55475951060E+03  0.15424824746E+03 -0.13711729921E+03  0.59876090977E+03  0.90348419329E+02 0.  0.
         13    1    3    3    0    0  0.16699233514E+03  0.81519443235E+02 -0.18287109116E+02  0.18672514019E+03  0.00000000000E+00 0. -1.
        -13    1    3    3    0    0  0.38776717547E+03  0.72728804223E+02 -0.11883019009E+03  0.41203576958E+03  0.00000000000E+00 0.  1.
         22    1    1    2    0    0 -0.55475951060E+03 -0.15424824746E+03 -0.11389498275E+04  0.12762277798E+04  0.00000000000E+00 0. -1.
<mgrwt>
<rscale>  0 0.13737668E+04</rscale>
<asrwt>0</asrwt>
<pdfrwt beam="1">  1        2 0.46070890E-01 0.13737668E+04</pdfrwt>
<pdfrwt beam="2">  1       -2 0.24238891E+00 0.13737668E+04</pdfrwt>
<totfact> 0.76867550E+00</totfact>
</mgrwt>
</event>
<event>
 6    1  0.5026615E-004  0.1117107E+04  0.7818608E-02  0.9188677E-01
         -2   -1    0    0    0  501 -0.00000000000E+00  0.00000000000E+00  0.57195892787E+03  0.57195892787E+03  0.00000000000E+00 0. -1.
          2   -1    0    0  501    0  0.00000000000E+00 -0.00000000000E+00 -0.54546189234E+03  0.54546189234E+03  0.00000000000E+00 0.  1.
         23    2    1    2    0    0  0.30060943616E+03  0.41882034798E+03 -0.19223812666E+03  0.55740154538E+03  0.89243870710E+02 0.  0.
         13    1    3    3    0    0  0.22087513937E+03  0.28484046850E+03 -0.17456978110E+03  0.40049285656E+03  0.00000000000E+00 0. -1.
        -13    1    3    3    0    0  0.79734296789E+02  0.13397987949E+03 -0.17668345561E+02  0.15690868882E+03  0.00000000000E+00 0.  1.
         22    1    1    2    0    0 -0.30060943616E+03 -0.41882034798E+03  0.21873516219E+03  0.56001927482E+03  0.00000000000E+00 0.  1.
<mgrwt>
<rscale>  0 0.11171066E+04</rscale>
<asrwt>0</asrwt>
<pdfrwt beam="1">  1        2 0.83917214E-01 0.11171066E+04</pdfrwt>
<pdfrwt beam="2">  1       -2 0.87993681E-01 0.11171066E+04</pdfrwt>
<totfact> 0.61413085E+01</totfact>
</mgrwt>
</event>
<event>
 6    1  0.5026615E-004  0.2640924E+04  0.7818608E-02  0.8354432E-01
         -2   -1    0    0    0  501 -0.00000000000E+00  0.00000000000E+00  0.66033970563E+03  0.66033970563E+03  0.00000000000E+00 0. -1.
          2   -1    0    0  501    0  0.00000000000E+00 -0.00000000000E+00 -0.26404894850E+04  0.26404894850E+04  0.00000000000E+00 0.  1.
         23    2    1    2    0    0  0.39985263851E+03  0.30561099908E+03 -0.25152211877E+04  0.25662669895E+04  0.78156401214E+02 0.  0.
         11    1    3    3    0    0  0.33728561897E+03  0.23667515228E+03 -0.19110267788E+04  0.19549424712E+04  0.00000000000E+00 0.  1.
        -11    1    3    3    0    0  0.62567019542E+02  0.68935846799E+02 -0.60419440887E+03  0.61132451826E+03  0.00000000000E+00 0. -1.
         22    1    1    2    0    0 -0.39985263851E+03 -0.30561099908E+03  0.53507140834E+03  0.73456220111E+03  0.00000000000E+00 0. -1.
<mgrwt>
<rscale>  0 0.26409241E+04</rscale>
<asrwt>0</asrwt>
<pdfrwt beam="1">  1        2 0.40622915E+00 0.26409241E+04</pdfrwt>
<pdfrwt beam="2">  1       -2 0.10159073E+00 0.26409241E+04</pdfrwt>
<totfact> 0.20196885E+00</totfact>
</mgrwt>
</event>
<event>
 6    1  0.5026615E-004  0.3422768E+04  0.7818608E-02  0.8132341E-01
          2   -1    0    0  501    0  0.00000000000E+00  0.00000000000E+00  0.32038806035E+04  0.32038806035E+04  0.00000000000E+00 0.  1.
         -2   -1    0    0    0  501 -0.00000000000E+00 -0.00000000000E+00 -0.91415224967E+03  0.91415224967E+03  0.00000000000E+00 0. -1.
         23    2    1    2    0    0  0.76454356743E+03  0.62735641788E+03 -0.53287735322E+03  0.11271791424E+04  0.92041316897E+02 0.  0.
         13    1    3    3    0    0  0.33264941395E+03  0.30549783286E+03 -0.28666873432E+03  0.53494254057E+03  0.00000000000E+00 0. -1.
        -13    1    3    3    0    0  0.43189415348E+03  0.32185858503E+03 -0.24620861890E+03  0.59223660186E+03  0.00000000000E+00 0.  1.
         22    1    1    2    0    0 -0.76454356743E+03 -0.62735641788E+03  0.28226057070E+04  0.29908537107E+04  0.00000000000E+00 0.  1.
<mgrwt>
<rscale>  0 0.34227677E+04</rscale>
<asrwt>0</asrwt>
<pdfrwt beam="1">  1        2 0.49290470E+00 0.34227677E+04</pdfrwt>
<pdfrwt beam="2">  1       -2 0.14063881E+00 0.34227677E+04</pdfrwt>
<totfact> 0.37798264E-01</totfact>
</mgrwt>
</event>
<event>
 6    1  0.5026615E-004  0.2552543E+04  0.7818608E-02  0.8384502E-01
         -2   -1    0    0    0  501 -0.00000000000E+00  0.00000000000E+00  0.38647970309E+03  0.38647970309E+03  0.00000000000E+00 0. -1.
          2   -1    0    0  501    0  0.00000000000E+00 -0.00000000000E+00 -0.42146284033E+04  0.42146284033E+04  0.00000000000E+00 0.  1.
         23    2    1    2    0    0  0.39907394443E+03 -0.32759222620E+03 -0.40171747555E+04  0.40512831076E+04  0.92871534416E+02 0.  0.
         13    1    3    3    0    0  0.28009970761E+03 -0.23884759752E+03 -0.31580232110E+04  0.31794047591E+04  0.00000000000E+00 0. -1.
        -13    1    3    3    0    0  0.11897423682E+03 -0.88744628675E+02 -0.85915154450E+03  0.87187834849E+03  0.00000000000E+00 0.  1.
         22    1    1    2    0    0 -0.39907394443E+03  0.32759222620E+03  0.18902605523E+03  0.54982499884E+03  0.00000000000E+00 0. -1.
<mgrwt>
<rscale>  0 0.25525425E+04</rscale>
<asrwt>0</asrwt>
<pdfrwt beam="1">  1        2 0.64840435E+00 0.25525425E+04</pdfrwt>
<pdfrwt beam="2">  1       -2 0.59458417E-01 0.25525425E+04</pdfrwt>
<totfact> 0.53142531E-01</totfact>
</mgrwt>
</event>
<event>
 6    1  0.5026615E-004  0.3256407E+04  0.7818608E-02  0.8174077E-01
          2   -1    0    0  501    0  0.00000000000E+00  0.00000000000E+00  0.35674167798E+04  0.35674167798E+04  0.00000000000E+00 0.  1.
         -2   -1    0    0    0  501 -0.00000000000E+00 -0.00000000000E+00 -0.74312771731E+03  0.74312771731E+03  0.00000000000E+00 0. -1.
         23    2    1    2    0    0 -0.11909264091E+03 -0.10876929651E+04  0.30070126879E+04  0.32011992098E+04  0.91060594779E+02 0.  0.
         11    1    3    3    0    0 -0.45906065137E+02 -0.66293279353E+03  0.19266736915E+04  0.20380526905E+04  0.00000000000E+00 0.  1.
        -11    1    3    3    0    0 -0.73186575773E+02 -0.42476017154E+03  0.10803389964E+04  0.11631465193E+04  0.00000000000E+00 0. -1.
         22    1    1    2    0    0  0.11909264091E+03  0.10876929651E+04 -0.18272362538E+03  0.11093452874E+04  0.00000000000E+00 0. -1.
<mgrwt>
<rscale>  0 0.32564068E+04</rscale>
<asrwt>0</asrwt>
<pdfrwt beam="1">  1        2 0.54883334E+00 0.32564068E+04</pdfrwt>
<pdfrwt beam="2">  1       -2 0.11432734E+00 0.32564068E+04</pdfrwt>
<totfact> 0.36471142E-01</totfact>
</mgrwt>
</event>
<event>
 6    1  0.5026615E-004  0.1942634E+04  0.7818608E-02  0.8633921E-01
          2   -1    0    0  501    0  0.00000000000E+00  0.00000000000E+00  0.17032823837E+04  0.17032823837E+04  0.00000000000E+00 0. -1.
         -2   -1    0    0    0  501 -0.00000000000E+00 -0.00000000000E+00 -0.55390482586E+03  0.55390482586E+03  0.00000000000E+00 0.  1.
         23    2    1    2    0    0 -0.81791381094E+01 -0.40764304632E+03  0.15971816402E+04  0.16515732668E+04  0.10230010944E+03 0.  0.
         13    1    3    3    0    0 -0.23646268037E+02 -0.34151915510E+03  0.11709773187E+04  0.12199927706E+04  0.00000000000E+00 0.  1.
        -13    1    3    3    0    0  0.15467129928E+02 -0.66123891218E+02  0.42620432150E+03  0.43158049627E+03  0.00000000000E+00 0. -1.
         22    1    1    2    0    0  0.81791381094E+01  0.40764304632E+03 -0.44780408233E+03  0.60561394276E+03  0.00000000000E+00 0.  1.
<mgrwt>
<rscale>  0 0.19426336E+04</rscale>
<asrwt>0</asrwt>
<pdfrwt beam="1">  1        2 0.26204344E+00 0.19426336E+04</pdfrwt>
<pdfrwt beam="2">  1       -2 0.85216128E-01 0.19426336E+04</pdfrwt>
<totfact> 0.10918961E+01</totfact>
</mgrwt>
</event>
<event>
 6    1  0.5026615E-004  0.1901796E+04  0.7818608E-02  0.8653963E-01
         -2   -1    0    0    0  501 -0.00000000000E+00  0.00000000000E+00  0.10190520092E+04  0.10190520092E+04  0.00000000000E+00 0.  1.
          2   -1    0    0  501    0  0.00000000000E+00 -0.00000000000E+00 -0.88730183780E+03  0.88730183780E+03  0.00000000000E+00 0. -1.
         23    2    1    2    0    0  0.16771171254E+03  0.32402622920E+02  0.10014532427E+04  0.10200352921E+04  0.91576477768E+02 0.  0.
         13    1    3    3    0    0  0.90981636045E+02  0.11744553568E+02  0.29013714516E+03  0.30429452121E+03  0.00000000000E+00 0. -1.
        -13    1    3    3    0    0  0.76730076491E+02  0.20658069352E+02  0.71131609758E+03  0.71574077091E+03  0.00000000000E+00 0.  1.
         22    1    1    2    0    0 -0.16771171254E+03 -0.32402622920E+02 -0.86970307132E+03  0.88631855490E+03  0.00000000000E+00 0. -1.
<mgrwt>
<rscale>  0 0.19017957E+04</rscale>
<asrwt>0</asrwt>
<pdfrwt beam="1">  1        2 0.13650798E+00 0.19017957E+04</pdfrwt>
<pdfrwt beam="2">  1       -2 0.15677723E+00 0.19017957E+04</pdfrwt>
<totfact> 0.74539508E+00</totfact>
</mgrwt>
</event>
<event>
 6    1  0.5026615E-004  0.2782826E+04  0.7818608E-02  0.8308620E-01
          2   -1    0    0  501    0  0.00000000000E+00  0.00000000000E+00  0.29632072847E+04  0.29632072847E+04  0.00000000000E+00 0.  1.
         -2   -1    0    0    0  501 -0.00000000000E+00 -0.00000000000E+00 -0.65335633683E+03  0.65335633683E+03  0.00000000000E+00 0. -1.
         23    2    1    2    0    0 -0.95459247568E+03  0.77436808351E+03  0.19992054360E+04  0.23487334447E+04  0.93987740808E+02 0.  0.
         13    1    3    3    0    0 -0.78373468376E+03  0.58741278826E+03  0.15783919184E+04  0.18575830766E+04  0.00000000000E+00 0. -1.
        -13    1    3    3    0    0 -0.17085779192E+03  0.18695529525E+03  0.42081351764E+03  0.49115036813E+03  0.00000000000E+00 0.  1.
         22    1    1    2    0    0  0.95459247568E+03 -0.77436808351E+03  0.31064551190E+03  0.12678301769E+04  0.00000000000E+00 0. -1.
<mgrwt>
<rscale>  0 0.27828261E+04</rscale>
<asrwt>0</asrwt>
<pdfrwt beam="1">  1        2 0.45587804E+00 0.27828261E+04</pdfrwt>
<pdfrwt beam="2">  1       -2 0.10051636E+00 0.27828261E+04</pdfrwt>
<totfact> 0.13048024E+00</totfact>
</mgrwt>
</event>
<event>
 6    1  0.5026615E-004  0.9414567E+03  0.7818608E-02  0.9375193E-01
         -2   -1    0    0    0  501 -0.00000000000E+00  0.00000000000E+00  0.15927100634E+03  0.15927100634E+03  0.00000000000E+00 0. -1.
          2   -1    0    0  501    0  0.00000000000E+00 -0.00000000000E+00 -0.13912460602E+04  0.13912460602E+04  0.00000000000E+00 0.  1.
         23    2    1    2    0    0 -0.13247677460E+03  0.31997609527E+03 -0.10601133456E+03  0.37249792640E+03  0.87071836796E+02 0.  0.
         11    1    3    3    0    0 -0.97848878066E+02  0.13888379011E+03 -0.74253445282E+02  0.18540950415E+03  0.00000000000E+00 0.  1.
        -11    1    3    3    0    0 -0.34627896534E+02  0.18109230516E+03 -0.31757889277E+02  0.18708842225E+03  0.00000000000E+00 0. -1.
         22    1    1    2    0    0  0.13247677460E+03 -0.31997609527E+03 -0.11259637193E+04  0.11780191401E+04  0.00000000000E+00 0.  1.
<mgrwt>
<rscale>  0 0.94145666E+03</rscale>
<asrwt>0</asrwt>
<pdfrwt beam="1">  1        2 0.21403786E+00 0.94145666E+03</pdfrwt>
<pdfrwt beam="2">  1       -2 0.24503231E-01 0.94145666E+03</pdfrwt>
<totfact> 0.21778264E+02</totfact>
</mgrwt>
</event>
<event>
 6    1  0.5026615E-004  0.2140849E+04  0.7818608E-02  0.8543460E-01
         -2   -1    0    0    0  501 -0.00000000000E+00  0.00000000000E+00  0.77406221349E+03  0.77406221349E+03  0.00000000000E+00 0.  1.
          2   -1    0    0  501    0  0.00000000000E+00 -0.00000000000E+00 -0.14802535748E+04  0.14802535748E+04  0.00000000000E+00 0. -1.
         23    2    1    2    0    0 -0.85207232725E+03 -0.60494603214E+03 -0.58816836181E+03  0.12026901986E+04  0.92383652106E+02 0.  0.
         11    1    3    3    0    0 -0.33026671858E+03 -0.20124336881E+03 -0.17714018799E+03  0.42538646557E+03  0.00000000000E+00 0.  1.
        -11    1    3    3    0    0 -0.52180560868E+03 -0.40370266334E+03 -0.41102817383E+03  0.77730373298E+03  0.00000000000E+00 0. -1.
         22    1    1    2    0    0  0.85207232725E+03  0.60494603214E+03 -0.11802299954E+03  0.10516255898E+04  0.00000000000E+00 0.  1.
<mgrwt>
<rscale>  0 0.21408488E+04</rscale>
<asrwt>0</asrwt>
<pdfrwt beam="1">  1        2 0.22773132E+00 0.21408488E+04</pdfrwt>
<pdfrwt beam="2">  1       -2 0.11908650E+00 0.21408488E+04</pdfrwt>
<totfact> 0.64752396E+00</totfact>
</mgrwt>
</event>
<event>
 6    1  0.5026615E-004  0.4124932E+04  0.7818608E-02  0.7979807E-01
          2   -1    0    0  501    0  0.00000000000E+00  0.00000000000E+00  0.16337477916E+04  0.16337477916E+04  0.00000000000E+00 0.  1.
         -2   -1    0    0    0  501 -0.00000000000E+00 -0.00000000000E+00 -0.26036863973E+04  0.26036863973E+04  0.00000000000E+00 0. -1.
         23    2    1    2    0    0 -0.98615245676E+03  0.17933661636E+04 -0.73919195211E+03  0.21778461518E+04  0.89164198819E+02 0.  0.
         11    1    3    3    0    0 -0.44255002765E+03  0.89695431462E+03 -0.35683032407E+03  0.10619347671E+04  0.00000000000E+00 0. -1.
        -11    1    3    3    0    0 -0.54360242911E+03  0.89641184895E+03 -0.38236162804E+03  0.11159113847E+04  0.00000000000E+00 0.  1.
         22    1    1    2    0    0  0.98615245676E+03 -0.17933661636E+04 -0.23074665358E+03  0.20595880371E+04  0.00000000000E+00 0.  1.
<mgrwt>
<rscale>  0 0.41249324E+04</rscale>
<asrwt>0</asrwt>
<pdfrwt beam="1">  1        2 0.25134582E+00 0.41249324E+04</pdfrwt>
<pdfrwt beam="2">  1       -2 0.40056713E+00 0.41249324E+04</pdfrwt>
<totfact> 0.61347817E-02</totfact>
</mgrwt>
</event>
<event>
 6    1  0.5026615E-004  0.9372233E+03  0.7818608E-02  0.9380211E-01
          2   -1    0    0  501    0  0.00000000000E+00  0.00000000000E+00  0.10659839176E+04  0.10659839176E+04  0.00000000000E+00 0.  1.
         -2   -1    0    0    0  501 -0.00000000000E+00 -0.00000000000E+00 -0.20600391981E+03  0.20600391981E+03  0.00000000000E+00 0. -1.
         23    2    1    2    0    0 -0.23043082196E+02  0.39793243993E+03  0.11130360630E+03  0.42381477161E+03  0.91374271365E+02 0.  0.
         11    1    3    3    0    0  0.70532251361E+01  0.15843668890E+03  0.14177470540E+01  0.15859994446E+03  0.00000000000E+00 0. -1.
        -11    1    3    3    0    0 -0.30096307332E+02  0.23949575103E+03  0.10988585925E+03  0.26521482715E+03  0.00000000000E+00 0.  1.
         22    1    1    2    0    0  0.23043082196E+02 -0.39793243993E+03  0.74867639153E+03  0.84817306584E+03  0.00000000000E+00 0.  1.
<mgrwt>
<rscale>  0 0.93722327E+03</rscale>
<asrwt>0</asrwt>
<pdfrwt beam="1">  1        2 0.16399752E+00 0.93722327E+03</pdfrwt>
<pdfrwt beam="2">  1       -2 0.31692911E-01 0.93722327E+03</pdfrwt>
<totfact> 0.21154619E+02</totfact>
</mgrwt>
</event>
<event>
 6    1  0.5026615E-004  0.8938875E+03  0.7818608E-02  0.9433255E-01
          2   -1    0    0  501    0  0.00000000000E+00  0.00000000000E+00  0.18237114851E+04  0.18237114851E+04  0.00000000000E+00 0.  1.
         -2   -1    0    0    0  501 -0.00000000000E+00 -0.00000000000E+00 -0.10953416179E+03  0.10953416179E+03  0.00000000000E+00 0. -1.
         23    2    1    2    0    0  0.18692628447E+03 -0.26711892734E+03  0.15113140064E+04  0.15492567375E+04  0.99158739913E+02 0.  0.
         11    1    3    3    0    0  0.69520906708E+02 -0.18243233094E+03  0.91918391086E+03  0.93968812583E+03  0.00000000000E+00 0.  1.
        -11    1    3    3    0    0  0.11740537776E+03 -0.84686596395E+02  0.59213009554E+03  0.60956861171E+03  0.00000000000E+00 0. -1.
         22    1    1    2    0    0 -0.18692628447E+03  0.26711892734E+03  0.20286331693E+03  0.38398890937E+03  0.00000000000E+00 0. -1.
<mgrwt>
<rscale>  0 0.89388748E+03</rscale>
<asrwt>0</asrwt>
<pdfrwt beam="1">  1        2 0.28057097E+00 0.89388748E+03</pdfrwt>
<pdfrwt beam="2">  1       -2 0.16851411E-01 0.89388748E+03</pdfrwt>
<totfact> 0.24267211E+02</totfact>
</mgrwt>
</event>
<event>
 6    1  0.5026615E-004  0.8853137E+03  0.7818608E-02  0.9444128E-01
         -2   -1    0    0    0  501 -0.00000000000E+00  0.00000000000E+00  0.23034206025E+03  0.23034206025E+03  0.00000000000E+00 0. -1.
          2   -1    0    0  501    0  0.00000000000E+00 -0.00000000000E+00 -0.85067006780E+03  0.85067006780E+03  0.00000000000E+00 0.  1.
         23    2    1    2    0    0  0.28246839449E+03 -0.31517411887E+03 -0.17360148700E+03  0.46563606153E+03  0.86927247832E+02 0.  0.
         11    1    3    3    0    0  0.73790366210E+02 -0.10304153163E+03 -0.12755487326E+02  0.12737848265E+03  0.00000000000E+00 0. -1.
        -11    1    3    3    0    0  0.20867802828E+03 -0.21213258724E+03 -0.16084599967E+03  0.33825757888E+03  0.00000000000E+00 0.  1.
         22    1    1    2    0    0 -0.28246839449E+03  0.31517411887E+03 -0.44672652055E+03  0.61537606653E+03  0.00000000000E+00 0.  1.
<mgrwt>
<rscale>  0 0.88531372E+03</rscale>
<asrwt>0</asrwt>
<pdfrwt beam="1">  1        2 0.13087232E+00 0.88531372E+03</pdfrwt>
<pdfrwt beam="2">  1       -2 0.35437239E-01 0.88531372E+03</pdfrwt>
<totfact> 0.23770873E+02</totfact>
</mgrwt>
</event>
<event>
 6    1  0.5026615E-004  0.2340490E+04  0.7818608E-02  0.8462125E-01
         -2   -1    0    0    0  501 -0.00000000000E+00  0.00000000000E+00  0.81585049218E+03  0.81585049218E+03  0.00000000000E+00 0. -1.
          2   -1    0    0  501    0  0.00000000000E+00 -0.00000000000E+00 -0.16785839966E+04  0.16785839966E+04  0.00000000000E+00 0.  1.
         23    2    1    2    0    0 -0.41469050024E+03  0.10123274338E+04 -0.87007224997E+03  0.14004377331E+04  0.86168902779E+02 0.  0.
         11    1    3    3    0    0 -0.33794360818E+03  0.89779587287E+03 -0.76947408909E+03  0.12297697693E+04  0.00000000000E+00 0. -1.
        -11    1    3    3    0    0 -0.76746892060E+02  0.11453156094E+03 -0.10059816088E+03  0.17066796379E+03  0.00000000000E+00 0.  1.
         22    1    1    2    0    0  0.41469050024E+03 -0.10123274338E+04  0.73387455870E+01  0.10939967557E+04  0.00000000000E+00 0.  1.
<mgrwt>
<rscale>  0 0.23404902E+04</rscale>
<asrwt>0</asrwt>
<pdfrwt beam="1">  1        2 0.25824369E+00 0.23404902E+04</pdfrwt>
<pdfrwt beam="2">  1       -2 0.12551546E+00 0.23404902E+04</pdfrwt>
<totfact> 0.43229909E+00</totfact>
</mgrwt>
</event>
<event>
 6    1  0.5026615E-004  0.1269235E+04  0.7818608E-02  0.9054324E-01
          2   -1    0    0  501    0  0.00000000000E+00  0.00000000000E+00  0.19591918413E+04  0.19591918413E+04  0.00000000000E+00 0.  1.
         -2   -1    0    0    0  501 -0.00000000000E+00 -0.00000000000E+00 -0.20556409793E+03  0.20556409793E+03  0.00000000000E+00 0. -1.
         23    2    1    2    0    0 -0.13325073429E+03 -0.35995523043E+03  0.17361121398E+04  0.17805290239E+04  0.94205714737E+02 0.  0.
         11    1    3    3    0    0 -0.55121728620E+02 -0.10245464216E+03  0.72244125041E+03  0.73174908197E+03  0.00000000000E+00 0. -1.
        -11    1    3    3    0    0 -0.78129005667E+02 -0.25750058828E+03  0.10136708894E+04  0.10487799419E+04  0.00000000000E+00 0.  1.
         22    1    1    2    0    0  0.13325073429E+03  0.35995523043E+03  0.17515603534E+02  0.38422691534E+03  0.00000000000E+00 0. -1.
<mgrwt>
<rscale>  0 0.12692352E+04</rscale>
<asrwt>0</asrwt>
<pdfrwt beam="1">  1        2 0.30141412E+00 0.12692352E+04</pdfrwt>
<pdfrwt beam="2">  1       -2 0.31625247E-01 0.12692352E+04</pdfrwt>
<totfact> 0.64273757E+01</totfact>
</mgrwt>
</event>
<event>
 6    1  0.5026615E-004  0.7651241E+03  0.7818608E-02  0.9611917E-01
          2   -1    0    0  501    0  0.00000000000E+00  0.00000000000E+00  0.79563511837E+03  0.79563511837E+03  0.00000000000E+00 0.  1.
         -2   -1    0    0    0  501 -0.00000000000E+00 -0.00000000000E+00 -0.18394579622E+03  0.18394579622E+03  0.00000000000E+00 0. -1.
         23    2    1    2    0    0  0.10441615256E+03  0.29890792092E+03  0.57219201058E+03  0.66050613382E+03  0.92822291241E+02 0.  0.
         13    1    3    3    0    0  0.71535559688E+02  0.76294150388E+02  0.16797600744E+03  0.19787388094E+03  0.00000000000E+00 0.  1.
        -13    1    3    3    0    0  0.32880592870E+02  0.22261377053E+03  0.40421600314E+03  0.46263225288E+03  0.00000000000E+00 0. -1.
         22    1    1    2    0    0 -0.10441615256E+03 -0.29890792092E+03  0.39497311577E+02  0.31907478077E+03  0.00000000000E+00 0. -1.
<mgrwt>
<rscale>  0 0.76512413E+03</rscale>
<asrwt>0</asrwt>
<pdfrwt beam="1">  1        2 0.12240540E+00 0.76512413E+03</pdfrwt>
<pdfrwt beam="2">  1       -2 0.28299354E-01 0.76512413E+03</pdfrwt>
<totfact> 0.39850070E+02</totfact>
</mgrwt>
</event>
<event>
 6    1  0.5026615E-004  0.5271913E+04  0.7818608E-02  0.7787878E-01
         -2   -1    0    0    0  501 -0.00000000000E+00  0.00000000000E+00  0.21594916243E+04  0.21594916243E+04  0.00000000000E+00 0. -1.
          2   -1    0    0  501    0  0.00000000000E+00 -0.00000000000E+00 -0.32175479025E+04  0.32175479025E+04  0.00000000000E+00 0.  1.
         23    2    1    2    0    0 -0.16102215651E+04  0.13769360655E+04 -0.21274070681E+04  0.30037975398E+04  0.90401380771E+02 0.  0.
         13    1    3    3    0    0 -0.44458898210E+03  0.33693271367E+03 -0.52828057681E+03  0.76828600428E+03  0.00000000000E+00 0. -1.
        -13    1    3    3    0    0 -0.11656325830E+04  0.10400033518E+04 -0.15991264913E+04  0.22355115355E+04  0.00000000000E+00 0.  1.
         22    1    1    2    0    0  0.16102215651E+04 -0.13769360655E+04  0.10693507900E+04  0.23732419870E+04  0.00000000000E+00 0.  1.
<mgrwt>
<rscale>  0 0.52719134E+04</rscale>
<asrwt>0</asrwt>
<pdfrwt beam="1">  1        2 0.49500737E+00 0.52719134E+04</pdfrwt>
<pdfrwt beam="2">  1       -2 0.33222948E+00 0.52719134E+04</pdfrwt>
<totfact> 0.18075050E-02</totfact>
</mgrwt>
</event>
<event>
 6    1  0.5026615E-004  0.3721925E+04  0.7818608E-02  0.8063120E-01
          2   -1    0    0  501    0  0.00000000000E+00  0.00000000000E+00  0.25754826710E+04  0.25754826710E+04  0.00000000000E+00 0.  1.
         -2   -1    0    0    0  501 -0.00000000000E+00 -0.00000000000E+00 -0.13446728506E+04  0.13446728506E+04  0.00000000000E+00 0. -1.
         23    2    1    2    0    0  0.10891356629E+04  0.66945073261E+03  0.20385188392E+04  0.24079469927E+04  0.90933414708E+02 0.  0.
         13    1    3    3    0    0  0.72642652889E+03  0.48712512480E+03  0.13459441156E+04  0.16051641509E+04  0.00000000000E+00 0. -1.
        -13    1    3    3    0    0  0.36270913406E+03  0.18232560781E+03  0.69257472363E+03  0.80278284175E+03  0.00000000000E+00 0.  1.
         22    1    1    2    0    0 -0.10891356629E+04 -0.66945073261E+03 -0.80770901885E+03  0.15122085289E+04  0.00000000000E+00 0. -1.
<mgrwt>
<rscale>  0 0.37219251E+04</rscale>
<asrwt>0</asrwt>
<pdfrwt beam="1">  1        2 0.39622810E+00 0.37219251E+04</pdfrwt>
<pdfrwt beam="2">  1       -2 0.20687275E+00 0.37219251E+04</pdfrwt>
<totfact> 0.30446942E-01</totfact>
</mgrwt>
</event>
<event>
 6    1  0.5026615E-004  0.1273932E+04  0.7818608E-02  0.9050497E-01
          2   -1    0    0  501    0  0.00000000000E+00  0.00000000000E+00  0.13368820611E+04  0.13368820611E+04  0.00000000000E+00 0.  1.
         -2   -1    0    0    0  501 -0.00000000000E+00 -0.00000000000E+00 -0.30348640118E+03  0.30348640118E+03  0.00000000000E+00 0. -1.
         23    2    1    2    0    0 -0.43164756126E+03  0.18371963090E+03  0.10681419035E+04  0.11699645706E+04  0.88416347055E+02 0.  0.
         11    1    3    3    0    0 -0.39827214258E+03  0.18425859176E+03  0.93744592662E+03  0.10350733276E+04  0.00000000000E+00 0.  1.
        -11    1    3    3    0    0 -0.33375418681E+02 -0.53896086345E+00  0.13069597690E+03  0.13489124296E+03  0.00000000000E+00 0. -1.
         22    1    1    2    0    0  0.43164756126E+03 -0.18371963090E+03 -0.34746243570E+02  0.47040389174E+03  0.00000000000E+00 0. -1.
<mgrwt>
<rscale>  0 0.12739317E+04</rscale>
<asrwt>0</asrwt>
<pdfrwt beam="1">  1        2 0.20567416E+00 0.12739317E+04</pdfrwt>
<pdfrwt beam="2">  1       -2 0.46690217E-01 0.12739317E+04</pdfrwt>
<totfact> 0.67162296E+01</totfact>
</mgrwt>
</event>
<event>
 6    1  0.5026615E-004  0.2571148E+04  0.7818608E-02  0.8378068E-01
          2   -1    0    0  501    0  0.00000000000E+00  0.00000000000E+00  0.23257819336E+04  0.23257819336E+04  0.00000000000E+00 0.  1.
         -2   -1    0    0    0  501 -0.00000000000E+00 -0.00000000000E+00 -0.71059978839E+03  0.71059978839E+03  0.00000000000E+00 0. -1.
         23    2    1    2    0    0 -0.24936973518E+03 -0.11212123238E+04  0.13109116375E+03  0.11597282161E+04  0.92099415116E+02 0.  0.
         13    1    3    3    0    0 -0.83026837896E+02 -0.22211385674E+03  0.44684105716E+02  0.24129792885E+03  0.00000000000E+00 0. -1.
        -13    1    3    3    0    0 -0.16634289729E+03 -0.89909846704E+03  0.86407058030E+02  0.91843028727E+03  0.00000000000E+00 0.  1.
         22    1    1    2    0    0  0.24936973518E+03  0.11212123238E+04  0.14840909814E+04  0.18766535058E+04  0.00000000000E+00 0.  1.
<mgrwt>
<rscale>  0 0.25711477E+04</rscale>
<asrwt>0</asrwt>
<pdfrwt beam="1">  1        2 0.35781260E+00 0.25711477E+04</pdfrwt>
<pdfrwt beam="2">  1       -2 0.10932305E+00 0.25711477E+04</pdfrwt>
<totfact> 0.25914888E+00</totfact>
</mgrwt>
</event>
<event>
 6    1  0.5026615E-004  0.8702978E+03  0.7818608E-02  0.9463492E-01
          2   -1    0    0  501    0  0.00000000000E+00  0.00000000000E+00  0.16120179827E+03  0.16120179827E+03  0.00000000000E+00 0.  1.
         -2   -1    0    0    0  501 -0.00000000000E+00 -0.00000000000E+00 -0.11746429070E+04  0.11746429070E+04  0.00000000000E+00 0. -1.
         23    2    1    2    0    0 -0.42276906796E+03 -0.40002842061E+02 -0.40442102642E+03  0.59338974175E+03  0.90670319328E+02 0.  0.
         13    1    3    3    0    0 -0.10064494681E+03 -0.48938283852E+02 -0.10890145862E+03  0.15615341378E+03  0.00000000000E+00 0.  1.
        -13    1    3    3    0    0 -0.32212412115E+03  0.89354417914E+01 -0.29551956781E+03  0.43723632798E+03  0.00000000000E+00 0. -1.
         22    1    1    2    0    0  0.42276906796E+03  0.40002842061E+02 -0.60902008235E+03  0.74245496356E+03  0.00000000000E+00 0. -1.
<mgrwt>
<rscale>  0 0.87029776E+03</rscale>
<asrwt>0</asrwt>
<pdfrwt beam="1">  1        2 0.24800276E-01 0.87029776E+03</pdfrwt>
<pdfrwt beam="2">  1       -2 0.18071430E+00 0.87029776E+03</pdfrwt>
<totfact> 0.39927507E+01</totfact>
</mgrwt>
</event>
<event>
 6    1  0.5026615E-004  0.3437445E+04  0.7818608E-02  0.8128777E-01
          2   -1    0    0  501    0  0.00000000000E+00  0.00000000000E+00  0.18003012030E+04  0.18003012030E+04  0.00000000000E+00 0.  1.
         -2   -1    0    0    0  501 -0.00000000000E+00 -0.00000000000E+00 -0.16408402318E+04  0.16408402318E+04  0.00000000000E+00 0. -1.
         23    2    1    2    0    0 -0.61727329947E+03 -0.23987961947E+03  0.16662227661E+04  0.17952679085E+04  0.90111036702E+02 0.  0.
         13    1    3    3    0    0 -0.43236477699E+03 -0.13593319010E+03  0.10531382582E+04  0.11465240178E+04  0.00000000000E+00 0. -1.
        -13    1    3    3    0    0 -0.18490852248E+03 -0.10394642937E+03  0.61308450792E+03  0.64874389070E+03  0.00000000000E+00 0.  1.
         22    1    1    2    0    0  0.61727329947E+03  0.23987961947E+03 -0.15067617949E+04  0.16458735263E+04  0.00000000000E+00 0. -1.
<mgrwt>
<rscale>  0 0.34374448E+04</rscale>
<asrwt>0</asrwt>
<pdfrwt beam="1">  1        2 0.27696942E+00 0.34374448E+04</pdfrwt>
<pdfrwt beam="2">  1       -2 0.25243696E+00 0.34374448E+04</pdfrwt>
<totfact> 0.44228385E-01</totfact>
</mgrwt>
</event>
<event>
 6    1  0.5026615E-004  0.2284906E+04  0.7818608E-02  0.8483896E-01
          2   -1    0    0  501    0  0.00000000000E+00  0.00000000000E+00  0.30161155626E+04  0.30161155626E+04  0.00000000000E+00 0.  1.
         -2   -1    0    0    0  501 -0.00000000000E+00 -0.00000000000E+00 -0.43274159738E+03  0.43274159738E+03  0.00000000000E+00 0. -1.
         23    2    1    2    0    0  0.25102418432E+02  0.50565493070E+03 -0.25207485646E+03  0.56856428238E+03  0.58365825455E+02 0.  0.
         13    1    3    3    0    0  0.31756460172E+01  0.18004459414E+03 -0.12060862911E+03  0.21673158981E+03  0.00000000000E+00 0.  1.
        -13    1    3    3    0    0  0.21926772415E+02  0.32561033656E+03 -0.13146622736E+03  0.35183269257E+03  0.00000000000E+00 0. -1.
         22    1    1    2    0    0 -0.25102418432E+02 -0.50565493070E+03  0.28354488217E+04  0.28802928776E+04  0.00000000000E+00 0.  1.
<mgrwt>
<rscale>  0 0.22849058E+04</rscale>
<asrwt>0</asrwt>
<pdfrwt beam="1">  1        2 0.46401777E+00 0.22849058E+04</pdfrwt>
<pdfrwt beam="2">  1       -2 0.66575632E-01 0.22849058E+04</pdfrwt>
<totfact> 0.32040655E+00</totfact>
</mgrwt>
</event>
<event>
 6    1  0.5026615E-004  0.4803210E+04  0.7818608E-02  0.7859602E-01
         -2   -1    0    0    0  501 -0.00000000000E+00  0.00000000000E+00  0.42442338819E+04  0.42442338819E+04  0.00000000000E+00 0. -1.
          2   -1    0    0  501    0  0.00000000000E+00 -0.00000000000E+00 -0.13589510097E+04  0.13589510097E+04  0.00000000000E+00 0.  1.
         23    2    1    2    0    0  0.81962940136E+03 -0.21965207247E+04  0.84043934444E+03  0.24922556570E+04  0.92218864525E+02 0.  0.
         11    1    3    3    0    0  0.98260848910E+02 -0.25863559806E+03  0.13126415743E+03  0.30623168686E+03  0.00000000000E+00 0. -1.
        -11    1    3    3    0    0  0.72136855245E+03 -0.19378851266E+04  0.70917518700E+03  0.21860239702E+04  0.00000000000E+00 0.  1.
         22    1    1    2    0    0 -0.81962940136E+03  0.21965207247E+04  0.20448435277E+04  0.31109292345E+04  0.00000000000E+00 0. -1.
<mgrwt>
<rscale>  0 0.48032097E+04</rscale>
<asrwt>0</asrwt>
<pdfrwt beam="1">  1        2 0.20906939E+00 0.48032097E+04</pdfrwt>
<pdfrwt beam="2">  1       -2 0.65295905E+00 0.48032097E+04</pdfrwt>
<totfact> 0.37402939E-03</totfact>
</mgrwt>
</event>
<event>
 6    1  0.5026615E-004  0.7533930E+03  0.7818608E-02  0.9630042E-01
          2   -1    0    0  501    0  0.00000000000E+00  0.00000000000E+00  0.55559265952E+03  0.55559265952E+03  0.00000000000E+00 0.  1.
         -2   -1    0    0    0  501 -0.00000000000E+00 -0.00000000000E+00 -0.25540343011E+03  0.25540343011E+03  0.00000000000E+00 0. -1.
         23    2    1    2    0    0  0.12803904776E+03 -0.16821845592E+02  0.52700501607E+03  0.54999345876E+03  0.89897416387E+02 0.  0.
         11    1    3    3    0    0  0.98041478915E+02 -0.46894477706E+02  0.30070590549E+03  0.31974249830E+03  0.00000000000E+00 0. -1.
        -11    1    3    3    0    0  0.29997568842E+02  0.30072632114E+02  0.22629911059E+03  0.23025096046E+03  0.00000000000E+00 0.  1.
         22    1    1    2    0    0 -0.12803904776E+03  0.16821845592E+02 -0.22681578666E+03  0.26100263087E+03  0.00000000000E+00 0. -1.
<mgrwt>
<rscale>  0 0.75339305E+03</rscale>
<asrwt>0</asrwt>
<pdfrwt beam="1">  1        2 0.85475794E-01 0.75339305E+03</pdfrwt>
<pdfrwt beam="2">  1       -2 0.39292836E-01 0.75339305E+03</pdfrwt>
<totfact> 0.33546170E+02</totfact>
</mgrwt>
</event>
<event>
 6    1  0.5026615E-004  0.3205208E+04  0.7818608E-02  0.8187443E-01
         -2   -1    0    0    0  501 -0.00000000000E+00  0.00000000000E+00  0.91765364535E+03  0.91765364535E+03  0.00000000000E+00 0. -1.
          2   -1    0    0  501    0  0.00000000000E+00 -0.00000000000E+00 -0.27988113547E+04  0.27988113547E+04  0.00000000000E+00 0.  1.
         23    2    1    2    0    0 -0.64966229048E+03  0.99225370231E+03  0.30631431315E+03  0.12281598840E+04  0.88992925554E+02 0.  0.
         13    1    3    3    0    0 -0.62631421869E+03  0.92223666430E+03  0.27668376190E+03  0.11486269497E+04  0.00000000000E+00 0.  1.
        -13    1    3    3    0    0 -0.23348071789E+02  0.70017038014E+02  0.29630551248E+02  0.79532934283E+02  0.00000000000E+00 0. -1.
         22    1    1    2    0    0  0.64966229048E+03 -0.99225370231E+03 -0.21874720225E+04  0.24883051161E+04  0.00000000000E+00 0.  1.
<mgrwt>
<rscale>  0 0.32052079E+04</rscale>
<asrwt>0</asrwt>
<pdfrwt beam="1">  1        2 0.43058637E+00 0.32052079E+04</pdfrwt>
<pdfrwt beam="2">  1       -2 0.14117748E+00 0.32052079E+04</pdfrwt>
<totfact> 0.68477592E-01</totfact>
</mgrwt>
</event>
<event>
 6    1  0.5026615E-004  0.3183670E+04  0.7818608E-02  0.8193143E-01
          2   -1    0    0  501    0  0.00000000000E+00  0.00000000000E+00  0.25244922081E+04  0.25244922081E+04  0.00000000000E+00 0.  1.
         -2   -1    0    0    0  501 -0.00000000000E+00 -0.00000000000E+00 -0.10037418274E+04  0.10037418274E+04  0.00000000000E+00 0. -1.
         23    2    1    2    0    0 -0.57836515133E+03  0.34191003884E+01  0.24035418288E+04  0.24728484759E+04  0.58722426762E+02 0.  0.
         13    1    3    3    0    0 -0.53679823769E+03 -0.94310906582E+01  0.21824326263E+04  0.22474993797E+04  0.00000000000E+00 0.  1.
        -13    1    3    3    0    0 -0.41566913639E+02  0.12850191047E+02  0.22110920248E+03  0.22534909616E+03  0.00000000000E+00 0. -1.
         22    1    1    2    0    0  0.57836515133E+03 -0.34191003884E+01 -0.88279144808E+03  0.10553855596E+04  0.00000000000E+00 0. -1.
<mgrwt>
<rscale>  0 0.31836698E+04</rscale>
<asrwt>0</asrwt>
<pdfrwt beam="1">  1        2 0.38838341E+00 0.31836698E+04</pdfrwt>
<pdfrwt beam="2">  1       -2 0.15442182E+00 0.31836698E+04</pdfrwt>
<totfact> 0.78750729E-01</totfact>
</mgrwt>
</event>
<event>
 6    1  0.5026615E-004  0.1828883E+04  0.7818608E-02  0.8691089E-01
         -2   -1    0    0    0  501 -0.00000000000E+00  0.00000000000E+00  0.35253697086E+03  0.35253697086E+03  0.00000000000E+00 0. -1.
          2   -1    0    0  501    0  0.00000000000E+00 -0.00000000000E+00 -0.23719585510E+04  0.23719585510E+04  0.00000000000E+00 0.  1.
         23    2    1    2    0    0  0.42403563196E+03  0.79956137031E+03 -0.84174911886E+03  0.12392288697E+04  0.89677256125E+02 0.  0.
         13    1    3    3    0    0  0.25140708903E+03  0.44040671354E+03 -0.41420073847E+03  0.65477160102E+03  0.00000000000E+00 0.  1.
        -13    1    3    3    0    0  0.17262854293E+03  0.35915465676E+03 -0.42754838039E+03  0.58445726866E+03  0.00000000000E+00 0. -1.
         22    1    1    2    0    0 -0.42403563196E+03 -0.79956137031E+03 -0.11776724613E+04  0.14852666522E+04  0.00000000000E+00 0.  1.
<mgrwt>
<rscale>  0 0.18288828E+04</rscale>
<asrwt>0</asrwt>
<pdfrwt beam="1">  1        2 0.36491669E+00 0.18288828E+04</pdfrwt>
<pdfrwt beam="2">  1       -2 0.54236458E-01 0.18288828E+04</pdfrwt>
<totfact> 0.12444244E+01</totfact>
</mgrwt>
</event>
<event>
 6    1  0.5026615E-004  0.1290322E+04  0.7818608E-02  0.9037275E-01
         -2   -1    0    0    0  501 -0.00000000000E+00  0.00000000000E+00  0.36565118181E+03  0.36565118181E+03  0.00000000000E+00 0. -1.
          2   -1    0    0  501    0  0.00000000000E+00 -0.00000000000E+00 -0.11383327341E+04  0.11383327341E+04  0.00000000000E+00 0.  1.
         23    2    1    2    0    0 -0.42436746740E+03  0.12905328147E+02 -0.94854632746E+03  0.10444377114E+04  0.10419070392E+03 0.  0.
         13    1    3    3    0    0 -0.36725819161E+03 -0.23845805150E+02 -0.82727938665E+03  0.90544927263E+03  0.00000000000E+00 0.  1.
        -13    1    3    3    0    0 -0.57109275792E+02  0.36751133297E+02 -0.12126694081E+03  0.13898843878E+03  0.00000000000E+00 0. -1.
         22    1    1    2    0    0  0.42436746740E+03 -0.12905328147E+02  0.17586477521E+03  0.45954620447E+03  0.00000000000E+00 0. -1.
<mgrwt>
<rscale>  0 0.12903220E+04</rscale>
<asrwt>0</asrwt>
<pdfrwt beam="1">  1        2 0.17512811E+00 0.12903220E+04</pdfrwt>
<pdfrwt beam="2">  1       -2 0.56254028E-01 0.12903220E+04</pdfrwt>
<totfact> 0.60035361E+01</totfact>
</mgrwt>
</event>
<event>
 6    1  0.5026615E-004  0.9578090E+03  0.7818608E-02  0.9356069E-01
         -2   -1    0    0    0  501 -0.00000000000E+00  0.00000000000E+00  0.14287978358E+03  0.14287978358E+03  0.00000000000E+00 0. -1.
          2   -1    0    0  501    0  0.00000000000E+00 -0.00000000000E+00 -0.16051921310E+04  0.16051921310E+04  0.00000000000E+00 0.  1.
         23    2    1    2    0    0  0.40414330509E+03 -0.24038937835E+03 -0.62268613309E+03  0.78573567186E+03  0.92323677432E+02 0.  0.
         11    1    3    3    0    0  0.26210016485E+03 -0.14179913141E+03 -0.32090512769E+03  0.43793103459E+03  0.00000000000E+00 0. -1.
        -11    1    3    3    0    0  0.14204314024E+03 -0.98590246938E+02 -0.30178100541E+03  0.34780463727E+03  0.00000000000E+00 0.  1.
         22    1    1    2    0    0 -0.40414330509E+03  0.24038937835E+03 -0.83962621437E+03  0.96233624276E+03  0.00000000000E+00 0.  1.
<mgrwt>
<rscale>  0 0.95780897E+03</rscale>
<asrwt>0</asrwt>
<pdfrwt beam="1">  1        2 0.24695264E+00 0.95780897E+03</pdfrwt>
<pdfrwt beam="2">  1       -2 0.21981505E-01 0.95780897E+03</pdfrwt>
<totfact> 0.20040447E+02</totfact>
</mgrwt>
</event>
<event>
 6    1  0.5026615E-004  0.9097406E+03  0.7818608E-02  0.9413486E-01
         -2   -1    0    0    0  501 -0.00000000000E+00  0.00000000000E+00  0.60634490884E+03  0.60634490884E+03  0.00000000000E+00 0. -1.
          2   -1    0    0  501    0  0.00000000000E+00 -0.00000000000E+00 -0.34123645265E+03  0.34123645265E+03  0.00000000000E+00 0.  1.
         23    2    1    2    0    0 -0.24967840472E+03  0.25212545593E+03  0.42276802706E+03  0.55929912961E+03  0.90422123207E+02 0.  0.
         11    1    3    3    0    0 -0.55185651295E+02  0.33569842152E+02  0.13128103315E+03  0.14631165393E+03  0.00000000000E+00 0.  1.
        -11    1    3    3    0    0 -0.19449275342E+03  0.21855561378E+03  0.29148699391E+03  0.41298747568E+03  0.00000000000E+00 0. -1.
         22    1    1    2    0    0  0.24967840472E+03 -0.25212545593E+03 -0.15765957086E+03  0.38828223188E+03  0.00000000000E+00 0.  1.
<mgrwt>
<rscale>  0 0.90974059E+03</rscale>
<asrwt>0</asrwt>
<pdfrwt beam="1">  1        2 0.52497916E-01 0.90974059E+03</pdfrwt>
<pdfrwt beam="2">  1       -2 0.93283832E-01 0.90974059E+03</pdfrwt>
<totfact> 0.92754134E+01</totfact>
</mgrwt>
</event>
<event>
 6    1  0.5026615E-004  0.3083876E+04  0.7818608E-02  0.8220177E-01
         -2   -1    0    0    0  501 -0.00000000000E+00  0.00000000000E+00  0.28120858132E+04  0.28120858132E+04  0.00000000000E+00 0. -1.
          2   -1    0    0  501    0  0.00000000000E+00 -0.00000000000E+00 -0.84548359109E+03  0.84548359109E+03  0.00000000000E+00 0.  1.
         23    2    1    2    0    0  0.81111642888E+03  0.53809005180E+03  0.24004496710E+04  0.25918891643E+04  0.90994790136E+02 0.  0.
         13    1    3    3    0    0  0.45972289273E+03  0.25477144970E+03  0.13377829871E+04  0.14373297987E+04  0.00000000000E+00 0.  1.
        -13    1    3    3    0    0  0.35139353614E+03  0.28331860210E+03  0.10626666839E+04  0.11545593656E+04  0.00000000000E+00 0. -1.
         22    1    1    2    0    0 -0.81111642888E+03 -0.53809005180E+03 -0.43384744890E+03  0.10656802400E+04  0.00000000000E+00 0.  1.
<mgrwt>
<rscale>  0 0.30838758E+04</rscale>
<asrwt>0</asrwt>
<pdfrwt beam="1">  1        2 0.13007440E+00 0.30838758E+04</pdfrwt>
<pdfrwt beam="2">  1       -2 0.43262858E+00 0.30838758E+04</pdfrwt>
<totfact> 0.12279635E-01</totfact>
</mgrwt>
</event>
<event>
 6    1  0.5026615E-004  0.3366702E+04  0.7818608E-02  0.8146127E-01
          2   -1    0    0  501    0  0.00000000000E+00  0.00000000000E+00  0.16478160696E+04  0.16478160696E+04  0.00000000000E+00 0.  1.
         -2   -1    0    0    0  501 -0.00000000000E+00 -0.00000000000E+00 -0.17196520278E+04  0.17196520278E+04  0.00000000000E+00 0. -1.
         23    2    1    2    0    0 -0.45118988097E+03 -0.13806074529E+04 -0.88456023683E+03  0.17030853288E+04  0.91671025021E+02 0.  0.
         11    1    3    3    0    0 -0.22021278593E+03 -0.56940846668E+03 -0.40846729690E+03  0.73455102318E+03  0.00000000000E+00 0. -1.
        -11    1    3    3    0    0 -0.23097709504E+03 -0.81119898620E+03 -0.47609293993E+03  0.96853430558E+03  0.00000000000E+00 0.  1.
         22    1    1    2    0    0  0.45118988097E+03  0.13806074529E+04  0.81272427857E+03  0.16643827687E+04  0.00000000000E+00 0.  1.
<mgrwt>
<rscale>  0 0.33667018E+04</rscale>
<asrwt>0</asrwt>
<pdfrwt beam="1">  1        2 0.25351017E+00 0.33667018E+04</pdfrwt>
<pdfrwt beam="2">  1       -2 0.26456185E+00 0.33667018E+04</pdfrwt>
<totfact> 0.45576820E-01</totfact>
</mgrwt>
</event>
<event>
 6    1  0.5026615E-004  0.2350311E+04  0.7818608E-02  0.8458344E-01
         -2   -1    0    0    0  501 -0.00000000000E+00  0.00000000000E+00  0.10484857059E+04  0.10484857059E+04  0.00000000000E+00 0. -1.
          2   -1    0    0  501    0  0.00000000000E+00 -0.00000000000E+00 -0.13171285694E+04  0.13171285694E+04  0.00000000000E+00 0.  1.
         23    2    1    2    0    0  0.14397862554E+03 -0.88385822989E+03  0.62867246737E+03  0.10978958451E+04  0.90614569656E+02 0.  0.
         13    1    3    3    0    0  0.10084195839E+03 -0.52310138714E+03  0.32232415554E+03  0.62265321250E+03  0.00000000000E+00 0.  1.
        -13    1    3    3    0    0  0.43136667155E+02 -0.36075684275E+03  0.30634831184E+03  0.47524263257E+03  0.00000000000E+00 0. -1.
         22    1    1    2    0    0 -0.14397862554E+03  0.88385822989E+03 -0.89731533095E+03  0.12677184302E+04  0.00000000000E+00 0.  1.
<mgrwt>
<rscale>  0 0.23503110E+04</rscale>
<asrwt>0</asrwt>
<pdfrwt beam="1">  1        2 0.20263516E+00 0.23503110E+04</pdfrwt>
<pdfrwt beam="2">  1       -2 0.16130549E+00 0.23503110E+04</pdfrwt>
<totfact> 0.35941277E+00</totfact>
</mgrwt>
</event>
<event>
 6    1  0.5026615E-004  0.2534169E+04  0.7818608E-02  0.8390913E-01
          1   -1    0    0  501    0  0.00000000000E+00  0.00000000000E+00  0.14957208582E+04  0.14957208582E+04  0.00000000000E+00 0. -1.
         -1   -1    0    0    0  501 -0.00000000000E+00 -0.00000000000E+00 -0.10733972382E+04  0.10733972382E+04  0.00000000000E+00 0.  1.
         23    2    1    2    0    0 -0.59573497574E+03 -0.32120639177E+03 -0.87263373031E+03  0.11079581987E+04  0.89487626628E+02 0.  0.
         13    1    3    3    0    0 -0.18277072377E+03 -0.56246943397E+02 -0.26952003172E+03  0.33046921734E+03  0.00000000000E+00 0.  1.
        -13    1    3    3    0    0 -0.41296425198E+03 -0.26495944837E+03 -0.60311369858E+03  0.77748898134E+03  0.00000000000E+00 0. -1.
         22    1    1    2    0    0  0.59573497574E+03  0.32120639177E+03  0.12949573503E+04  0.14611598977E+04  0.00000000000E+00 0. -1.
<mgrwt>
<rscale>  0 0.25341686E+04</rscale>
<asrwt>0</asrwt>
<pdfrwt beam="1">  1        1 0.23011090E+00 0.25341686E+04</pdfrwt>
<pdfrwt beam="2">  1       -1 0.16513804E+00 0.25341686E+04</pdfrwt>
<totfact> 0.15598694E+00</totfact>
</mgrwt>
</event>
<event>
 6    1  0.5026615E-004  0.1471417E+04  0.7818608E-02  0.8903686E-01
         -2   -1    0    0    0  501 -0.00000000000E+00  0.00000000000E+00  0.34737228602E+03  0.34737228602E+03  0.00000000000E+00 0. -1.
          2   -1    0    0  501    0  0.00000000000E+00 -0.00000000000E+00 -0.15581761968E+04  0.15581761968E+04  0.00000000000E+00 0.  1.
         23    2    1    2    0    0  0.67546527726E+02 -0.72902050691E+03 -0.64658409729E+03  0.98122309053E+03  0.93243367697E+02 0.  0.
         11    1    3    3    0    0  0.17714446829E+01 -0.39302902818E+03 -0.38687982491E+03  0.55149882496E+03  0.00000000000E+00 0.  1.
        -11    1    3    3    0    0  0.65775083043E+02 -0.33599147873E+03 -0.25970427237E+03  0.42972426557E+03  0.00000000000E+00 0. -1.
         22    1    1    2    0    0 -0.67546527726E+02  0.72902050691E+03 -0.56421981352E+03  0.92432539232E+03  0.00000000000E+00 0.  1.
<mgrwt>
<rscale>  0 0.14714173E+04</rscale>
<asrwt>0</asrwt>
<pdfrwt beam="1">  1        2 0.23971941E+00 0.14714173E+04</pdfrwt>
<pdfrwt beam="2">  1       -2 0.53441892E-01 0.14714173E+04</pdfrwt>
<totfact> 0.37604819E+01</totfact>
</mgrwt>
</event>
<event>
 6    1  0.5026615E-004  0.1206972E+04  0.7818608E-02  0.9106775E-01
         -1   -1    0    0    0  501 -0.00000000000E+00  0.00000000000E+00  0.14741471835E+04  0.14741471835E+04  0.00000000000E+00 0. -1.
          1   -1    0    0  501    0  0.00000000000E+00 -0.00000000000E+00 -0.24705512433E+03  0.24705512433E+03  0.00000000000E+00 0.  1.
         23    2    1    2    0    0 -0.38980240151E+03 -0.44838698462E+03  0.50071898379E+03  0.78279160626E+03  0.95112553829E+02 0.  0.
         13    1    3    3    0    0 -0.23631265560E+03 -0.28920116299E+03  0.37098258778E+03  0.52641149712E+03  0.00000000000E+00 0. -1.
        -13    1    3    3    0    0 -0.15348974591E+03 -0.15918582162E+03  0.12973639602E+03  0.25638010913E+03  0.00000000000E+00 0.  1.
         22    1    1    2    0    0  0.38980240151E+03  0.44838698462E+03  0.72637307540E+03  0.93841070159E+03  0.00000000000E+00 0. -1.
<mgrwt>
<rscale>  0 0.12069724E+04</rscale>
<asrwt>0</asrwt>
<pdfrwt beam="1">  1        1 0.38008482E-01 0.12069724E+04</pdfrwt>
<pdfrwt beam="2">  1       -1 0.22679187E+00 0.12069724E+04</pdfrwt>
<totfact> 0.11089213E+01</totfact>
</mgrwt>
</event>
<event>
 6    1  0.5026615E-004  0.1451980E+04  0.7818608E-02  0.8917029E-01
          2   -1    0    0  501    0  0.00000000000E+00  0.00000000000E+00  0.17008439657E+04  0.17008439657E+04  0.00000000000E+00 0. -1.
         -2   -1    0    0    0  501 -0.00000000000E+00 -0.00000000000E+00 -0.30988242133E+03  0.30988242133E+03  0.00000000000E+00 0.  1.
         23    2    1    2    0    0  0.56888832907E+03 -0.33200114582E+03  0.28469212249E+03  0.72321299854E+03  0.90159552260E+02 0.  0.
         13    1    3    3    0    0  0.64574004198E+02 -0.40262218532E+02  0.66557933102E+02  0.10109800551E+03  0.00000000000E+00 0. -1.
        -13    1    3    3    0    0  0.50431432487E+03 -0.29173892729E+03  0.21813418939E+03  0.62211499303E+03  0.00000000000E+00 0.  1.
         22    1    1    2    0    0 -0.56888832907E+03  0.33200114582E+03  0.11062694219E+04  0.12875133885E+04  0.00000000000E+00 0. -1.
<mgrwt>
<rscale>  0 0.14519802E+04</rscale>
<asrwt>0</asrwt>
<pdfrwt beam="1">  1        2 0.26166830E+00 0.14519802E+04</pdfrwt>
<pdfrwt beam="2">  1       -2 0.47674219E-01 0.14519802E+04</pdfrwt>
<totfact> 0.39597949E+01</totfact>
</mgrwt>
</event>
<event>
 6    1  0.5026615E-004  0.1894844E+04  0.7818608E-02  0.8657427E-01
         -2   -1    0    0    0  501 -0.00000000000E+00  0.00000000000E+00  0.34203207456E+03  0.34203207456E+03  0.00000000000E+00 0. -1.
          2   -1    0    0  501    0  0.00000000000E+00 -0.00000000000E+00 -0.26243387842E+04  0.26243387842E+04  0.00000000000E+00 0.  1.
         23    2    1    2    0    0 -0.66464855118E+03 -0.30152589193E+03 -0.20840294744E+04  0.22100710359E+04  0.92517963296E+02 0.  0.
         13    1    3    3    0    0 -0.22360242719E+03 -0.78589404953E+02 -0.56580351727E+03  0.61343945111E+03  0.00000000000E+00 0.  1.
        -13    1    3    3    0    0 -0.44104612399E+03 -0.22293648697E+03 -0.15182259571E+04  0.15966315848E+04  0.00000000000E+00 0. -1.
         22    1    1    2    0    0  0.66464855118E+03  0.30152589193E+03 -0.19827723530E+03  0.75629982290E+03  0.00000000000E+00 0. -1.
<mgrwt>
<rscale>  0 0.18948436E+04</rscale>
<asrwt>0</asrwt>
<pdfrwt beam="1">  1        2 0.40374443E+00 0.18948436E+04</pdfrwt>
<pdfrwt beam="2">  1       -2 0.52620319E-01 0.18948436E+04</pdfrwt>
<totfact> 0.94125647E+00</totfact>
</mgrwt>
</event>
<event>
 6    1  0.5026615E-004  0.2096451E+04  0.7818608E-02  0.8562808E-01
          2   -1    0    0  501    0  0.00000000000E+00  0.00000000000E+00  0.11009602200E+04  0.11009602200E+04  0.00000000000E+00 0.  1.
         -2   -1    0    0    0  501 -0.00000000000E+00 -0.00000000000E+00 -0.99801716630E+03  0.99801716630E+03  0.00000000000E+00 0. -1.
         23    2    1    2    0    0 -0.16200176945E+03 -0.10016561455E+04 -0.20540772459E+03  0.10384870235E+04  0.81874034144E+02 0.  0.
         11    1    3    3    0    0 -0.27245652869E+02 -0.30437518205E+03 -0.93243753117E+02  0.31950113387E+03  0.00000000000E+00 0. -1.
        -11    1    3    3    0    0 -0.13475611658E+03 -0.69728096347E+03 -0.11216397148E+03  0.71898588962E+03  0.00000000000E+00 0.  1.
         22    1    1    2    0    0  0.16200176945E+03  0.10016561455E+04  0.30835077832E+03  0.10604903628E+04  0.00000000000E+00 0.  1.
<mgrwt>
<rscale>  0 0.20964515E+04</rscale>
<asrwt>0</asrwt>
<pdfrwt beam="1">  1        2 0.16937850E+00 0.20964515E+04</pdfrwt>
<pdfrwt beam="2">  1       -2 0.15354110E+00 0.20964515E+04</pdfrwt>
<totfact> 0.56468203E+00</totfact>
</mgrwt>
</event>
<event>
 6    1  0.5026615E-004  0.1925938E+04  0.7818608E-02  0.8642052E-01
          2   -1    0    0  501    0  0.00000000000E+00  0.00000000000E+00  0.27753371380E+04  0.27753371380E+04  0.00000000000E+00 0.  1.
         -2   -1    0    0    0  501 -0.00000000000E+00 -0.00000000000E+00 -0.33412500454E+03  0.33412500454E+03  0.00000000000E+00 0. -1.
         23    2    1    2    0    0 -0.43642803667E+03 -0.78789994296E+03  0.68323971830E+03  0.11341842472E+04  0.91113350751E+02 0.  0.
         13    1    3    3    0    0 -0.18217801232E+03 -0.26281774503E+03  0.20534897493E+03  0.38003973053E+03  0.00000000000E+00 0.  1.
        -13    1    3    3    0    0 -0.25425002435E+03 -0.52508219792E+03  0.47789074337E+03  0.75414451669E+03  0.00000000000E+00 0. -1.
         22    1    1    2    0    0  0.43642803667E+03  0.78789994296E+03  0.17579724152E+04  0.19752778954E+04  0.00000000000E+00 0.  1.
<mgrwt>
<rscale>  0 0.19259382E+04</rscale>
<asrwt>0</asrwt>
<pdfrwt beam="1">  1        2 0.42697493E+00 0.19259382E+04</pdfrwt>
<pdfrwt beam="2">  1       -2 0.51403849E-01 0.19259382E+04</pdfrwt>
<totfact> 0.80114973E+00</totfact>
</mgrwt>
</event>
<event>
 6    1  0.5026615E-004  0.1613000E+04  0.7818608E-02  0.8812601E-01
          2   -1    0    0  501    0  0.00000000000E+00  0.00000000000E+00  0.35172583510E+03  0.35172583510E+03  0.00000000000E+00 0.  1.
         -2   -1    0    0    0  501 -0.00000000000E+00 -0.00000000000E+00 -0.18492866176E+04  0.18492866176E+04  0.00000000000E+00 0. -1.
         23    2    1    2    0    0  0.48961906918E+03 -0.23997924341E+03 -0.15572973400E+04  0.16524823018E+04  0.90586325549E+02 0.  0.
         13    1    3    3    0    0  0.22839824452E+03 -0.15015424109E+03 -0.86298848056E+03  0.90524094681E+03  0.00000000000E+00 0. -1.
        -13    1    3    3    0    0  0.26122082467E+03 -0.89825002322E+02 -0.69430885942E+03  0.74724135496E+03  0.00000000000E+00 0.  1.
         22    1    1    2    0    0 -0.48961906918E+03  0.23997924341E+03  0.59736557485E+02  0.54853015093E+03  0.00000000000E+00 0.  1.
<mgrwt>
<rscale>  0 0.16129995E+04</rscale>
<asrwt>0</asrwt>
<pdfrwt beam="1">  1        2 0.54111668E-01 0.16129995E+04</pdfrwt>
<pdfrwt beam="2">  1       -2 0.28450563E+00 0.16129995E+04</pdfrwt>
<totfact> 0.34868623E+00</totfact>
</mgrwt>
</event>
<event>
 6    1  0.5026615E-004  0.2058212E+04  0.7818608E-02  0.8579878E-01
         -2   -1    0    0    0  501 -0.00000000000E+00  0.00000000000E+00  0.18894253643E+04  0.18894253643E+04  0.00000000000E+00 0. -1.
          2   -1    0    0  501    0  0.00000000000E+00 -0.00000000000E+00 -0.56051935293E+03  0.56051935293E+03  0.00000000000E+00 0.  1.
         23    2    1    2    0    0  0.64997160174E+03  0.79345583988E+03  0.74763867660E+03  0.12710015603E+04  0.66679251011E+02 0.  0.
         11    1    3    3    0    0  0.16787643254E+03  0.22564052046E+03  0.17246856420E+03  0.32991142253E+03  0.00000000000E+00 0.  1.
        -11    1    3    3    0    0  0.48209516920E+03  0.56781531942E+03  0.57517011240E+03  0.94109013773E+03  0.00000000000E+00 0. -1.
         22    1    1    2    0    0 -0.64997160174E+03 -0.79345583988E+03  0.58126733479E+03  0.11789431570E+04  0.00000000000E+00 0. -1.
<mgrwt>
<rscale>  0 0.20582123E+04</rscale>
<asrwt>0</asrwt>
<pdfrwt beam="1">  1        2 0.86233748E-01 0.20582123E+04</pdfrwt>
<pdfrwt beam="2">  1       -2 0.29068082E+00 0.20582123E+04</pdfrwt>
<totfact> 0.18049159E+00</totfact>
</mgrwt>
</event>
<event>
 6    1  0.5026615E-004  0.2838804E+04  0.7818608E-02  0.8291322E-01
         -2   -1    0    0    0  501 -0.00000000000E+00  0.00000000000E+00  0.10080051436E+04  0.10080051436E+04  0.00000000000E+00 0. -1.
          2   -1    0    0  501    0  0.00000000000E+00 -0.00000000000E+00 -0.19987017708E+04  0.19987017708E+04  0.00000000000E+00 0.  1.
         23    2    1    2    0    0 -0.10678628841E+04 -0.68129306274E+03 -0.11707653667E+04  0.17272866834E+04  0.91303703165E+02 0.  0.
         13    1    3    3    0    0 -0.13531656272E+03 -0.53011998549E+02 -0.12449785550E+03  0.19136499199E+03  0.00000000000E+00 0. -1.
        -13    1    3    3    0    0 -0.93254632136E+03 -0.62828106419E+03 -0.10462675112E+04  0.15359216914E+04  0.00000000000E+00 0.  1.
         22    1    1    2    0    0  0.10678628841E+04  0.68129306274E+03  0.18006873952E+03  0.12794202310E+04  0.00000000000E+00 0. -1.
<mgrwt>
<rscale>  0 0.28388037E+04</rscale>
<asrwt>0</asrwt>
<pdfrwt beam="1">  1        2 0.30749258E+00 0.28388037E+04</pdfrwt>
<pdfrwt beam="2">  1       -2 0.15507772E+00 0.28388037E+04</pdfrwt>
<totfact> 0.15915765E+00</totfact>
</mgrwt>
</event>
<event>
 6    1  0.5026615E-004  0.2448305E+04  0.7818608E-02  0.8421637E-01
          2   -1    0    0  501    0  0.00000000000E+00  0.00000000000E+00  0.34952257700E+04  0.34952257700E+04  0.00000000000E+00 0.  1.
         -2   -1    0    0    0  501 -0.00000000000E+00 -0.00000000000E+00 -0.42874187775E+03  0.42874187775E+03  0.00000000000E+00 0. -1.
         23    2    1    2    0    0  0.29792146630E+03  0.62458305531E+03  0.31505004096E+04  0.32268880480E+04  0.91062892420E+02 0.  0.
         11    1    3    3    0    0  0.36290509165E+02  0.14851675554E+03  0.79410996816E+03  0.80869330977E+03  0.00000000000E+00 0. -1.
        -11    1    3    3    0    0  0.26163095714E+03  0.47606629977E+03  0.23563904415E+04  0.24181947383E+04  0.00000000000E+00 0.  1.
         22    1    1    2    0    0 -0.29792146630E+03 -0.62458305531E+03 -0.84016517445E+02  0.69707959966E+03  0.00000000000E+00 0. -1.
<mgrwt>
<rscale>  0 0.24483053E+04</rscale>
<asrwt>0</asrwt>
<pdfrwt beam="1">  1        2 0.53772702E+00 0.24483053E+04</pdfrwt>
<pdfrwt beam="2">  1       -2 0.65960291E-01 0.24483053E+04</pdfrwt>
<totfact> 0.15546335E+00</totfact>
</mgrwt>
</event>
<event>
 6    1  0.5026615E-004  0.3749120E+04  0.7818608E-02  0.8057163E-01
         -2   -1    0    0    0  501 -0.00000000000E+00  0.00000000000E+00  0.95374987726E+03  0.95374987726E+03  0.00000000000E+00 0. -1.
          2   -1    0    0  501    0  0.00000000000E+00 -0.00000000000E+00 -0.36843785042E+04  0.36843785042E+04  0.00000000000E+00 0.  1.
         23    2    1    2    0    0  0.17301694398E+04 -0.71605464573E+03 -0.14321488084E+04  0.23594729918E+04  0.99207073812E+02 0.  0.
         11    1    3    3    0    0  0.87613206552E+03 -0.30892481207E+03 -0.71054605931E+03  0.11695801119E+04  0.00000000000E+00 0.  1.
        -11    1    3    3    0    0  0.85403737424E+03 -0.40712983366E+03 -0.72160274914E+03  0.11898928799E+04  0.00000000000E+00 0. -1.
         22    1    1    2    0    0 -0.17301694398E+04  0.71605464573E+03 -0.12984798185E+04  0.22786553897E+04  0.00000000000E+00 0. -1.
<mgrwt>
<rscale>  0 0.37491202E+04</rscale>
<asrwt>0</asrwt>
<pdfrwt beam="1">  1        2 0.56682747E+00 0.37491202E+04</pdfrwt>
<pdfrwt beam="2">  1       -2 0.14673075E+00 0.37491202E+04</pdfrwt>
<totfact> 0.15293109E-01</totfact>
</mgrwt>
</event>
<event>
 6    1  0.5026615E-004  0.3992214E+04  0.7818608E-02  0.8006119E-01
          2   -1    0    0  501    0  0.00000000000E+00  0.00000000000E+00  0.36790643520E+04  0.36790643520E+04  0.00000000000E+00 0.  1.
         -2   -1    0    0    0  501 -0.00000000000E+00 -0.00000000000E+00 -0.10830044452E+04  0.10830044452E+04  0.00000000000E+00 0. -1.
         23    2    1    2    0    0 -0.18510869021E+04  0.23924344643E+03  0.21394611365E+04  0.28405478937E+04  0.87511348878E+02 0.  0.
         11    1    3    3    0    0 -0.12506587934E+04  0.18819582731E+03  0.14961617230E+04  0.19590980037E+04  0.00000000000E+00 0. -1.
        -11    1    3    3    0    0 -0.60042810868E+03  0.51047619120E+02  0.64329941353E+03  0.88144988998E+03  0.00000000000E+00 0.  1.
         22    1    1    2    0    0  0.18510869021E+04 -0.23924344643E+03  0.45659877027E+03  0.19215209035E+04  0.00000000000E+00 0.  1.
<mgrwt>
<rscale>  0 0.39922139E+04</rscale>
<asrwt>0</asrwt>
<pdfrwt beam="1">  1        2 0.56600989E+00 0.39922139E+04</pdfrwt>
<pdfrwt beam="2">  1       -2 0.16661607E+00 0.39922139E+04</pdfrwt>
<totfact> 0.10733908E-01</totfact>
</mgrwt>
</event>
<event>
 6    1  0.5026615E-004  0.4058085E+04  0.7818608E-02  0.7992930E-01
          2   -1    0    0  501    0  0.00000000000E+00  0.00000000000E+00  0.29275826230E+04  0.29275826230E+04  0.00000000000E+00 0.  1.
         -2   -1    0    0    0  501 -0.00000000000E+00 -0.00000000000E+00 -0.14062845966E+04  0.14062845966E+04  0.00000000000E+00 0. -1.
         23    2    1    2    0    0  0.17793392753E+03 -0.13643206540E+04 -0.83014367129E+03  0.16094756568E+04  0.90785712324E+02 0.  0.
         13    1    3    3    0    0  0.69435237550E+02 -0.35320305152E+03 -0.25550916672E+03  0.44142789003E+03  0.00000000000E+00 0. -1.
        -13    1    3    3    0    0  0.10849868998E+03 -0.10111176024E+04 -0.57463450457E+03  0.11680477668E+04  0.00000000000E+00 0.  1.
         22    1    1    2    0    0 -0.17793392753E+03  0.13643206540E+04  0.23514416977E+04  0.27243915627E+04  0.00000000000E+00 0.  1.
<mgrwt>
<rscale>  0 0.40580854E+04</rscale>
<asrwt>0</asrwt>
<pdfrwt beam="1">  1        2 0.45039733E+00 0.40580854E+04</pdfrwt>
<pdfrwt beam="2">  1       -2 0.21635148E+00 0.40580854E+04</pdfrwt>
<totfact> 0.15807063E-01</totfact>
</mgrwt>
</event>
<event>
 6    1  0.5026615E-004  0.3794955E+04  0.7818608E-02  0.8047238E-01
          2   -1    0    0  501    0  0.00000000000E+00  0.00000000000E+00  0.39671274432E+04  0.39671274432E+04  0.00000000000E+00 0.  1.
         -2   -1    0    0    0  501 -0.00000000000E+00 -0.00000000000E+00 -0.90756370674E+03  0.90756370674E+03  0.00000000000E+00 0. -1.
         23    2    1    2    0    0 -0.79809008551E+03 -0.58260452395E+03  0.36097957102E+04  0.37437043945E+04  0.91223395208E+02 0.  0.
         13    1    3    3    0    0 -0.31467495791E+03 -0.26082241727E+03  0.13524852863E+04  0.14128924631E+04  0.00000000000E+00 0.  1.
        -13    1    3    3    0    0 -0.48341512761E+03 -0.32178210668E+03  0.22573104239E+04  0.23308119314E+04  0.00000000000E+00 0. -1.
         22    1    1    2    0    0  0.79809008551E+03  0.58260452395E+03 -0.55023197380E+03  0.11309867554E+04  0.00000000000E+00 0. -1.
<mgrwt>
<rscale>  0 0.37949550E+04</rscale>
<asrwt>0</asrwt>
<pdfrwt beam="1">  1        2 0.61032729E+00 0.37949550E+04</pdfrwt>
<pdfrwt beam="2">  1       -2 0.13962519E+00 0.37949550E+04</pdfrwt>
<totfact> 0.10515843E-01</totfact>
</mgrwt>
</event>
<event>
 6    1  0.5026615E-004  0.1483556E+04  0.7818608E-02  0.8895462E-01
         -1   -1    0    0    0  501 -0.00000000000E+00  0.00000000000E+00  0.76935992443E+03  0.76935992443E+03  0.00000000000E+00 0. -1.
          1   -1    0    0  501    0  0.00000000000E+00 -0.00000000000E+00 -0.71518494322E+03  0.71518494322E+03  0.00000000000E+00 0.  1.
         23    2    1    2    0    0  0.73862988349E+00  0.31239868081E+03 -0.64314830504E+03  0.72044196432E+03  0.88336857143E+02 0.  0.
         13    1    3    3    0    0  0.33303191227E+02  0.24263850978E+03 -0.44646836090E+03  0.50923132883E+03  0.00000000000E+00 0. -1.
        -13    1    3    3    0    0 -0.32564561343E+02  0.69760171023E+02 -0.19667994414E+03  0.21121063549E+03  0.00000000000E+00 0.  1.
         22    1    1    2    0    0 -0.73862988349E+00 -0.31239868081E+03  0.69732328625E+03  0.76410290334E+03  0.00000000000E+00 0. -1.
<mgrwt>
<rscale>  0 0.14835560E+04</rscale>
<asrwt>0</asrwt>
<pdfrwt beam="1">  1        1 0.11002845E+00 0.14835560E+04</pdfrwt>
<pdfrwt beam="2">  1       -1 0.11836306E+00 0.14835560E+04</pdfrwt>
<totfact> 0.16355689E+01</totfact>
</mgrwt>
</event>
<event>
 6    1  0.5026615E-004  0.3424354E+04  0.7818608E-02  0.8131955E-01
         -2   -1    0    0    0  501 -0.00000000000E+00  0.00000000000E+00  0.62016584807E+03  0.62016584807E+03  0.00000000000E+00 0. -1.
          2   -1    0    0  501    0  0.00000000000E+00 -0.00000000000E+00 -0.47270432244E+04  0.47270432244E+04  0.00000000000E+00 0.  1.
         23    2    1    2    0    0  0.15040398342E+01 -0.14251952785E+04 -0.35332251242E+04  0.38108950583E+04  0.89763707487E+02 0.  0.
         11    1    3    3    0    0 -0.43662671984E+02 -0.78251483467E+03 -0.19285137706E+04  0.20816823146E+04  0.00000000000E+00 0. -1.
        -11    1    3    3    0    0  0.45166711819E+02 -0.64268044379E+03 -0.16047113536E+04  0.17292127437E+04  0.00000000000E+00 0.  1.
         22    1    1    2    0    0 -0.15040398342E+01  0.14251952785E+04 -0.57365225220E+03  0.15363140142E+04  0.00000000000E+00 0. -1.
<mgrwt>
<rscale>  0 0.34243544E+04</rscale>
<asrwt>0</asrwt>
<pdfrwt beam="1">  1        2 0.72723743E+00 0.34243544E+04</pdfrwt>
<pdfrwt beam="2">  1       -2 0.95410129E-01 0.34243544E+04</pdfrwt>
<totfact> 0.54434100E-02</totfact>
</mgrwt>
</event>
<event>
 6    1  0.5026615E-004  0.2487906E+04  0.7818608E-02  0.8407307E-01
         -2   -1    0    0    0  501 -0.00000000000E+00  0.00000000000E+00  0.18346664128E+04  0.18346664128E+04  0.00000000000E+00 0. -1.
          2   -1    0    0  501    0  0.00000000000E+00 -0.00000000000E+00 -0.84343332872E+03  0.84343332872E+03  0.00000000000E+00 0.  1.
         23    2    1    2    0    0  0.11190632234E+04 -0.50375963377E+02 -0.81944639389E+02  0.11267936267E+04  0.90048418594E+02 0.  0.
         11    1    3    3    0    0  0.65948175007E+03 -0.49444013235E+02 -0.88065441601E+02  0.66717045133E+03  0.00000000000E+00 0. -1.
        -11    1    3    3    0    0  0.45958147332E+03 -0.93195014224E+00  0.61208022127E+01  0.45962317540E+03  0.00000000000E+00 0.  1.
         22    1    1    2    0    0 -0.11190632234E+04  0.50375963377E+02  0.10731777235E+04  0.15513061148E+04  0.00000000000E+00 0. -1.
<mgrwt>
<rscale>  0 0.24879058E+04</rscale>
<asrwt>0</asrwt>
<pdfrwt beam="1">  1        2 0.12975897E+00 0.24879058E+04</pdfrwt>
<pdfrwt beam="2">  1       -2 0.28225637E+00 0.24879058E+04</pdfrwt>
<totfact> 0.11684083E+00</totfact>
</mgrwt>
</event>
<event>
 6    1  0.5026615E-004  0.6392541E+04  0.7818608E-02  0.7643549E-01
         -2   -1    0    0    0  501 -0.00000000000E+00  0.00000000000E+00  0.43485913927E+04  0.43485913927E+04  0.00000000000E+00 0. -1.
          2   -1    0    0  501    0  0.00000000000E+00 -0.00000000000E+00 -0.23492996442E+04  0.23492996442E+04  0.00000000000E+00 0.  1.
         23    2    1    2    0    0  0.65703236573E+02 -0.68740431904E+03  0.42689759392E+04  0.43254855195E+04  0.93956359232E+02 0.  0.
         13    1    3    3    0    0  0.11045455179E+01 -0.22559110018E+03  0.11598932171E+04  0.11816280462E+04  0.00000000000E+00 0.  1.
        -13    1    3    3    0    0  0.64598691055E+02 -0.46181321886E+03  0.31090827221E+04  0.31438574733E+04  0.00000000000E+00 0. -1.
         22    1    1    2    0    0 -0.65703236573E+02  0.68740431904E+03 -0.22696841907E+04  0.23724055173E+04  0.00000000000E+00 0.  1.
<mgrwt>
<rscale>  0 0.63925407E+04</rscale>
<asrwt>0</asrwt>
<pdfrwt beam="1">  1        2 0.36143072E+00 0.63925407E+04</pdfrwt>
<pdfrwt beam="2">  1       -2 0.66901406E+00 0.63925407E+04</pdfrwt>
<totfact> 0.82550359E-04</totfact>
</mgrwt>
</event>
<event>
 6    1  0.5026615E-004  0.2152296E+04  0.7818608E-02  0.8538550E-01
          2   -1    0    0  501    0  0.00000000000E+00  0.00000000000E+00  0.37754234403E+04  0.37754234403E+04  0.00000000000E+00 0.  1.
         -2   -1    0    0    0  501 -0.00000000000E+00 -0.00000000000E+00 -0.30674548678E+03  0.30674548678E+03  0.00000000000E+00 0. -1.
         23    2    1    2    0    0 -0.10553707745E+04  0.95945218393E+02  0.14041385434E+04  0.17615362692E+04  0.91607980565E+02 0.  0.
         11    1    3    3    0    0 -0.52335009277E+03  0.80053709982E+02  0.64649677696E+03  0.83562072659E+03  0.00000000000E+00 0. -1.
        -11    1    3    3    0    0 -0.53202068177E+03  0.15891508410E+02  0.75764176644E+03  0.92591554265E+03  0.00000000000E+00 0.  1.
         22    1    1    2    0    0  0.10553707745E+04 -0.95945218393E+02  0.20645394101E+04  0.23206326579E+04  0.00000000000E+00 0.  1.
<mgrwt>
<rscale>  0 0.21522956E+04</rscale>
<asrwt>0</asrwt>
<pdfrwt beam="1">  1        2 0.58083434E+00 0.21522956E+04</pdfrwt>
<pdfrwt beam="2">  1       -2 0.47191616E-01 0.21522956E+04</pdfrwt>
<totfact> 0.20140923E+00</totfact>
</mgrwt>
</event>
<event>
 6    1  0.5825975E-004  0.4190695E+04  0.7818608E-02  0.7967145E-01
         -2   -1    0    0    0  501 -0.00000000000E+00  0.00000000000E+00  0.16006644798E+04  0.16006644798E+04  0.00000000000E+00 0. -1.
          2   -1    0    0  501    0  0.00000000000E+00 -0.00000000000E+00 -0.27429121100E+04  0.27429121100E+04  0.00000000000E+00 0.  1.
         23    2    1    2    0    0 -0.15134953655E+04  0.23950090615E+03  0.90841824356E+03  0.17836431080E+04  0.90167209949E+02 0.  0.
         11    1    3    3    0    0 -0.56732487113E+03  0.13182196137E+03  0.32879609927E+03  0.66883586461E+03  0.00000000000E+00 0. -1.
        -11    1    3    3    0    0 -0.94617049442E+03  0.10767894479E+03  0.57962214428E+03  0.11148072433E+04  0.00000000000E+00 0.  1.
         22    1    1    2    0    0  0.15134953655E+04 -0.23950090615E+03 -0.20506658737E+04  0.25599334818E+04  0.00000000000E+00 0.  1.
<mgrwt>
<rscale>  0 0.41906954E+04</rscale>
<asrwt>0</asrwt>
<pdfrwt beam="1">  1        2 0.42198648E+00 0.41906954E+04</pdfrwt>
<pdfrwt beam="2">  1       -2 0.24625608E+00 0.41906954E+04</pdfrwt>
<totfact> 0.13175275E-01</totfact>
</mgrwt>
</event>
<event>
 6    1  0.5026615E-004  0.4272835E+04  0.7818608E-02  0.7951660E-01
          2   -1    0    0  501    0  0.00000000000E+00  0.00000000000E+00  0.26591108121E+04  0.26591108121E+04  0.00000000000E+00 0.  1.
         -2   -1    0    0    0  501 -0.00000000000E+00 -0.00000000000E+00 -0.17164687889E+04  0.17164687889E+04  0.00000000000E+00 0. -1.
         23    2    1    2    0    0  0.10400745271E+04 -0.14470748811E+04 -0.73332658003E+03  0.19292248654E+04  0.91432897323E+02 0.  0.
         13    1    3    3    0    0  0.70276225968E+03 -0.10079168417E+04 -0.46359840429E+03  0.13132762976E+04  0.00000000000E+00 0. -1.
        -13    1    3    3    0    0  0.33731226738E+03 -0.43915803942E+03 -0.26972817575E+03  0.61594856775E+03  0.00000000000E+00 0.  1.
         22    1    1    2    0    0 -0.10400745271E+04  0.14470748811E+04  0.16759686032E+04  0.24463547356E+04  0.00000000000E+00 0.  1.
<mgrwt>
<rscale>  0 0.42728355E+04</rscale>
<asrwt>0</asrwt>
<pdfrwt beam="1">  1        2 0.40909397E+00 0.42728355E+04</pdfrwt>
<pdfrwt beam="2">  1       -2 0.26407212E+00 0.42728355E+04</pdfrwt>
<totfact> 0.11416889E-01</totfact>
</mgrwt>
</event>
<event>
 6    1  0.5026615E-004  0.1663289E+04  0.7818608E-02  0.8782584E-01
          2   -1    0    0  501    0  0.00000000000E+00  0.00000000000E+00  0.24713421332E+04  0.24713421332E+04  0.00000000000E+00 0.  1.
         -2   -1    0    0    0  501 -0.00000000000E+00 -0.00000000000E+00 -0.27986096350E+03  0.27986096350E+03  0.00000000000E+00 0. -1.
         23    2    1    2    0    0  0.50722640347E+03  0.39604853017E+03  0.19645265432E+04  0.20688238289E+04  0.80835844227E+02 0.  0.
         13    1    3    3    0    0  0.41267662592E+03  0.32210546637E+03  0.16894813510E+04  0.17687286859E+04  0.00000000000E+00 0. -1.
        -13    1    3    3    0    0  0.94549777550E+02  0.73943063797E+02  0.27504519215E+03  0.30009514298E+03  0.00000000000E+00 0.  1.
         22    1    1    2    0    0 -0.50722640347E+03 -0.39604853017E+03  0.22695462658E+03  0.68237926782E+03  0.00000000000E+00 0. -1.
<mgrwt>
<rscale>  0 0.16632885E+04</rscale>
<asrwt>0</asrwt>
<pdfrwt beam="1">  1        2 0.38020647E+00 0.16632885E+04</pdfrwt>
<pdfrwt beam="2">  1       -2 0.43055534E-01 0.16632885E+04</pdfrwt>
<totfact> 0.17681639E+01</totfact>
</mgrwt>
</event>
<event>
 6    1  0.5026615E-004  0.2972151E+04  0.7818608E-02  0.8251728E-01
          2   -1    0    0  501    0  0.00000000000E+00  0.00000000000E+00  0.21510210856E+04  0.21510210856E+04  0.00000000000E+00 0.  1.
         -2   -1    0    0    0  501 -0.00000000000E+00 -0.00000000000E+00 -0.10266847317E+04  0.10266847317E+04  0.00000000000E+00 0. -1.
         23    2    1    2    0    0 -0.90887231441E+03 -0.90733400614E+03  0.13587520170E+04  0.18722347967E+04  0.98753267775E+02 0.  0.
         11    1    3    3    0    0 -0.52646651449E+03 -0.55860516287E+03  0.74930923802E+03  0.10726933639E+04  0.00000000000E+00 0. -1.
        -11    1    3    3    0    0 -0.38240579992E+03 -0.34872884327E+03  0.60944277897E+03  0.79954143281E+03  0.00000000000E+00 0.  1.
         22    1    1    2    0    0  0.90887231441E+03  0.90733400614E+03 -0.23441566306E+03  0.13054710206E+04  0.00000000000E+00 0. -1.
<mgrwt>
<rscale>  0 0.29721511E+04</rscale>
<asrwt>0</asrwt>
<pdfrwt beam="1">  1        2 0.33092632E+00 0.29721511E+04</pdfrwt>
<pdfrwt beam="2">  1       -2 0.15795150E+00 0.29721511E+04</pdfrwt>
<totfact> 0.12314218E+00</totfact>
</mgrwt>
</event>
<event>
 6    1  0.5026615E-004  0.2530694E+04  0.7818608E-02  0.8392132E-01
          2   -1    0    0  501    0  0.00000000000E+00  0.00000000000E+00  0.35016680390E+04  0.35016680390E+04  0.00000000000E+00 0. -1.
         -2   -1    0    0    0  501 -0.00000000000E+00 -0.00000000000E+00 -0.45724012375E+03  0.45724012375E+03  0.00000000000E+00 0.  1.
         23    2    1    2    0    0 -0.27673627363E+03 -0.11052871803E+04  0.66967533233E+03  0.13249581734E+04  0.93842391819E+02 0.  0.
         11    1    3    3    0    0 -0.16826495955E+03 -0.70793432795E+03  0.37574078992E+03  0.81894154280E+03  0.00000000000E+00 0.  1.
        -11    1    3    3    0    0 -0.10847131408E+03 -0.39735285237E+03  0.29393454242E+03  0.50601663064E+03  0.00000000000E+00 0. -1.
         22    1    1    2    0    0  0.27673627363E+03  0.11052871803E+04  0.23747525829E+04  0.26339499893E+04  0.00000000000E+00 0. -1.
<mgrwt>
<rscale>  0 0.25306941E+04</rscale>
<asrwt>0</asrwt>
<pdfrwt beam="1">  1        2 0.53871814E+00 0.25306941E+04</pdfrwt>
<pdfrwt beam="2">  1       -2 0.70344637E-01 0.25306941E+04</pdfrwt>
<totfact> 0.13280062E+00</totfact>
</mgrwt>
</event>
<event>
 6    1  0.5026615E-004  0.2524882E+04  0.7818608E-02  0.8394175E-01
          2   -1    0    0  501    0  0.00000000000E+00  0.00000000000E+00  0.40081918375E+04  0.40081918375E+04  0.00000000000E+00 0.  1.
         -2   -1    0    0    0  501 -0.00000000000E+00 -0.00000000000E+00 -0.39762485131E+03  0.39762485131E+03  0.00000000000E+00 0. -1.
         23    2    1    2    0    0  0.97599259987E+03 -0.22203096443E+03  0.47171192267E+03  0.11112347102E+04  0.10232858313E+03 0.  0.
         13    1    3    3    0    0  0.17095733941E+03 -0.25865440853E+02  0.42382084586E+02  0.17802155494E+03  0.00000000000E+00 0.  1.
        -13    1    3    3    0    0  0.80503526046E+03 -0.19616552358E+03  0.42932983808E+03  0.93321315523E+03  0.00000000000E+00 0. -1.
         22    1    1    2    0    0 -0.97599259987E+03  0.22203096443E+03  0.31388550635E+04  0.32945819786E+04  0.00000000000E+00 0.  1.
<mgrwt>
<rscale>  0 0.25248815E+04</rscale>
<asrwt>0</asrwt>
<pdfrwt beam="1">  1        2 0.61664487E+00 0.25248815E+04</pdfrwt>
<pdfrwt beam="2">  1       -2 0.61173057E-01 0.25248815E+04</pdfrwt>
<totfact> 0.74782789E-01</totfact>
</mgrwt>
</event>
<event>
 6    1  0.5026615E-004  0.2075608E+04  0.7818608E-02  0.8572065E-01
         -2   -1    0    0    0  501 -0.00000000000E+00  0.00000000000E+00  0.39110324421E+03  0.39110324421E+03  0.00000000000E+00 0. -1.
          2   -1    0    0  501    0  0.00000000000E+00 -0.00000000000E+00 -0.27538428620E+04  0.27538428620E+04  0.00000000000E+00 0.  1.
         23    2    1    2    0    0  0.85032965160E+03  0.43293938322E+03 -0.17938235657E+04  0.20340174405E+04  0.94482472218E+02 0.  0.
         13    1    3    3    0    0  0.47171573593E+03  0.23092006491E+03 -0.88818472767E+03  0.10318487885E+04  0.00000000000E+00 0. -1.
        -13    1    3    3    0    0  0.37861391567E+03  0.20201931830E+03 -0.90563883806E+03  0.10021686520E+04  0.00000000000E+00 0.  1.
         22    1    1    2    0    0 -0.85032965160E+03 -0.43293938322E+03 -0.56891605210E+03  0.11109286657E+04  0.00000000000E+00 0. -1.
<mgrwt>
<rscale>  0 0.20756077E+04</rscale>
<asrwt>0</asrwt>
<pdfrwt beam="1">  1        2 0.42366813E+00 0.20756077E+04</pdfrwt>
<pdfrwt beam="2">  1       -2 0.60169731E-01 0.20756077E+04</pdfrwt>
<totfact> 0.58671556E+00</totfact>
</mgrwt>
</event>
<event>
 6    1  0.6859294E-004  0.3366375E+04  0.7818608E-02  0.8146209E-01
         -2   -1    0    0    0  501 -0.00000000000E+00  0.00000000000E+00  0.14564039058E+04  0.14564039058E+04  0.00000000000E+00 0. -1.
          2   -1    0    0  501    0  0.00000000000E+00 -0.00000000000E+00 -0.19452842495E+04  0.19452842495E+04  0.00000000000E+00 0.  1.
         23    2    1    2    0    0  0.68275461150E+01  0.85793754007E+03  0.12170191249E+04  0.14921865359E+04  0.96859018451E+02 0.  0.
         11    1    3    3    0    0 -0.34359533263E+02  0.39097742716E+03  0.50237292957E+03  0.63751273433E+03  0.00000000000E+00 0.  1.
        -11    1    3    3    0    0  0.41187079378E+02  0.46696011292E+03  0.71464619530E+03  0.85467380153E+03  0.00000000000E+00 0. -1.
         22    1    1    2    0    0 -0.68275461150E+01 -0.85793754007E+03 -0.17058994685E+04  0.19095016195E+04  0.00000000000E+00 0.  1.
<mgrwt>
<rscale>  0 0.33663747E+04</rscale>
<asrwt>0</asrwt>
<pdfrwt beam="1">  1        2 0.29927450E+00 0.33663747E+04</pdfrwt>
<pdfrwt beam="2">  1       -2 0.22406214E+00 0.33663747E+04</pdfrwt>
<totfact> 0.55463180E-01</totfact>
</mgrwt>
</event>
<event>
 6    1  0.5026615E-004  0.3305178E+04  0.7818608E-02  0.8161579E-01
         -2   -1    0    0    0  501 -0.00000000000E+00  0.00000000000E+00  0.80747777982E+03  0.80747777982E+03  0.00000000000E+00 0. -1.
          2   -1    0    0  501    0  0.00000000000E+00 -0.00000000000E+00 -0.33821988687E+04  0.33821988687E+04  0.00000000000E+00 0.  1.
         23    2    1    2    0    0 -0.83663539778E+03  0.25187805618E+03  0.48707497285E+03  0.10056545902E+04  0.10343008116E+03 0.  0.
         11    1    3    3    0    0 -0.26260262717E+03  0.12570221624E+03  0.13947733182E+03  0.32282365629E+03  0.00000000000E+00 0. -1.
        -11    1    3    3    0    0 -0.57403277061E+03  0.12617583994E+03  0.34759764103E+03  0.68283093395E+03  0.00000000000E+00 0.  1.
         22    1    1    2    0    0  0.83663539778E+03 -0.25187805618E+03 -0.30617960617E+04  0.31840220583E+04  0.00000000000E+00 0.  1.
<mgrwt>
<rscale>  0 0.33051780E+04</rscale>
<asrwt>0</asrwt>
<pdfrwt beam="1">  1        2 0.52033828E+00 0.33051780E+04</pdfrwt>
<pdfrwt beam="2">  1       -2 0.12422735E+00 0.33051780E+04</pdfrwt>
<totfact> 0.39811909E-01</totfact>
</mgrwt>
</event>
<event>
 6    1  0.5026615E-004  0.2542177E+04  0.7818608E-02  0.8388112E-01
          2   -1    0    0  501    0  0.00000000000E+00  0.00000000000E+00  0.25558262076E+04  0.25558262076E+04  0.00000000000E+00 0.  1.
         -2   -1    0    0    0  501 -0.00000000000E+00 -0.00000000000E+00 -0.63215041658E+03  0.63215041658E+03  0.00000000000E+00 0. -1.
         23    2    1    2    0    0 -0.45461454478E+03  0.32859142015E+03 -0.46494935926E+03  0.73437176312E+03  0.92072113478E+02 0.  0.
         13    1    3    3    0    0 -0.22410595352E+03  0.19089987778E+03 -0.19184163210E+03  0.35138220437E+03  0.00000000000E+00 0.  1.
        -13    1    3    3    0    0 -0.23050859125E+03  0.13769154237E+03 -0.27310772715E+03  0.38298955875E+03  0.00000000000E+00 0. -1.
         22    1    1    2    0    0  0.45461454478E+03 -0.32859142015E+03  0.23886251503E+04  0.24536048611E+04  0.00000000000E+00 0.  1.
<mgrwt>
<rscale>  0 0.25421775E+04</rscale>
<asrwt>0</asrwt>
<pdfrwt beam="1">  1        2 0.39320403E+00 0.25421775E+04</pdfrwt>
<pdfrwt beam="2">  1       -2 0.97253912E-01 0.25421775E+04</pdfrwt>
<totfact> 0.25320113E+00</totfact>
</mgrwt>
</event>
<event>
 6    1  0.5026615E-004  0.2751749E+04  0.7818608E-02  0.8318407E-01
         -2   -1    0    0    0  501 -0.00000000000E+00  0.00000000000E+00  0.52225755481E+03  0.52225755481E+03  0.00000000000E+00 0. -1.
          2   -1    0    0  501    0  0.00000000000E+00 -0.00000000000E+00 -0.36247064092E+04  0.36247064092E+04  0.00000000000E+00 0.  1.
         23    2    1    2    0    0  0.98654930194E+03  0.10580593369E+03 -0.11995141914E+03  0.10037545577E+04  0.93061529859E+02 0.  0.
         11    1    3    3    0    0  0.31716741194E+03 -0.93933128404E+01 -0.34406796487E+02  0.31916645996E+03  0.00000000000E+00 0.  1.
        -11    1    3    3    0    0  0.66938189001E+03  0.11519924653E+03 -0.85544622650E+02  0.68458809771E+03  0.00000000000E+00 0. -1.
         22    1    1    2    0    0 -0.98654930194E+03 -0.10580593369E+03 -0.29824974352E+04  0.31432094063E+04  0.00000000000E+00 0.  1.
<mgrwt>
<rscale>  0 0.27517488E+04</rscale>
<asrwt>0</asrwt>
<pdfrwt beam="1">  1        2 0.55764712E+00 0.27517488E+04</pdfrwt>
<pdfrwt beam="2">  1       -2 0.80347319E-01 0.27517488E+04</pdfrwt>
<totfact> 0.79256456E-01</totfact>
</mgrwt>
</event>
<event>
 6    1  0.5026615E-004  0.1004936E+04  0.7818608E-02  0.9303148E-01
         -2   -1    0    0    0  501 -0.00000000000E+00  0.00000000000E+00  0.20464471273E+03  0.20464471273E+03  0.00000000000E+00 0. -1.
          2   -1    0    0  501    0  0.00000000000E+00 -0.00000000000E+00 -0.12337189551E+04  0.12337189551E+04  0.00000000000E+00 0.  1.
         23    2    1    2    0    0 -0.52893447492E+02  0.47772424369E+03 -0.33715339309E+03  0.59588361972E+03  0.10191519999E+03 0.  0.
         13    1    3    3    0    0 -0.69441693577E+02  0.30448210748E+03 -0.17485644237E+03  0.35791937363E+03  0.00000000000E+00 0. -1.
        -13    1    3    3    0    0  0.16548246085E+02  0.17324213621E+03 -0.16229695072E+03  0.23796424610E+03  0.00000000000E+00 0.  1.
         22    1    1    2    0    0  0.52893447492E+02 -0.47772424369E+03 -0.69192084932E+03  0.84248004814E+03  0.00000000000E+00 0.  1.
<mgrwt>
<rscale>  0 0.10049359E+04</rscale>
<asrwt>0</asrwt>
<pdfrwt beam="1">  1        2 0.18980292E+00 0.10049359E+04</pdfrwt>
<pdfrwt beam="2">  1       -2 0.31483802E-01 0.10049359E+04</pdfrwt>
<totfact> 0.16884245E+02</totfact>
</mgrwt>
</event>
<event>
 6    1  0.5026615E-004  0.5936239E+03  0.7818608E-02  0.9918723E-01
         -2   -1    0    0    0  501 -0.00000000000E+00  0.00000000000E+00  0.54702048232E+03  0.54702048232E+03  0.00000000000E+00 0. -1.
          2   -1    0    0  501    0  0.00000000000E+00 -0.00000000000E+00 -0.16104942467E+03  0.16104942467E+03  0.00000000000E+00 0.  1.
         23    2    1    2    0    0 -0.28810589579E+03 -0.65834695967E+01  0.23315618186E+03  0.38187865094E+03  0.91766822122E+02 0.  0.
         11    1    3    3    0    0 -0.19265311070E+03  0.36825816971E+02  0.16932720360E+03  0.25911978646E+03  0.00000000000E+00 0. -1.
        -11    1    3    3    0    0 -0.95452785088E+02 -0.43409286567E+02  0.63828978266E+02  0.12275886448E+03  0.00000000000E+00 0.  1.
         22    1    1    2    0    0  0.28810589579E+03  0.65834695967E+01  0.15281487579E+03  0.32619125605E+03  0.00000000000E+00 0. -1.
<mgrwt>
<rscale>  0 0.59362390E+03</rscale>
<asrwt>0</asrwt>
<pdfrwt beam="1">  1        2 0.24776835E-01 0.59362390E+03</pdfrwt>
<pdfrwt beam="2">  1       -2 0.84156996E-01 0.59362390E+03</pdfrwt>
<totfact> 0.27598745E+02</totfact>
</mgrwt>
</event>
<event>
 6    1  0.8287312E-004  0.2926384E+04  0.7818608E-02  0.8265071E-01
         -2   -1    0    0    0  501 -0.00000000000E+00  0.00000000000E+00  0.12316327999E+04  0.12316327999E+04  0.00000000000E+00 0. -1.
          2   -1    0    0  501    0  0.00000000000E+00 -0.00000000000E+00 -0.17382863313E+04  0.17382863313E+04  0.00000000000E+00 0.  1.
         23    2    1    2    0    0  0.50347746582E+03  0.18757194281E+03  0.11260316094E+04  0.12511016421E+04  0.92926536378E+02 0.  0.
         11    1    3    3    0    0  0.37347159292E+03  0.14399133785E+03  0.92359481240E+03  0.10065991822E+04  0.00000000000E+00 0. -1.
        -11    1    3    3    0    0  0.13000587291E+03  0.43580604964E+02  0.20243679696E+03  0.24450245987E+03  0.00000000000E+00 0.  1.
         22    1    1    2    0    0 -0.50347746582E+03 -0.18757194281E+03 -0.16326851407E+04  0.17188174892E+04  0.00000000000E+00 0.  1.
<mgrwt>
<rscale>  0 0.29263837E+04</rscale>
<asrwt>0</asrwt>
<pdfrwt beam="1">  1        2 0.26742867E+00 0.29263837E+04</pdfrwt>
<pdfrwt beam="2">  1       -2 0.18948197E+00 0.29263837E+04</pdfrwt>
<totfact> 0.12566348E+00</totfact>
</mgrwt>
</event>
<event>
 6    1  0.5026615E-004  0.1901184E+04  0.7818608E-02  0.8654267E-01
          2   -1    0    0  501    0  0.00000000000E+00  0.00000000000E+00  0.42975887002E+04  0.42975887002E+04  0.00000000000E+00 0.  1.
         -2   -1    0    0    0  501 -0.00000000000E+00 -0.00000000000E+00 -0.21026337203E+03  0.21026337203E+03  0.00000000000E+00 0. -1.
         23    2    1    2    0    0  0.61015019489E+03  0.54778716773E+03  0.31784338552E+04  0.32837451524E+04  0.90478797728E+02 0.  0.
         13    1    3    3    0    0  0.26027778937E+02  0.47272966389E+02  0.16090005886E+03  0.16970859604E+03  0.00000000000E+00 0. -1.
        -13    1    3    3    0    0  0.58412241596E+03  0.50051420134E+03  0.30175337963E+04  0.31140365564E+04  0.00000000000E+00 0.  1.
         22    1    1    2    0    0 -0.61015019489E+03 -0.54778716773E+03  0.90889147298E+03  0.12241069198E+04  0.00000000000E+00 0. -1.
<mgrwt>
<rscale>  0 0.19011844E+04</rscale>
<asrwt>0</asrwt>
<pdfrwt beam="1">  1        2 0.66116743E+00 0.19011844E+04</pdfrwt>
<pdfrwt beam="2">  1       -2 0.32348214E-01 0.19011844E+04</pdfrwt>
<totfact> 0.16151032E+00</totfact>
</mgrwt>
</event>
<event>
 6    1  0.5026615E-004  0.2575674E+04  0.7818608E-02  0.8376511E-01
         -2   -1    0    0    0  501 -0.00000000000E+00  0.00000000000E+00  0.99989082683E+03  0.99989082683E+03  0.00000000000E+00 0. -1.
          2   -1    0    0  501    0  0.00000000000E+00 -0.00000000000E+00 -0.16587050305E+04  0.16587050305E+04  0.00000000000E+00 0.  1.
         23    2    1    2    0    0 -0.10311814157E+04  0.92532583465E+02 -0.11178143380E+04  0.15260860276E+04  0.86788699296E+02 0.  0.
         13    1    3    3    0    0 -0.76520418158E+03  0.91861495240E+02 -0.78566865161E+03  0.11005685821E+04  0.00000000000E+00 0. -1.
        -13    1    3    3    0    0 -0.26597723412E+03  0.67108822551E+00 -0.33214568639E+03  0.42551744549E+03  0.00000000000E+00 0.  1.
         22    1    1    2    0    0  0.10311814157E+04 -0.92532583465E+02  0.45900013434E+03  0.11325098297E+04  0.00000000000E+00 0. -1.
<mgrwt>
<rscale>  0 0.25756738E+04</rscale>
<asrwt>0</asrwt>
<pdfrwt beam="1">  1        2 0.25518538E+00 0.25756738E+04</pdfrwt>
<pdfrwt beam="2">  1       -2 0.15382936E+00 0.25756738E+04</pdfrwt>
<totfact> 0.25681140E+00</totfact>
</mgrwt>
</event>
<event>
 6    1  0.5026615E-004  0.1058027E+04  0.7818608E-02  0.9247096E-01
          2   -1    0    0  501    0  0.00000000000E+00  0.00000000000E+00  0.59686349745E+03  0.59686349745E+03  0.00000000000E+00 0.  1.
         -2   -1    0    0    0  501 -0.00000000000E+00 -0.00000000000E+00 -0.46887622203E+03  0.46887622203E+03  0.00000000000E+00 0. -1.
         23    2    1    2    0    0  0.18238504308E+03 -0.26308411796E+03 -0.35476410794E+03  0.48649326485E+03  0.91326706962E+02 0.  0.
         13    1    3    3    0    0  0.45483564237E+02 -0.14268541470E+03 -0.14308139050E+03  0.20712355369E+03  0.00000000000E+00 0. -1.
        -13    1    3    3    0    0  0.13690147884E+03 -0.12039870326E+03 -0.21168271744E+03  0.27936971117E+03  0.00000000000E+00 0.  1.
         22    1    1    2    0    0 -0.18238504308E+03  0.26308411796E+03  0.48275138336E+03  0.57924645463E+03  0.00000000000E+00 0.  1.
<mgrwt>
<rscale>  0 0.10580267E+04</rscale>
<asrwt>0</asrwt>
<pdfrwt beam="1">  1        2 0.91825153E-01 0.10580267E+04</pdfrwt>
<pdfrwt beam="2">  1       -2 0.72134804E-01 0.10580267E+04</pdfrwt>
<totfact> 0.86515071E+01</totfact>
</mgrwt>
</event>
<event>
 6    1  0.5026615E-004  0.3834475E+04  0.7818608E-02  0.8038797E-01
          2   -1    0    0  501    0  0.00000000000E+00  0.00000000000E+00  0.15030015241E+04  0.15030015241E+04  0.00000000000E+00 0.  1.
         -2   -1    0    0    0  501 -0.00000000000E+00 -0.00000000000E+00 -0.24456393720E+04  0.24456393720E+04  0.00000000000E+00 0. -1.
         23    2    1    2    0    0  0.14091770524E+03 -0.18609786342E+04 -0.91886567179E+03  0.20821831835E+04  0.89852158303E+02 0.  0.
         11    1    3    3    0    0 -0.12370981981E+02 -0.11198419579E+03 -0.60673536612E+02  0.12796397675E+03  0.00000000000E+00 0. -1.
        -11    1    3    3    0    0  0.15328868722E+03 -0.17489944384E+04 -0.85819213518E+03  0.19542192068E+04  0.00000000000E+00 0.  1.
         22    1    1    2    0    0 -0.14091770524E+03  0.18609786342E+04 -0.23772176126E+02  0.18664577126E+04  0.00000000000E+00 0.  1.
<mgrwt>
<rscale>  0 0.38344750E+04</rscale>
<asrwt>0</asrwt>
<pdfrwt beam="1">  1        2 0.23123101E+00 0.38344750E+04</pdfrwt>
<pdfrwt beam="2">  1       -2 0.37625221E+00 0.38344750E+04</pdfrwt>
<totfact> 0.10695628E-01</totfact>
</mgrwt>
</event>
<event>
 6    1  0.5026615E-004  0.3021466E+04  0.7818608E-02  0.8237628E-01
         -2   -1    0    0    0  501 -0.00000000000E+00  0.00000000000E+00  0.11617984325E+04  0.11617984325E+04  0.00000000000E+00 0. -1.
          2   -1    0    0  501    0  0.00000000000E+00 -0.00000000000E+00 -0.19644663051E+04  0.19644663051E+04  0.00000000000E+00 0.  1.
         23    2    1    2    0    0 -0.14811195826E+04  0.25930875369E+03 -0.26723872773E+03  0.15301317178E+04  0.94500204232E+02 0.  0.
         11    1    3    3    0    0 -0.98492225145E+03  0.14966250956E+03 -0.21610748454E+03  0.10193984270E+04  0.00000000000E+00 0. -1.
        -11    1    3    3    0    0 -0.49619733113E+03  0.10964624413E+03 -0.51131243190E+02  0.51073329077E+03  0.00000000000E+00 0.  1.
         22    1    1    2    0    0  0.14811195826E+04 -0.25930875369E+03 -0.53542914490E+03  0.15961330198E+04  0.00000000000E+00 0. -1.
<mgrwt>
<rscale>  0 0.30214658E+04</rscale>
<asrwt>0</asrwt>
<pdfrwt beam="1">  1        2 0.30222559E+00 0.30214658E+04</pdfrwt>
<pdfrwt beam="2">  1       -2 0.17873822E+00 0.30214658E+04</pdfrwt>
<totfact> 0.11055741E+00</totfact>
</mgrwt>
</event>
<event>
 6    1  0.5026615E-004  0.2538519E+04  0.7818608E-02  0.8389390E-01
          2   -1    0    0  501    0  0.00000000000E+00  0.00000000000E+00  0.88404026451E+03  0.88404026451E+03  0.00000000000E+00 0.  1.
         -2   -1    0    0    0  501 -0.00000000000E+00 -0.00000000000E+00 -0.18223374734E+04  0.18223374734E+04  0.00000000000E+00 0. -1.
         23    2    1    2    0    0 -0.66948110025E+03  0.30296560062E+03  0.63144483792E+03  0.97314861506E+03  0.91118301691E+02 0.  0.
         13    1    3    3    0    0 -0.42240282279E+03  0.23685892907E+03  0.39748057972E+03  0.62651185801E+03  0.00000000000E+00 0.  1.
        -13    1    3    3    0    0 -0.24707827747E+03  0.66106671542E+02  0.23396425820E+03  0.34663675704E+03  0.00000000000E+00 0. -1.
         22    1    1    2    0    0  0.66948110025E+03 -0.30296560062E+03 -0.15697420468E+04  0.17332291228E+04  0.00000000000E+00 0. -1.
<mgrwt>
<rscale>  0 0.25385190E+04</rscale>
<asrwt>0</asrwt>
<pdfrwt beam="1">  1        2 0.13600620E+00 0.25385190E+04</pdfrwt>
<pdfrwt beam="2">  1       -2 0.28035961E+00 0.25385190E+04</pdfrwt>
<totfact> 0.11199722E+00</totfact>
</mgrwt>
</event>
<event>
 6    1  0.5026615E-004  0.2299870E+04  0.7818608E-02  0.8477972E-01
         -2   -1    0    0    0  501 -0.00000000000E+00  0.00000000000E+00  0.91152271191E+03  0.91152271191E+03  0.00000000000E+00 0. -1.
          2   -1    0    0  501    0  0.00000000000E+00 -0.00000000000E+00 -0.14507053437E+04  0.14507053437E+04  0.00000000000E+00 0.  1.
         23    2    1    2    0    0  0.50277786820E+03  0.16273407490E+03 -0.13171141532E+04  0.14217784739E+04  0.86002165212E+02 0.  0.
         13    1    3    3    0    0  0.25326541684E+03  0.39772757667E+02 -0.67240135724E+03  0.71961714045E+03  0.00000000000E+00 0.  1.
        -13    1    3    3    0    0  0.24951245136E+03  0.12296131723E+03 -0.64471279591E+03  0.70216133341E+03  0.00000000000E+00 0. -1.
         22    1    1    2    0    0 -0.50277786820E+03 -0.16273407490E+03  0.77793152136E+03  0.94044958174E+03  0.00000000000E+00 0. -1.
<mgrwt>
<rscale>  0 0.22998703E+04</rscale>
<asrwt>0</asrwt>
<pdfrwt beam="1">  1        2 0.22318544E+00 0.22998703E+04</pdfrwt>
<pdfrwt beam="2">  1       -2 0.14023426E+00 0.22998703E+04</pdfrwt>
<totfact> 0.43897980E+00</totfact>
</mgrwt>
</event>
<event>
 6    1  0.5026615E-004  0.6787117E+04  0.7818608E-02  0.7599798E-01
         -2   -1    0    0    0  501 -0.00000000000E+00  0.00000000000E+00  0.42709946996E+04  0.42709946996E+04  0.00000000000E+00 0. -1.
          2   -1    0    0  501    0  0.00000000000E+00 -0.00000000000E+00 -0.26963832503E+04  0.26963832503E+04  0.00000000000E+00 0.  1.
         23    2    1    2    0    0 -0.27103835831E+04  0.46056285392E+03  0.28283813224E+04  0.39457498781E+04  0.10442167042E+03 0.  0.
         11    1    3    3    0    0 -0.17288407160E+04  0.30918026658E+03  0.17376321664E+04  0.24705967304E+04  0.00000000000E+00 0.  1.
        -11    1    3    3    0    0 -0.98154286711E+03  0.15138258734E+03  0.10907491560E+04  0.14751531477E+04  0.00000000000E+00 0. -1.
         22    1    1    2    0    0  0.27103835831E+04 -0.46056285392E+03 -0.12537698731E+04  0.30216280718E+04  0.00000000000E+00 0.  1.
<mgrwt>
<rscale>  0 0.67871168E+04</rscale>
<asrwt>0</asrwt>
<pdfrwt beam="1">  1        2 0.41482819E+00 0.67871168E+04</pdfrwt>
<pdfrwt beam="2">  1       -2 0.65707611E+00 0.67871168E+04</pdfrwt>
<totfact> 0.55322106E-04</totfact>
</mgrwt>
</event>
<event>
 6    1  0.5026615E-004  0.8312418E+03  0.7818608E-02  0.9515865E-01
          2   -1    0    0  501    0  0.00000000000E+00  0.00000000000E+00  0.57569905119E+03  0.57569905119E+03  0.00000000000E+00 0.  1.
         -2   -1    0    0    0  501 -0.00000000000E+00 -0.00000000000E+00 -0.30005386238E+03  0.30005386238E+03  0.00000000000E+00 0. -1.
         23    2    1    2    0    0  0.23937616067E+03  0.19220186292E+03 -0.14768419346E+03  0.35282818830E+03  0.91840116786E+02 0.  0.
         13    1    3    3    0    0  0.36202792080E+02  0.41195442376E+02 -0.68163760934E+02  0.87487170097E+02  0.00000000000E+00 0. -1.
        -13    1    3    3    0    0  0.20317336859E+03  0.15100642055E+03 -0.79520432528E+02  0.26534101820E+03  0.00000000000E+00 0.  1.
         22    1    1    2    0    0 -0.23937616067E+03 -0.19220186292E+03  0.42332938227E+03  0.52292472528E+03  0.00000000000E+00 0.  1.
<mgrwt>
<rscale>  0 0.83124178E+03</rscale>
<asrwt>0</asrwt>
<pdfrwt beam="1">  1        2 0.88569085E-01 0.83124178E+03</pdfrwt>
<pdfrwt beam="2">  1       -2 0.46162133E-01 0.83124178E+03</pdfrwt>
<totfact> 0.23327957E+02</totfact>
</mgrwt>
</event>
<event>
 6    1  0.5026615E-004  0.1606251E+04  0.7818608E-02  0.8816717E-01
         -2   -1    0    0    0  501 -0.00000000000E+00  0.00000000000E+00  0.99052170258E+03  0.99052170258E+03  0.00000000000E+00 0. -1.
          2   -1    0    0  501    0  0.00000000000E+00 -0.00000000000E+00 -0.65118300937E+03  0.65118300937E+03  0.00000000000E+00 0.  1.
         23    2    1    2    0    0 -0.41945894425E+03 -0.55973337890E+03 -0.22773123720E+03  0.74125173297E+03  0.91352908393E+02 0.  0.
         13    1    3    3    0    0 -0.21712307992E+03 -0.21978155991E+03 -0.11793134014E+03  0.33068741569E+03  0.00000000000E+00 0.  1.
        -13    1    3    3    0    0 -0.20233586433E+03 -0.33995181899E+03 -0.10979989706E+03  0.41056431728E+03  0.00000000000E+00 0. -1.
         22    1    1    2    0    0  0.41945894425E+03  0.55973337890E+03  0.56706993041E+03  0.90045297897E+03  0.00000000000E+00 0. -1.
<mgrwt>
<rscale>  0 0.16062514E+04</rscale>
<asrwt>0</asrwt>
<pdfrwt beam="1">  1        2 0.10018200E+00 0.16062514E+04</pdfrwt>
<pdfrwt beam="2">  1       -2 0.15238795E+00 0.16062514E+04</pdfrwt>
<totfact> 0.12344716E+01</totfact>
</mgrwt>
</event>
<event>
 6    1  0.5026615E-004  0.3103343E+04  0.7818608E-02  0.8214821E-01
          2   -1    0    0  501    0  0.00000000000E+00  0.00000000000E+00  0.22724302532E+04  0.22724302532E+04  0.00000000000E+00 0.  1.
         -2   -1    0    0    0  501 -0.00000000000E+00 -0.00000000000E+00 -0.10595195510E+04  0.10595195510E+04  0.00000000000E+00 0. -1.
         23    2    1    2    0    0  0.13414428423E+04  0.37840651527E+03 -0.12196678114E+03  0.14020383333E+04  0.90416825071E+02 0.  0.
         13    1    3    3    0    0  0.92243702693E+03  0.26660032854E+03 -0.12550143677E+03  0.96835758605E+03  0.00000000000E+00 0. -1.
        -13    1    3    3    0    0  0.41900581541E+03  0.11180618673E+03  0.35346556278E+01  0.43368074724E+03  0.00000000000E+00 0.  1.
         22    1    1    2    0    0 -0.13414428423E+04 -0.37840651527E+03  0.13348774834E+04  0.19299114709E+04  0.00000000000E+00 0.  1.
<mgrwt>
<rscale>  0 0.31033429E+04</rscale>
<asrwt>0</asrwt>
<pdfrwt beam="1">  1        2 0.34960465E+00 0.31033429E+04</pdfrwt>
<pdfrwt beam="2">  1       -2 0.16300301E+00 0.31033429E+04</pdfrwt>
<totfact> 0.95495063E-01</totfact>
</mgrwt>
</event>
<event>
 6    1  0.5026615E-004  0.3972432E+04  0.7818608E-02  0.8010131E-01
         -1   -1    0    0    0  501 -0.00000000000E+00  0.00000000000E+00  0.27794844789E+04  0.27794844789E+04  0.00000000000E+00 0. -1.
          1   -1    0    0  501    0  0.00000000000E+00 -0.00000000000E+00 -0.14193473083E+04  0.14193473083E+04  0.00000000000E+00 0.  1.
         23    2    1    2    0    0  0.35907291877E+02 -0.13480166541E+04 -0.85949223872E+03  0.16016808581E+04  0.90644522432E+02 0.  0.
         11    1    3    3    0    0  0.15181313542E+02 -0.11277038081E+04 -0.68174731634E+03  0.13178489118E+04  0.00000000000E+00 0.  1.
        -11    1    3    3    0    0  0.20725978335E+02 -0.22031284602E+03 -0.17774492239E+03  0.28383194629E+03  0.00000000000E+00 0. -1.
         22    1    1    2    0    0 -0.35907291877E+02  0.13480166541E+04  0.22196294094E+04  0.25971509291E+04  0.00000000000E+00 0. -1.
<mgrwt>
<rscale>  0 0.39724319E+04</rscale>
<asrwt>0</asrwt>
<pdfrwt beam="1">  1        1 0.21836112E+00 0.39724319E+04</pdfrwt>
<pdfrwt beam="2">  1       -1 0.42761300E+00 0.39724319E+04</pdfrwt>
<totfact> 0.26968987E-02</totfact>
</mgrwt>
</event>
<event>
 6    1  0.5026615E-004  0.1920803E+04  0.7818608E-02  0.8644570E-01
          2   -1    0    0  501    0  0.00000000000E+00  0.00000000000E+00  0.15454299503E+04  0.15454299503E+04  0.00000000000E+00 0.  1.
         -2   -1    0    0    0  501 -0.00000000000E+00 -0.00000000000E+00 -0.59683807829E+03  0.59683807829E+03  0.00000000000E+00 0. -1.
         23    2    1    2    0    0  0.64930430905E+03  0.56736095430E+03  0.89763533620E+01  0.86697517550E+03  0.89837863970E+02 0.  0.
         11    1    3    3    0    0  0.42090441689E+03  0.40722227621E+03  0.35769972323E+02  0.58674526101E+03  0.00000000000E+00 0.  1.
        -11    1    3    3    0    0  0.22839989216E+03  0.16013867810E+03 -0.26793618961E+02  0.28022991449E+03  0.00000000000E+00 0. -1.
         22    1    1    2    0    0 -0.64930430905E+03 -0.56736095430E+03  0.93961551861E+03  0.12752928530E+04  0.00000000000E+00 0.  1.
<mgrwt>
<rscale>  0 0.19208034E+04</rscale>
<asrwt>0</asrwt>
<pdfrwt beam="1">  1        2 0.23775845E+00 0.19208034E+04</pdfrwt>
<pdfrwt beam="2">  1       -2 0.91821244E-01 0.19208034E+04</pdfrwt>
<totfact> 0.11289243E+01</totfact>
</mgrwt>
</event>
<event>
 6    1  0.5026615E-004  0.7496960E+03  0.7818608E-02  0.9635827E-01
         -2   -1    0    0    0  501 -0.00000000000E+00  0.00000000000E+00  0.22611468636E+03  0.22611468636E+03  0.00000000000E+00 0. -1.
          2   -1    0    0  501    0  0.00000000000E+00 -0.00000000000E+00 -0.62141481756E+03  0.62141481756E+03  0.00000000000E+00 0.  1.
         23    2    1    2    0    0  0.19252802568E+03 -0.18171143763E+03 -0.49136683946E+03  0.56590049321E+03  0.93359038442E+02 0.  0.
         13    1    3    3    0    0  0.19669824470E+03 -0.18666058020E+03 -0.48871801348E+03  0.55890756693E+03  0.00000000000E+00 0. -1.
        -13    1    3    3    0    0 -0.41702190295E+01  0.49491425648E+01 -0.26488259730E+01  0.69929262770E+01  0.00000000000E+00 0.  1.
         22    1    1    2    0    0 -0.19252802568E+03  0.18171143763E+03  0.96066708256E+02  0.28162901071E+03  0.00000000000E+00 0. -1.
<mgrwt>
<rscale>  0 0.74969598E+03</rscale>
<asrwt>0</asrwt>
<pdfrwt beam="1">  1        2 0.95602278E-01 0.74969598E+03</pdfrwt>
<pdfrwt beam="2">  1       -2 0.34786875E-01 0.74969598E+03</pdfrwt>
<totfact> 0.37066541E+02</totfact>
</mgrwt>
</event>
<event>
 6    1  0.5026615E-004  0.3900357E+04  0.7818608E-02  0.8024955E-01
          4   -1    0    0  501    0  0.00000000000E+00  0.00000000000E+00  0.32290971369E+04  0.32290971369E+04  0.00000000000E+00 0.  1.
         -4   -1    0    0    0  501 -0.00000000000E+00 -0.00000000000E+00 -0.11777892911E+04  0.11777892911E+04  0.00000000000E+00 0. -1.
         23    2    1    2    0    0  0.12862030306E+04 -0.35091189322E+02  0.26803271312E+04  0.29746801269E+04  0.94966834949E+02 0.  0.
         13    1    3    3    0    0  0.88709499610E+03 -0.56344592575E+01  0.17529200053E+04  0.19646113672E+04  0.00000000000E+00 0.  1.
        -13    1    3    3    0    0  0.39910803453E+03 -0.29456730065E+02  0.92740712584E+03  0.10100687597E+04  0.00000000000E+00 0. -1.
         22    1    1    2    0    0 -0.12862030306E+04  0.35091189322E+02 -0.62901928532E+03  0.14322063011E+04  0.00000000000E+00 0. -1.
<mgrwt>
<rscale>  0 0.39003569E+04</rscale>
<asrwt>0</asrwt>
<pdfrwt beam="1">  1        4 0.49678417E+00 0.39003569E+04</pdfrwt>
<pdfrwt beam="2">  1       -4 0.18119835E+00 0.39003569E+04</pdfrwt>
<totfact> 0.35178309E-04</totfact>
</mgrwt>
</event>
<event>
 6    1  0.5026615E-004  0.1871981E+04  0.7818608E-02  0.8668930E-01
          2   -1    0    0  501    0  0.00000000000E+00  0.00000000000E+00  0.30415659881E+04  0.30415659881E+04  0.00000000000E+00 0.  1.
         -2   -1    0    0    0  501 -0.00000000000E+00 -0.00000000000E+00 -0.28803533482E+03  0.28803533482E+03  0.00000000000E+00 0. -1.
         23    2    1    2    0    0 -0.23132907221E+03 -0.65002418556E+03  0.26001915688E+03  0.74239352992E+03  0.86565639029E+02 0.  0.
         11    1    3    3    0    0 -0.17835669752E+03 -0.42844901006E+03  0.20874569199E+03  0.50887565249E+03  0.00000000000E+00 0. -1.
        -11    1    3    3    0    0 -0.52972374686E+02 -0.22157517550E+03  0.51273464890E+02  0.23351787743E+03  0.00000000000E+00 0.  1.
         22    1    1    2    0    0  0.23132907221E+03  0.65002418556E+03  0.24935114964E+04  0.25872077930E+04  0.00000000000E+00 0.  1.
<mgrwt>
<rscale>  0 0.18719813E+04</rscale>
<asrwt>0</asrwt>
<pdfrwt beam="1">  1        2 0.46793321E+00 0.18719813E+04</pdfrwt>
<pdfrwt beam="2">  1       -2 0.44313131E-01 0.18719813E+04</pdfrwt>
<totfact> 0.74576039E+00</totfact>
</mgrwt>
</event>
<event>
 6    1  0.5026615E-004  0.1741976E+04  0.7818608E-02  0.8737779E-01
          2   -1    0    0  501    0  0.00000000000E+00  0.00000000000E+00  0.72337218875E+03  0.72337218875E+03  0.00000000000E+00 0.  1.
         -2   -1    0    0    0  501 -0.00000000000E+00 -0.00000000000E+00 -0.10487277891E+04  0.10487277891E+04  0.00000000000E+00 0. -1.
         23    2    1    2    0    0  0.23955350282E+03 -0.74659508628E+03 -0.54345705422E+03  0.95824596897E+03  0.89998131597E+02 0.  0.
         11    1    3    3    0    0  0.53541808366E+02 -0.94761072436E+02 -0.10305088797E+03  0.14988619551E+03  0.00000000000E+00 0.  1.
        -11    1    3    3    0    0  0.18601169445E+03 -0.65183401385E+03 -0.44040616625E+03  0.80835977346E+03  0.00000000000E+00 0. -1.
         22    1    1    2    0    0 -0.23955350282E+03  0.74659508628E+03  0.21810145388E+03  0.81385400887E+03  0.00000000000E+00 0.  1.
<mgrwt>
<rscale>  0 0.17419765E+04</rscale>
<asrwt>0</asrwt>
<pdfrwt beam="1">  1        2 0.11128803E+00 0.17419765E+04</pdfrwt>
<pdfrwt beam="2">  1       -2 0.16134274E+00 0.17419765E+04</pdfrwt>
<totfact> 0.91694857E+00</totfact>
</mgrwt>
</event>
<event>
 6    1  0.5026615E-004  0.1464977E+04  0.7818608E-02  0.8908083E-01
         -2   -1    0    0    0  501 -0.00000000000E+00  0.00000000000E+00  0.25006057640E+03  0.25006057640E+03  0.00000000000E+00 0. -1.
          2   -1    0    0  501    0  0.00000000000E+00 -0.00000000000E+00 -0.21456375263E+04  0.21456375263E+04  0.00000000000E+00 0.  1.
         23    2    1    2    0    0 -0.98832190631E+02  0.33373839178E+03 -0.20001646731E+04  0.20322593763E+04  0.90941392747E+02 0.  0.
         13    1    3    3    0    0 -0.99552820695E+01 -0.38122060884E+01 -0.54727724354E+02  0.55756294437E+02  0.00000000000E+00 0. -1.
        -13    1    3    3    0    0 -0.88876908562E+02  0.33755059786E+03 -0.19454369487E+04  0.19765030818E+04  0.00000000000E+00 0.  1.
         22    1    1    2    0    0  0.98832190631E+02 -0.33373839178E+03  0.10458772317E+03  0.36343872646E+03  0.00000000000E+00 0. -1.
<mgrwt>
<rscale>  0 0.14649769E+04</rscale>
<asrwt>0</asrwt>
<pdfrwt beam="1">  1        2 0.33009809E+00 0.14649769E+04</pdfrwt>
<pdfrwt beam="2">  1       -2 0.38470857E-01 0.14649769E+04</pdfrwt>
<totfact> 0.34285637E+01</totfact>
</mgrwt>
</event>
<event>
 6    1  0.5026615E-004  0.9530470E+03  0.7818608E-02  0.9361596E-01
         -2   -1    0    0    0  501 -0.00000000000E+00  0.00000000000E+00  0.27974625374E+03  0.27974625374E+03  0.00000000000E+00 0. -1.
          2   -1    0    0  501    0  0.00000000000E+00 -0.00000000000E+00 -0.81171650983E+03  0.81171650983E+03  0.00000000000E+00 0.  1.
         23    2    1    2    0    0 -0.16712539594E+03  0.20873370824E+03 -0.71432887101E+03  0.76780349311E+03  0.88067071849E+02 0.  0.
         13    1    3    3    0    0 -0.57029497741E+02  0.78261801995E+02 -0.15283019147E+03  0.18092634051E+03  0.00000000000E+00 0.  1.
        -13    1    3    3    0    0 -0.11009589820E+03  0.13047190625E+03 -0.56149867954E+03  0.58687715260E+03  0.00000000000E+00 0. -1.
         22    1    1    2    0    0  0.16712539594E+03 -0.20873370824E+03  0.18235861492E+03  0.32365927047E+03  0.00000000000E+00 0. -1.
<mgrwt>
<rscale>  0 0.95304701E+03</rscale>
<asrwt>0</asrwt>
<pdfrwt beam="1">  1        2 0.12487946E+00 0.95304701E+03</pdfrwt>
<pdfrwt beam="2">  1       -2 0.43037885E-01 0.95304701E+03</pdfrwt>
<totfact> 0.17295806E+02</totfact>
</mgrwt>
</event>
<event>
 6    1  0.5026615E-004  0.2213727E+04  0.7818608E-02  0.8512736E-01
         -2   -1    0    0    0  501 -0.00000000000E+00  0.00000000000E+00  0.60783290830E+03  0.60783290830E+03  0.00000000000E+00 0. -1.
          2   -1    0    0  501    0  0.00000000000E+00 -0.00000000000E+00 -0.20155978530E+04  0.20155978530E+04  0.00000000000E+00 0.  1.
         23    2    1    2    0    0  0.64114076091E+02 -0.74440440980E+03  0.25966658312E+03  0.79625358322E+03  0.91348203684E+02 0.  0.
         11    1    3    3    0    0  0.70603477365E+02 -0.33240987923E+03  0.13625015636E+03  0.36612195227E+03  0.00000000000E+00 0. -1.
        -11    1    3    3    0    0 -0.64894012744E+01 -0.41199453057E+03  0.12341642677E+03  0.43013163095E+03  0.00000000000E+00 0.  1.
         22    1    1    2    0    0 -0.64114076091E+02  0.74440440980E+03 -0.16674315278E+04  0.18271771780E+04  0.00000000000E+00 0.  1.
<mgrwt>
<rscale>  0 0.22137269E+04</rscale>
<asrwt>0</asrwt>
<pdfrwt beam="1">  1        2 0.31009197E+00 0.22137269E+04</pdfrwt>
<pdfrwt beam="2">  1       -2 0.93512756E-01 0.22137269E+04</pdfrwt>
<totfact> 0.57813185E+00</totfact>
</mgrwt>
</event>
<event>
 6    1  0.5026615E-004  0.1182096E+04  0.7818608E-02  0.9128673E-01
          2   -1    0    0  501    0  0.00000000000E+00  0.00000000000E+00  0.98633260695E+03  0.98633260695E+03  0.00000000000E+00 0.  1.
         -2   -1    0    0    0  501 -0.00000000000E+00 -0.00000000000E+00 -0.35417868378E+03  0.35417868378E+03  0.00000000000E+00 0. -1.
         23    2    1    2    0    0  0.55951730405E+03  0.16755650998E+03  0.24417795177E+03  0.63932647062E+03  0.89334575309E+02 0.  0.
         11    1    3    3    0    0  0.26867986788E+03  0.42409665730E+02  0.85215113860E+02  0.28504221930E+03  0.00000000000E+00 0. -1.
        -11    1    3    3    0    0  0.29083743616E+03  0.12514684425E+03  0.15896283791E+03  0.35428425132E+03  0.00000000000E+00 0.  1.
         22    1    1    2    0    0 -0.55951730405E+03 -0.16755650998E+03  0.38797597140E+03  0.70118482010E+03  0.00000000000E+00 0. -1.
<mgrwt>
<rscale>  0 0.11820964E+04</rscale>
<asrwt>0</asrwt>
<pdfrwt beam="1">  1        2 0.15174348E+00 0.11820964E+04</pdfrwt>
<pdfrwt beam="2">  1       -2 0.54489029E-01 0.11820964E+04</pdfrwt>
<totfact> 0.80495583E+01</totfact>
</mgrwt>
</event>
<event>
 6    1  0.5026615E-004  0.9979980E+03  0.7818608E-02  0.9310743E-01
         -2   -1    0    0    0  501 -0.00000000000E+00  0.00000000000E+00  0.11885618145E+04  0.11885618145E+04  0.00000000000E+00 0. -1.
          2   -1    0    0  501    0  0.00000000000E+00 -0.00000000000E+00 -0.20949690032E+03  0.20949690032E+03  0.00000000000E+00 0.  1.
         23    2    1    2    0    0 -0.90813369804E+02  0.13610712567E+03  0.11478452319E+04  0.11629863569E+04  0.90644207356E+02 0.  0.
         13    1    3    3    0    0 -0.35038451025E+01  0.85950881234E+02  0.49408840137E+03  0.50152086625E+03  0.00000000000E+00 0.  1.
        -13    1    3    3    0    0 -0.87309524701E+02  0.50156244437E+02  0.65375683050E+03  0.66146549070E+03  0.00000000000E+00 0. -1.
         22    1    1    2    0    0  0.90813369804E+02 -0.13610712567E+03 -0.16878031769E+03  0.23507235787E+03  0.00000000000E+00 0.  1.
<mgrwt>
<rscale>  0 0.99799803E+03</rscale>
<asrwt>0</asrwt>
<pdfrwt beam="1">  1        2 0.32230293E-01 0.99799803E+03</pdfrwt>
<pdfrwt beam="2">  1       -2 0.18285566E+00 0.99799803E+03</pdfrwt>
<totfact> 0.28409264E+01</totfact>
</mgrwt>
</event>
<event>
 6    1  0.5026615E-004  0.4294431E+04  0.7818608E-02  0.7947649E-01
         -2   -1    0    0    0  501 -0.00000000000E+00  0.00000000000E+00  0.14614230626E+04  0.14614230626E+04  0.00000000000E+00 0. -1.
          2   -1    0    0  501    0  0.00000000000E+00 -0.00000000000E+00 -0.31548250769E+04  0.31548250769E+04  0.00000000000E+00 0.  1.
         23    2    1    2    0    0 -0.19386344736E+04 -0.73106081825E+03 -0.24369201116E+03  0.20875305523E+04  0.75129677211E+02 0.  0.
         11    1    3    3    0    0 -0.74092838592E+03 -0.26068065845E+03 -0.12458172662E+03  0.79526717860E+03  0.00000000000E+00 0.  1.
        -11    1    3    3    0    0 -0.11977060877E+04 -0.47038015980E+03 -0.11911028454E+03  0.12922633737E+04  0.00000000000E+00 0. -1.
         22    1    1    2    0    0  0.19386344736E+04  0.73106081825E+03 -0.14497100031E+04  0.25287175871E+04  0.00000000000E+00 0.  1.
<mgrwt>
<rscale>  0 0.42944309E+04</rscale>
<asrwt>0</asrwt>
<pdfrwt beam="1">  1        2 0.48535770E+00 0.42944309E+04</pdfrwt>
<pdfrwt beam="2">  1       -2 0.22483432E+00 0.42944309E+04</pdfrwt>
<totfact> 0.98383633E-02</totfact>
</mgrwt>
</event>
<event>
 6    1  0.1270313E-003  0.3287354E+04  0.7818608E-02  0.8166121E-01
         -2   -1    0    0    0  501 -0.00000000000E+00  0.00000000000E+00  0.16173201528E+04  0.16173201528E+04  0.00000000000E+00 0. -1.
          2   -1    0    0  501    0  0.00000000000E+00 -0.00000000000E+00 -0.16704632183E+04  0.16704632183E+04  0.00000000000E+00 0.  1.
         23    2    1    2    0    0 -0.52984890218E+03  0.84218599989E+01  0.15282708791E+04  0.16199461935E+04  0.88334608352E+02 0.  0.
         13    1    3    3    0    0 -0.12222879445E+03  0.39306671768E+02  0.35631504645E+03  0.37874173913E+03  0.00000000000E+00 0. -1.
        -13    1    3    3    0    0 -0.40762010773E+03 -0.30884811770E+02  0.11719558327E+04  0.12412044544E+04  0.00000000000E+00 0.  1.
         22    1    1    2    0    0  0.52984890218E+03 -0.84218599989E+01 -0.15814139446E+04  0.16678371776E+04  0.00000000000E+00 0.  1.
<mgrwt>
<rscale>  0 0.32873538E+04</rscale>
<asrwt>0</asrwt>
<pdfrwt beam="1">  1        2 0.25699434E+00 0.32873538E+04</pdfrwt>
<pdfrwt beam="2">  1       -2 0.24881848E+00 0.32873538E+04</pdfrwt>
<totfact> 0.55651226E-01</totfact>
</mgrwt>
</event>
<event>
 6    1  0.5026615E-004  0.6179631E+03  0.7818608E-02  0.9868824E-01
         -2   -1    0    0    0  501 -0.00000000000E+00  0.00000000000E+00  0.92793171318E+02  0.92793171318E+02  0.00000000000E+00 0. -1.
          2   -1    0    0  501    0  0.00000000000E+00 -0.00000000000E+00 -0.10288427663E+04  0.10288427663E+04  0.00000000000E+00 0.  1.
         23    2    1    2    0    0  0.21632452957E+03 -0.17176093069E+03 -0.25579336272E+03  0.38743796640E+03  0.91541323937E+02 0.  0.
         11    1    3    3    0    0  0.17542539463E+03 -0.90125485416E+02 -0.19748750364E+03  0.27910210729E+03  0.00000000000E+00 0.  1.
        -11    1    3    3    0    0  0.40899134947E+02 -0.81635445278E+02 -0.58305859075E+02  0.10833585910E+03  0.00000000000E+00 0. -1.
         22    1    1    2    0    0 -0.21632452957E+03  0.17176093069E+03 -0.68025623226E+03  0.73419797121E+03  0.00000000000E+00 0.  1.
<mgrwt>
<rscale>  0 0.61796305E+03</rscale>
<asrwt>0</asrwt>
<pdfrwt beam="1">  1        2 0.15828351E+00 0.61796305E+03</pdfrwt>
<pdfrwt beam="2">  1       -2 0.14275872E-01 0.61796305E+03</pdfrwt>
<totfact> 0.92722728E+02</totfact>
</mgrwt>
</event>
<event>
 6    1  0.5026615E-004  0.6660312E+03  0.7818608E-02  0.9777154E-01
         -2   -1    0    0    0  501 -0.00000000000E+00  0.00000000000E+00  0.73556686203E+02  0.73556686203E+02  0.00000000000E+00 0. -1.
          2   -1    0    0  501    0  0.00000000000E+00 -0.00000000000E+00 -0.15076726379E+04  0.15076726379E+04  0.00000000000E+00 0.  1.
         23    2    1    2    0    0  0.38839966055E+01  0.25217845757E+03 -0.12244802021E+04  0.12532716936E+04  0.87915372993E+02 0.  0.
         11    1    3    3    0    0 -0.27391397025E+02  0.20592560743E+03 -0.10392400201E+04  0.10597997282E+04  0.00000000000E+00 0. -1.
        -11    1    3    3    0    0  0.31275393630E+02  0.46252850137E+02 -0.18524018194E+03  0.19347196540E+03  0.00000000000E+00 0.  1.
         22    1    1    2    0    0 -0.38839966055E+01 -0.25217845757E+03 -0.20963574964E+03  0.32795763052E+03  0.00000000000E+00 0. -1.
<mgrwt>
<rscale>  0 0.66603124E+03</rscale>
<asrwt>0</asrwt>
<pdfrwt beam="1">  1        2 0.23194964E+00 0.66603124E+03</pdfrwt>
<pdfrwt beam="2">  1       -2 0.11316413E-01 0.66603124E+03</pdfrwt>
<totfact> 0.71630088E+02</totfact>
</mgrwt>
</event>
<event>
 6    1  0.5026615E-004  0.2939766E+04  0.7818608E-02  0.8261143E-01
         -2   -1    0    0    0  501 -0.00000000000E+00  0.00000000000E+00  0.19563173898E+04  0.19563173898E+04  0.00000000000E+00 0. -1.
          2   -1    0    0  501    0  0.00000000000E+00 -0.00000000000E+00 -0.11043997768E+04  0.11043997768E+04  0.00000000000E+00 0.  1.
         23    2    1    2    0    0 -0.36594970821E+03 -0.14156143466E+04  0.56975138315E+03  0.15715895870E+04  0.85988511861E+02 0.  0.
         13    1    3    3    0    0 -0.14292904986E+03 -0.43317571406E+03  0.20588195256E+03  0.50045708201E+03  0.00000000000E+00 0.  1.
        -13    1    3    3    0    0 -0.22302065835E+03 -0.98243863252E+03  0.36386943059E+03  0.10711325050E+04  0.00000000000E+00 0. -1.
         22    1    1    2    0    0  0.36594970821E+03  0.14156143466E+04  0.28216622990E+03  0.14891275796E+04  0.00000000000E+00 0.  1.
<mgrwt>
<rscale>  0 0.29397663E+04</rscale>
<asrwt>0</asrwt>
<pdfrwt beam="1">  1        2 0.16990766E+00 0.29397663E+04</pdfrwt>
<pdfrwt beam="2">  1       -2 0.30097191E+00 0.29397663E+04</pdfrwt>
<totfact> 0.58387354E-01</totfact>
</mgrwt>
</event>
<event>
 6    1  0.5026615E-004  0.7572620E+03  0.7818608E-02  0.9624026E-01
          2   -1    0    0  501    0  0.00000000000E+00  0.00000000000E+00  0.11598940815E+04  0.11598940815E+04  0.00000000000E+00 0.  1.
         -2   -1    0    0    0  501 -0.00000000000E+00 -0.00000000000E+00 -0.12359873443E+03  0.12359873443E+03  0.00000000000E+00 0. -1.
         23    2    1    2    0    0  0.23640386966E+03  0.28690793741E+03  0.47562870956E+03  0.61077442571E+03  0.92842746613E+02 0.  0.
         13    1    3    3    0    0  0.38993550230E+02  0.68778104662E+02  0.50630985341E+02  0.93885149609E+02  0.00000000000E+00 0. -1.
        -13    1    3    3    0    0  0.19741031943E+03  0.21812983275E+03  0.42499772422E+03  0.51688927610E+03  0.00000000000E+00 0.  1.
         22    1    1    2    0    0 -0.23640386966E+03 -0.28690793741E+03  0.56066663752E+03  0.67271839024E+03  0.00000000000E+00 0.  1.
<mgrwt>
<rscale>  0 0.75726202E+03</rscale>
<asrwt>0</asrwt>
<pdfrwt beam="1">  1        2 0.17844524E+00 0.75726202E+03</pdfrwt>
<pdfrwt beam="2">  1       -2 0.19015191E-01 0.75726202E+03</pdfrwt>
<totfact> 0.47010537E+02</totfact>
</mgrwt>
</event>
<event>
 6    1  0.5026615E-004  0.3669120E+04  0.7818608E-02  0.8074840E-01
         -2   -1    0    0    0  501 -0.00000000000E+00  0.00000000000E+00  0.15296563943E+04  0.15296563943E+04  0.00000000000E+00 0. -1.
          2   -1    0    0  501    0  0.00000000000E+00 -0.00000000000E+00 -0.22002393301E+04  0.22002393301E+04  0.00000000000E+00 0.  1.
         23    2    1    2    0    0  0.10856155888E+04 -0.12489912765E+04  0.46683394598E+03  0.17218475232E+04  0.91019474629E+02 0.  0.
         11    1    3    3    0    0  0.40322366169E+03 -0.39898977126E+03  0.15238157457E+03  0.58736896682E+03  0.00000000000E+00 0.  1.
        -11    1    3    3    0    0  0.68239192710E+03 -0.85000150524E+03  0.31445237141E+03  0.11344785564E+04  0.00000000000E+00 0. -1.
         22    1    1    2    0    0 -0.10856155888E+04  0.12489912765E+04 -0.11374168818E+04  0.20080482012E+04  0.00000000000E+00 0.  1.
<mgrwt>
<rscale>  0 0.36691199E+04</rscale>
<asrwt>0</asrwt>
<pdfrwt beam="1">  1        2 0.33849836E+00 0.36691199E+04</pdfrwt>
<pdfrwt beam="2">  1       -2 0.23533175E+00 0.36691199E+04</pdfrwt>
<totfact> 0.33132020E-01</totfact>
</mgrwt>
</event>
<event>
 6    1  0.5026615E-004  0.9716997E+03  0.7818608E-02  0.9340140E-01
          2   -1    0    0  501    0  0.00000000000E+00  0.00000000000E+00  0.19183904851E+03  0.19183904851E+03  0.00000000000E+00 0.  1.
         -2   -1    0    0    0  501 -0.00000000000E+00 -0.00000000000E+00 -0.12304590310E+04  0.12304590310E+04  0.00000000000E+00 0. -1.
         23    2    1    2    0    0 -0.15303342501E+03  0.24571808347E+03 -0.10872420450E+04  0.11287666321E+04  0.90676565835E+02 0.  0.
         11    1    3    3    0    0 -0.38957172296E+02  0.29799213814E+02 -0.94978119305E+02  0.10689479671E+03  0.00000000000E+00 0. -1.
        -11    1    3    3    0    0 -0.11407625271E+03  0.21591886966E+03 -0.99226392566E+03  0.10218718353E+04  0.00000000000E+00 0.  1.
         22    1    1    2    0    0  0.15303342501E+03 -0.24571808347E+03  0.48622062434E+02  0.29353144750E+03  0.00000000000E+00 0.  1.
<mgrwt>
<rscale>  0 0.97169973E+03</rscale>
<asrwt>0</asrwt>
<pdfrwt beam="1">  1        2 0.29513701E-01 0.97169973E+03</pdfrwt>
<pdfrwt beam="2">  1       -2 0.18930138E+00 0.97169973E+03</pdfrwt>
<totfact> 0.28437183E+01</totfact>
</mgrwt>
</event>
<event>
 6    1  0.5026615E-004  0.4430796E+04  0.7818608E-02  0.7922866E-01
          2   -1    0    0  501    0  0.00000000000E+00  0.00000000000E+00  0.23898377008E+04  0.23898377008E+04  0.00000000000E+00 0.  1.
         -2   -1    0    0    0  501 -0.00000000000E+00 -0.00000000000E+00 -0.20536910867E+04  0.20536910867E+04  0.00000000000E+00 0. -1.
         23    2    1    2    0    0  0.16865207092E+04  0.31216719246E+03 -0.12366372862E+04  0.21164169174E+04  0.90268113917E+02 0.  0.
         13    1    3    3    0    0  0.21562462172E+03  0.40703834697E+02 -0.12227654143E+03  0.25120177594E+03  0.00000000000E+00 0.  1.
        -13    1    3    3    0    0  0.14708960875E+04  0.27146335776E+03 -0.11143607447E+04  0.18652151415E+04  0.00000000000E+00 0. -1.
         22    1    1    2    0    0 -0.16865207092E+04 -0.31216719246E+03  0.15727839004E+04  0.23271118701E+04  0.00000000000E+00 0.  1.
<mgrwt>
<rscale>  0 0.44307960E+04</rscale>
<asrwt>0</asrwt>
<pdfrwt beam="1">  1        2 0.36766734E+00 0.44307960E+04</pdfrwt>
<pdfrwt beam="2">  1       -2 0.31595248E+00 0.44307960E+04</pdfrwt>
<totfact> 0.77862920E-02</totfact>
</mgrwt>
</event>
<event>
 6    1  0.5026615E-004  0.4910491E+04  0.7818608E-02  0.7842465E-01
          2   -1    0    0  501    0  0.00000000000E+00  0.00000000000E+00  0.35926640638E+04  0.35926640638E+04  0.00000000000E+00 0.  1.
         -2   -1    0    0    0  501 -0.00000000000E+00 -0.00000000000E+00 -0.16779279074E+04  0.16779279074E+04  0.00000000000E+00 0. -1.
         23    2    1    2    0    0  0.80525012790E+03 -0.11647038270E+04  0.31094659591E+04  0.34179338607E+04  0.92360987153E+02 0.  0.
         13    1    3    3    0    0  0.31926692068E+03 -0.38463128577E+03  0.11063768266E+04  0.12140602436E+04  0.00000000000E+00 0.  1.
        -13    1    3    3    0    0  0.48598320723E+03 -0.78007254119E+03  0.20030891325E+04  0.22038736171E+04  0.00000000000E+00 0. -1.
         22    1    1    2    0    0 -0.80525012790E+03  0.11647038270E+04 -0.11947298028E+04  0.18526581106E+04  0.00000000000E+00 0. -1.
<mgrwt>
<rscale>  0 0.49104913E+04</rscale>
<asrwt>0</asrwt>
<pdfrwt beam="1">  1        2 0.55271755E+00 0.49104913E+04</pdfrwt>
<pdfrwt beam="2">  1       -2 0.25814276E+00 0.49104913E+04</pdfrwt>
<totfact> 0.29276794E-02</totfact>
</mgrwt>
</event>
<event>
 6    1  0.5026615E-004  0.2192585E+04  0.7818608E-02  0.8521521E-01
         -2   -1    0    0    0  501 -0.00000000000E+00  0.00000000000E+00  0.43116656290E+03  0.43116656290E+03  0.00000000000E+00 0. -1.
          2   -1    0    0  501    0  0.00000000000E+00 -0.00000000000E+00 -0.27874552523E+04  0.27874552523E+04  0.00000000000E+00 0.  1.
         23    2    1    2    0    0  0.74334843696E+03 -0.63642070096E+03 -0.46138787592E+03  0.10859597932E+04  0.93977087484E+02 0.  0.
         13    1    3    3    0    0  0.33707462812E+03 -0.24939785715E+03 -0.15805419212E+03  0.44810682177E+03  0.00000000000E+00 0.  1.
        -13    1    3    3    0    0  0.40627380885E+03 -0.38702284381E+03 -0.30333368379E+03  0.63785297139E+03  0.00000000000E+00 0. -1.
         22    1    1    2    0    0 -0.74334843696E+03  0.63642070096E+03 -0.18949008135E+04  0.21326620221E+04  0.00000000000E+00 0.  1.
<mgrwt>
<rscale>  0 0.21925852E+04</rscale>
<asrwt>0</asrwt>
<pdfrwt beam="1">  1        2 0.42883928E+00 0.21925852E+04</pdfrwt>
<pdfrwt beam="2">  1       -2 0.66333316E-01 0.21925852E+04</pdfrwt>
<totfact> 0.45001713E+00</totfact>
</mgrwt>
</event>
<event>
 6    1  0.5026615E-004  0.5323683E+04  0.7818608E-02  0.7780428E-01
         -2   -1    0    0    0  501 -0.00000000000E+00  0.00000000000E+00  0.30666544273E+04  0.30666544273E+04  0.00000000000E+00 0. -1.
          2   -1    0    0  501    0  0.00000000000E+00 -0.00000000000E+00 -0.23104657356E+04  0.23104657356E+04  0.00000000000E+00 0.  1.
         23    2    1    2    0    0  0.69799033473E+03 -0.16136138310E+04  0.23958476966E+04  0.29730773690E+04  0.90347957265E+02 0.  0.
         13    1    3    3    0    0  0.61083577840E+03 -0.13275048062E+04  0.19963445845E+04  0.24740212325E+04  0.00000000000E+00 0. -1.
        -13    1    3    3    0    0  0.87154556338E+02 -0.28610902482E+03  0.39950311208E+03  0.49905613645E+03  0.00000000000E+00 0.  1.
         22    1    1    2    0    0 -0.69799033473E+03  0.16136138310E+04 -0.16396590049E+04  0.24040427940E+04  0.00000000000E+00 0.  1.
<mgrwt>
<rscale>  0 0.53236829E+04</rscale>
<asrwt>0</asrwt>
<pdfrwt beam="1">  1        2 0.35545627E+00 0.53236829E+04</pdfrwt>
<pdfrwt beam="2">  1       -2 0.47179299E+00 0.53236829E+04</pdfrwt>
<totfact> 0.79639113E-03</totfact>
</mgrwt>
</event>
<event>
 6    1  0.5575235E-004  0.2482474E+04  0.7818608E-02  0.8409256E-01
         -2   -1    0    0    0  501 -0.00000000000E+00  0.00000000000E+00  0.64676105848E+03  0.64676105848E+03  0.00000000000E+00 0. -1.
          2   -1    0    0  501    0  0.00000000000E+00 -0.00000000000E+00 -0.23821304962E+04  0.23821304962E+04  0.00000000000E+00 0.  1.
         23    2    1    2    0    0 -0.66622389014E+03  0.17620943971E+02  0.40629981105E+03  0.78592210759E+03  0.91810964938E+02 0.  0.
         13    1    3    3    0    0 -0.39453439228E+03  0.23175464911E+02  0.18954030360E+03  0.43831497300E+03  0.00000000000E+00 0. -1.
        -13    1    3    3    0    0 -0.27168949786E+03 -0.55545209405E+01  0.21675950745E+03  0.34760713459E+03  0.00000000000E+00 0.  1.
         22    1    1    2    0    0  0.66622389014E+03 -0.17620943971E+02 -0.21416692488E+04  0.22429694471E+04  0.00000000000E+00 0.  1.
<mgrwt>
<rscale>  0 0.24824740E+04</rscale>
<asrwt>0</asrwt>
<pdfrwt beam="1">  1        2 0.36648161E+00 0.24824740E+04</pdfrwt>
<pdfrwt beam="2">  1       -2 0.99501703E-01 0.24824740E+04</pdfrwt>
<totfact> 0.30381817E+00</totfact>
</mgrwt>
</event>
<event>
 6    1  0.5026615E-004  0.2112535E+04  0.7818608E-02  0.8555742E-01
         -1   -1    0    0    0  501 -0.00000000000E+00  0.00000000000E+00  0.63633843865E+03  0.63633843865E+03  0.00000000000E+00 0.  1.
          1   -1    0    0  501    0  0.00000000000E+00 -0.00000000000E+00 -0.17533131800E+04  0.17533131800E+04  0.00000000000E+00 0. -1.
         23    2    1    2    0    0  0.42089273525E+02 -0.67877304696E+03  0.35163669341E+03  0.77121907370E+03  0.92877011467E+02 0.  0.
         11    1    3    3    0    0  0.28335073548E+02 -0.57879650663E+02  0.44986607534E+02  0.78592144718E+02  0.00000000000E+00 0. -1.
        -11    1    3    3    0    0  0.13754199977E+02 -0.62089339630E+03  0.30665008587E+03  0.69262692898E+03  0.00000000000E+00 0.  1.
         22    1    1    2    0    0 -0.42089273525E+02  0.67877304696E+03 -0.14686114348E+04  0.16184325449E+04  0.00000000000E+00 0. -1.
<mgrwt>
<rscale>  0 0.21125346E+04</rscale>
<asrwt>0</asrwt>
<pdfrwt beam="1">  1        1 0.26974049E+00 0.21125346E+04</pdfrwt>
<pdfrwt beam="2">  1       -1 0.97898222E-01 0.21125346E+04</pdfrwt>
<totfact> 0.40280966E+00</totfact>
</mgrwt>
</event>
<event>
 6    1  0.5026615E-004  0.1715437E+04  0.7818608E-02  0.8752609E-01
         -2   -1    0    0    0  501 -0.00000000000E+00  0.00000000000E+00  0.55763320199E+03  0.55763320199E+03  0.00000000000E+00 0. -1.
          2   -1    0    0  501    0  0.00000000000E+00 -0.00000000000E+00 -0.13192919278E+04  0.13192919278E+04  0.00000000000E+00 0.  1.
         23    2    1    2    0    0 -0.59460300043E+03 -0.60145791586E+03 -0.52136829857E+03  0.99769601167E+03  0.90928962785E+02 0.  0.
         13    1    3    3    0    0 -0.69217469844E+02 -0.34254282796E+02 -0.54545598245E+02  0.94549649969E+02  0.00000000000E+00 0. -1.
        -13    1    3    3    0    0 -0.52538553059E+03 -0.56720363307E+03 -0.46682270033E+03  0.90314636171E+03  0.00000000000E+00 0.  1.
         22    1    1    2    0    0  0.59460300043E+03  0.60145791586E+03 -0.24029042721E+03  0.87922911808E+03  0.00000000000E+00 0. -1.
<mgrwt>
<rscale>  0 0.17154369E+04</rscale>
<asrwt>0</asrwt>
<pdfrwt beam="1">  1        2 0.20296799E+00 0.17154369E+04</pdfrwt>
<pdfrwt beam="2">  1       -2 0.85789724E-01 0.17154369E+04</pdfrwt>
<totfact> 0.18063669E+01</totfact>
</mgrwt>
</event>
<event>
 6    1  0.5026615E-004  0.5135650E+04  0.7818608E-02  0.7807916E-01
          2   -1    0    0  501    0  0.00000000000E+00  0.00000000000E+00  0.23929095052E+04  0.23929095052E+04  0.00000000000E+00 0.  1.
         -2   -1    0    0    0  501 -0.00000000000E+00 -0.00000000000E+00 -0.27555266013E+04  0.27555266013E+04  0.00000000000E+00 0. -1.
         23    2    1    2    0    0  0.17756148495E+04 -0.38164348219E+03  0.16372715815E+04  0.24469523355E+04  0.91965532473E+02 0.  0.
         11    1    3    3    0    0  0.15142830466E+04 -0.34625981349E+03  0.13647917077E+04  0.20677537110E+04  0.00000000000E+00 0. -1.
        -11    1    3    3    0    0  0.26133180291E+03 -0.35383668703E+02  0.27247987385E+03  0.37919862457E+03  0.00000000000E+00 0.  1.
         22    1    1    2    0    0 -0.17756148495E+04  0.38164348219E+03 -0.19998886777E+04  0.27014837709E+04  0.00000000000E+00 0. -1.
<mgrwt>
<rscale>  0 0.51356502E+04</rscale>
<asrwt>0</asrwt>
<pdfrwt beam="1">  1        2 0.36813992E+00 0.51356502E+04</pdfrwt>
<pdfrwt beam="2">  1       -2 0.42392717E+00 0.51356502E+04</pdfrwt>
<totfact> 0.14952680E-02</totfact>
</mgrwt>
</event>
<event>
 6    1  0.5026615E-004  0.8583397E+03  0.7818608E-02  0.9479212E-01
          2   -1    0    0  501    0  0.00000000000E+00  0.00000000000E+00  0.14608567919E+04  0.14608567919E+04  0.00000000000E+00 0.  1.
         -2   -1    0    0    0  501 -0.00000000000E+00 -0.00000000000E+00 -0.12608133034E+03  0.12608133034E+03  0.00000000000E+00 0. -1.
         23    2    1    2    0    0 -0.25908080476E+03 -0.35736465232E+02  0.12923639362E+04  0.13219877574E+04  0.95116395789E+02 0.  0.
         11    1    3    3    0    0 -0.18651002389E+03  0.11247288831E+02  0.75887246132E+03  0.78153688529E+03  0.00000000000E+00 0. -1.
        -11    1    3    3    0    0 -0.72570780872E+02 -0.46983754063E+02  0.53349147485E+03  0.54045087207E+03  0.00000000000E+00 0.  1.
         22    1    1    2    0    0  0.25908080476E+03  0.35736465232E+02  0.42411525347E+02  0.26495036484E+03  0.00000000000E+00 0. -1.
<mgrwt>
<rscale>  0 0.85833972E+03</rscale>
<asrwt>0</asrwt>
<pdfrwt beam="1">  1        2 0.22474719E+00 0.85833972E+03</pdfrwt>
<pdfrwt beam="2">  1       -2 0.19397129E-01 0.85833972E+03</pdfrwt>
<totfact> 0.30259498E+02</totfact>
</mgrwt>
</event>
<event>
 6    1  0.5026615E-004  0.1809737E+04  0.7818608E-02  0.8701138E-01
          2   -1    0    0  501    0  0.00000000000E+00  0.00000000000E+00  0.28391417251E+04  0.28391417251E+04  0.00000000000E+00 0.  1.
         -2   -1    0    0    0  501 -0.00000000000E+00 -0.00000000000E+00 -0.28839250215E+03  0.28839250215E+03  0.00000000000E+00 0. -1.
         23    2    1    2    0    0 -0.41676263604E+03 -0.22876176351E+03 -0.47664514335E+02  0.48598600900E+03  0.88811349334E+02 0.  0.
         11    1    3    3    0    0 -0.20199553215E+03 -0.15828554276E+03 -0.98848994359E+01  0.25681553553E+03  0.00000000000E+00 0. -1.
        -11    1    3    3    0    0 -0.21476710389E+03 -0.70476220749E+02 -0.37779614899E+02  0.22917047347E+03  0.00000000000E+00 0.  1.
         22    1    1    2    0    0  0.41676263604E+03  0.22876176351E+03  0.25984137373E+04  0.26415482182E+04  0.00000000000E+00 0.  1.
<mgrwt>
<rscale>  0 0.18097372E+04</rscale>
<asrwt>0</asrwt>
<pdfrwt beam="1">  1        2 0.43679102E+00 0.18097372E+04</pdfrwt>
<pdfrwt beam="2">  1       -2 0.44368079E-01 0.18097372E+04</pdfrwt>
<totfact> 0.99763920E+00</totfact>
</mgrwt>
</event>
<event>
 6    1  0.5026615E-004  0.8432267E+03  0.7818608E-02  0.9499473E-01
          1   -1    0    0  501    0  0.00000000000E+00  0.00000000000E+00  0.36060273265E+03  0.36060273265E+03  0.00000000000E+00 0.  1.
         -1   -1    0    0    0  501 -0.00000000000E+00 -0.00000000000E+00 -0.49294638013E+03  0.49294638013E+03  0.00000000000E+00 0. -1.
         23    2    1    2    0    0 -0.23635376402E+03  0.32344176164E+03 -0.18323572643E+03  0.44973272054E+03  0.90589809259E+02 0.  0.
         11    1    3    3    0    0 -0.20643280281E+03  0.31919000186E+03 -0.16465350846E+03  0.41425540094E+03  0.00000000000E+00 0.  1.
        -11    1    3    3    0    0 -0.29920961217E+02  0.42517597878E+01 -0.18582217967E+02  0.35477319600E+02  0.00000000000E+00 0. -1.
         22    1    1    2    0    0  0.23635376402E+03 -0.32344176164E+03  0.50892078943E+02  0.40381639224E+03  0.00000000000E+00 0.  1.
<mgrwt>
<rscale>  0 0.84322669E+03</rscale>
<asrwt>0</asrwt>
<pdfrwt beam="1">  1        1 0.55477344E-01 0.84322669E+03</pdfrwt>
<pdfrwt beam="2">  1       -1 0.75837904E-01 0.84322669E+03</pdfrwt>
<totfact> 0.12158113E+02</totfact>
</mgrwt>
</event>
<event>
 6    1  0.5026615E-004  0.1754355E+04  0.7818608E-02  0.8730957E-01
          2   -1    0    0  501    0  0.00000000000E+00  0.00000000000E+00  0.17802839727E+04  0.17802839727E+04  0.00000000000E+00 0.  1.
         -2   -1    0    0    0  501 -0.00000000000E+00 -0.00000000000E+00 -0.43220083507E+03  0.43220083507E+03  0.00000000000E+00 0. -1.
         23    2    1    2    0    0  0.35550114138E+03  0.21400495654E+02  0.16834831615E+04  0.17232688853E+04  0.93279436239E+02 0.  0.
         11    1    3    3    0    0  0.23454458598E+03  0.42852504425E+02  0.12585504013E+04  0.12809358347E+04  0.00000000000E+00 0.  1.
        -11    1    3    3    0    0  0.12095655540E+03 -0.21452008771E+02  0.42493276020E+03  0.44233305061E+03  0.00000000000E+00 0. -1.
         22    1    1    2    0    0 -0.35550114138E+03 -0.21400495654E+02 -0.33540002391E+03  0.48921592245E+03  0.00000000000E+00 0. -1.
<mgrwt>
<rscale>  0 0.17543548E+04</rscale>
<asrwt>0</asrwt>
<pdfrwt beam="1">  1        2 0.27388984E+00 0.17543548E+04</pdfrwt>
<pdfrwt beam="2">  1       -2 0.66492437E-01 0.17543548E+04</pdfrwt>
<totfact> 0.17427756E+01</totfact>
</mgrwt>
</event>
<event>
 6    1  0.5026615E-004  0.2680462E+04  0.7818608E-02  0.8341372E-01
         -2   -1    0    0    0  501 -0.00000000000E+00  0.00000000000E+00  0.12785656747E+04  0.12785656747E+04  0.00000000000E+00 0. -1.
          2   -1    0    0  501    0  0.00000000000E+00 -0.00000000000E+00 -0.14048705938E+04  0.14048705938E+04  0.00000000000E+00 0.  1.
         23    2    1    2    0    0  0.86915047530E+03  0.41190219280E+03 -0.99560392502E+03  0.13869923912E+04  0.86225010986E+02 0.  0.
         11    1    3    3    0    0  0.54043261746E+03  0.21316489187E+03 -0.57541536540E+03  0.81768547002E+03  0.00000000000E+00 0. -1.
        -11    1    3    3    0    0  0.32871785784E+03  0.19873730092E+03 -0.42018855962E+03  0.56930692116E+03  0.00000000000E+00 0.  1.
         22    1    1    2    0    0 -0.86915047530E+03 -0.41190219280E+03  0.86929900594E+03  0.12964438773E+04  0.00000000000E+00 0. -1.
<mgrwt>
<rscale>  0 0.26804621E+04</rscale>
<asrwt>0</asrwt>
<pdfrwt beam="1">  1        2 0.21613394E+00 0.26804621E+04</pdfrwt>
<pdfrwt beam="2">  1       -2 0.19670241E+00 0.26804621E+04</pdfrwt>
<totfact> 0.17667946E+00</totfact>
</mgrwt>
</event>
<event>
 6    1  0.5026615E-004  0.1253563E+04  0.7818608E-02  0.9067223E-01
         -2   -1    0    0    0  501 -0.00000000000E+00  0.00000000000E+00  0.29692652353E+03  0.29692652353E+03  0.00000000000E+00 0.  1.
          2   -1    0    0  501    0  0.00000000000E+00 -0.00000000000E+00 -0.13230719395E+04  0.13230719395E+04  0.00000000000E+00 0. -1.
         23    2    1    2    0    0  0.50152586031E+03 -0.19643681079E+03 -0.92151045840E+03  0.10713053945E+04  0.91641224693E+02 0.  0.
         13    1    3    3    0    0  0.99194010830E+02 -0.31051623253E+01 -0.19007606767E+03  0.21442482440E+03  0.00000000000E+00 0. -1.
        -13    1    3    3    0    0  0.40233184948E+03 -0.19333164846E+03 -0.73143439073E+03  0.85688057006E+03  0.00000000000E+00 0.  1.
         22    1    1    2    0    0 -0.50152586031E+03  0.19643681079E+03 -0.10463495761E+03  0.54869306861E+03  0.00000000000E+00 0.  1.
<mgrwt>
<rscale>  0 0.12535632E+04</rscale>
<asrwt>0</asrwt>
<pdfrwt beam="1">  1        2 0.20354953E+00 0.12535632E+04</pdfrwt>
<pdfrwt beam="2">  1       -2 0.45681004E-01 0.12535632E+04</pdfrwt>
<totfact> 0.71584421E+01</totfact>
</mgrwt>
</event>
<event>
 6    1  0.5026615E-004  0.1853967E+04  0.7818608E-02  0.8678116E-01
          2   -1    0    0  501    0  0.00000000000E+00  0.00000000000E+00  0.18885051860E+04  0.18885051860E+04  0.00000000000E+00 0.  1.
         -2   -1    0    0    0  501 -0.00000000000E+00 -0.00000000000E+00 -0.45501489383E+03  0.45501489383E+03  0.00000000000E+00 0. -1.
         23    2    1    2    0    0  0.65293656000E+03 -0.40422913123E+03  0.13696480967E+04  0.15729338304E+04  0.91965124585E+02 0.  0.
         11    1    3    3    0    0  0.40021674769E+03 -0.23570299508E+03  0.73710576588E+03  0.87123719911E+03  0.00000000000E+00 0. -1.
        -11    1    3    3    0    0  0.25271981231E+03 -0.16852613615E+03  0.63254233083E+03  0.70169663131E+03  0.00000000000E+00 0.  1.
         22    1    1    2    0    0 -0.65293656000E+03  0.40422913123E+03  0.63842195508E+02  0.77058624945E+03  0.00000000000E+00 0. -1.
<mgrwt>
<rscale>  0 0.18539665E+04</rscale>
<asrwt>0</asrwt>
<pdfrwt beam="1">  1        2 0.29053925E+00 0.18539665E+04</pdfrwt>
<pdfrwt beam="2">  1       -2 0.70002293E-01 0.18539665E+04</pdfrwt>
<totfact> 0.13462955E+01</totfact>
</mgrwt>
</event>
<event>
 6    1  0.5026615E-004  0.2715043E+04  0.7818608E-02  0.8330141E-01
         -1   -1    0    0    0  501 -0.00000000000E+00  0.00000000000E+00  0.13428676697E+04  0.13428676697E+04  0.00000000000E+00 0. -1.
          1   -1    0    0  501    0  0.00000000000E+00 -0.00000000000E+00 -0.13723351347E+04  0.13723351347E+04  0.00000000000E+00 0.  1.
         23    2    1    2    0    0  0.98132832490E+03  0.71266577542E+03 -0.62143679492E+03  0.13656378833E+04  0.88799490562E+02 0.  0.
         13    1    3    3    0    0  0.25865115028E+03  0.15177399266E+03 -0.12594578225E+03  0.32526620245E+03  0.00000000000E+00 0.  1.
        -13    1    3    3    0    0  0.72267717461E+03  0.56089178276E+03 -0.49549101267E+03  0.10403716808E+04  0.00000000000E+00 0. -1.
         22    1    1    2    0    0 -0.98132832490E+03 -0.71266577542E+03  0.59196932995E+03  0.13495649211E+04  0.00000000000E+00 0. -1.
<mgrwt>
<rscale>  0 0.27150429E+04</rscale>
<asrwt>0</asrwt>
<pdfrwt beam="1">  1        1 0.21112848E+00 0.27150429E+04</pdfrwt>
<pdfrwt beam="2">  1       -1 0.20659503E+00 0.27150429E+04</pdfrwt>
<totfact> 0.95027394E-01</totfact>
</mgrwt>
</event>
<event>
 6    1  0.5026615E-004  0.2209584E+04  0.7818608E-02  0.8514450E-01
          2   -1    0    0  501    0  0.00000000000E+00  0.00000000000E+00  0.46569654634E+03  0.46569654634E+03  0.00000000000E+00 0.  1.
         -2   -1    0    0    0  501 -0.00000000000E+00 -0.00000000000E+00 -0.26209455776E+04  0.26209455776E+04  0.00000000000E+00 0. -1.
         23    2    1    2    0    0 -0.41354245608E+03 -0.97598178606E+03 -0.65444074810E+03  0.12492572126E+04  0.93771427910E+02 0.  0.
         11    1    3    3    0    0 -0.23489133619E+03 -0.44158727117E+03 -0.28902624140E+03  0.57767588326E+03  0.00000000000E+00 0. -1.
        -11    1    3    3    0    0 -0.17865111989E+03 -0.53439451489E+03 -0.36541450670E+03  0.67158132932E+03  0.00000000000E+00 0.  1.
         22    1    1    2    0    0  0.41354245608E+03  0.97598178606E+03 -0.15008082831E+04  0.18373849114E+04  0.00000000000E+00 0. -1.
<mgrwt>
<rscale>  0 0.22095839E+04</rscale>
<asrwt>0</asrwt>
<pdfrwt beam="1">  1        2 0.71645623E-01 0.22095839E+04</pdfrwt>
<pdfrwt beam="2">  1       -2 0.40322239E+00 0.22095839E+04</pdfrwt>
<totfact> 0.43241285E-01</totfact>
</mgrwt>
</event>
<event>
 6    1  0.5026615E-004  0.2427883E+04  0.7818608E-02  0.8429138E-01
          2   -1    0    0  501    0  0.00000000000E+00  0.00000000000E+00  0.25287225704E+04  0.25287225704E+04  0.00000000000E+00 0.  1.
         -2   -1    0    0    0  501 -0.00000000000E+00 -0.00000000000E+00 -0.58276597921E+03  0.58276597921E+03  0.00000000000E+00 0. -1.
         23    2    1    2    0    0  0.45968565551E+03  0.38066818051E+03 -0.37795480578E+03  0.71215877935E+03  0.90006256741E+02 0.  0.
         11    1    3    3    0    0  0.29113216651E+03  0.27865607388E+03 -0.21672507125E+03  0.45757720922E+03  0.00000000000E+00 0. -1.
        -11    1    3    3    0    0  0.16855348899E+03  0.10201210663E+03 -0.16122973452E+03  0.25458157012E+03  0.00000000000E+00 0.  1.
         22    1    1    2    0    0 -0.45968565551E+03 -0.38066818051E+03  0.23239113970E+04  0.23993297703E+04  0.00000000000E+00 0.  1.
<mgrwt>
<rscale>  0 0.24278826E+04</rscale>
<asrwt>0</asrwt>
<pdfrwt beam="1">  1        2 0.38903424E+00 0.24278826E+04</pdfrwt>
<pdfrwt beam="2">  1       -2 0.89656306E-01 0.24278826E+04</pdfrwt>
<totfact> 0.32039482E+00</totfact>
</mgrwt>
</event>
<event>
 6    1  0.5026615E-004  0.2378836E+04  0.7818608E-02  0.8447470E-01
          2   -1    0    0  501    0  0.00000000000E+00  0.00000000000E+00  0.15147113080E+04  0.15147113080E+04  0.00000000000E+00 0.  1.
         -2   -1    0    0    0  501 -0.00000000000E+00 -0.00000000000E+00 -0.93398324854E+03  0.93398324854E+03  0.00000000000E+00 0. -1.
         23    2    1    2    0    0 -0.87105177106E+03  0.75296608829E+03  0.59060239451E+03  0.12972664778E+04  0.91651558176E+02 0.  0.
         11    1    3    3    0    0 -0.24896305032E+03  0.27146748691E+03  0.19217451530E+03  0.41546147981E+03  0.00000000000E+00 0.  1.
        -11    1    3    3    0    0 -0.62208872074E+03  0.48149860138E+03  0.39842787921E+03  0.88180499802E+03  0.00000000000E+00 0. -1.
         22    1    1    2    0    0  0.87105177106E+03 -0.75296608829E+03 -0.98743350378E+01  0.11514280787E+04  0.00000000000E+00 0. -1.
<mgrwt>
<rscale>  0 0.23788358E+04</rscale>
<asrwt>0</asrwt>
<pdfrwt beam="1">  1        2 0.23303251E+00 0.23788358E+04</pdfrwt>
<pdfrwt beam="2">  1       -2 0.14368973E+00 0.23788358E+04</pdfrwt>
<totfact> 0.37650790E+00</totfact>
</mgrwt>
</event>
<event>
 6    1  0.5026615E-004  0.3173032E+04  0.7818608E-02  0.8195976E-01
          2   -1    0    0  501    0  0.00000000000E+00  0.00000000000E+00  0.19382535338E+04  0.19382535338E+04  0.00000000000E+00 0.  1.
         -2   -1    0    0    0  501 -0.00000000000E+00 -0.00000000000E+00 -0.12986091173E+04  0.12986091173E+04  0.00000000000E+00 0. -1.
         23    2    1    2    0    0  0.11382703006E+04  0.47425216779E+03  0.13362443591E+04  0.18205908284E+04  0.91801860312E+02 0.  0.
         11    1    3    3    0    0  0.18980759115E+03  0.11678556042E+03  0.23292230874E+03  0.32236406544E+03  0.00000000000E+00 0. -1.
        -11    1    3    3    0    0  0.94846270942E+03  0.35746660737E+03  0.11033220504E+04  0.14982267630E+04  0.00000000000E+00 0.  1.
         22    1    1    2    0    0 -0.11382703006E+04 -0.47425216779E+03 -0.69659994258E+03  0.14162718227E+04  0.00000000000E+00 0. -1.
<mgrwt>
<rscale>  0 0.31730324E+04</rscale>
<asrwt>0</asrwt>
<pdfrwt beam="1">  1        2 0.29819285E+00 0.31730324E+04</pdfrwt>
<pdfrwt beam="2">  1       -2 0.19978602E+00 0.31730324E+04</pdfrwt>
<totfact> 0.81432250E-01</totfact>
</mgrwt>
</event>
<event>
 6    1  0.5026615E-004  0.1122778E+04  0.7818608E-02  0.9183271E-01
          2   -1    0    0  501    0  0.00000000000E+00  0.00000000000E+00  0.69743086047E+03  0.69743086047E+03  0.00000000000E+00 0.  1.
         -2   -1    0    0    0  501 -0.00000000000E+00 -0.00000000000E+00 -0.45188397872E+03  0.45188397872E+03  0.00000000000E+00 0. -1.
         23    2    1    2    0    0 -0.31257461670E+03  0.30053172764E+02  0.59494105655E+03  0.67954641370E+03  0.96033241191E+02 0.  0.
         11    1    3    3    0    0 -0.13947438241E+03  0.17256390818E+02  0.17029931108E+03  0.22080023035E+03  0.00000000000E+00 0.  1.
        -11    1    3    3    0    0 -0.17310023430E+03  0.12796781946E+02  0.42464174547E+03  0.45874618335E+03  0.00000000000E+00 0. -1.
         22    1    1    2    0    0  0.31257461670E+03 -0.30053172764E+02 -0.34939417479E+03  0.46976842548E+03  0.00000000000E+00 0. -1.
<mgrwt>
<rscale>  0 0.11227784E+04</rscale>
<asrwt>0</asrwt>
<pdfrwt beam="1">  1        2 0.10729706E+00 0.11227784E+04</pdfrwt>
<pdfrwt beam="2">  1       -2 0.69520612E-01 0.11227784E+04</pdfrwt>
<totfact> 0.77064189E+01</totfact>
</mgrwt>
</event>
<event>
 6    1  0.5026615E-004  0.3014952E+04  0.7818608E-02  0.8239474E-01
         -1   -1    0    0    0  501 -0.00000000000E+00  0.00000000000E+00  0.18059909432E+04  0.18059909432E+04  0.00000000000E+00 0. -1.
          1   -1    0    0  501    0  0.00000000000E+00 -0.00000000000E+00 -0.12583033434E+04  0.12583033434E+04  0.00000000000E+00 0.  1.
         23    2    1    2    0    0 -0.47493215852E+01 -0.77709578526E+03  0.15852941835E+04  0.17679425449E+04  0.92535281325E+02 0.  0.
         13    1    3    3    0    0 -0.37934128667E+02 -0.64942463403E+03  0.13046333571E+04  0.14578269958E+04  0.00000000000E+00 0.  1.
        -13    1    3    3    0    0  0.33184807082E+02 -0.12767115123E+03  0.28066082648E+03  0.31011554910E+03  0.00000000000E+00 0. -1.
         22    1    1    2    0    0  0.47493215852E+01  0.77709578526E+03 -0.10376065837E+04  0.12963517417E+04  0.00000000000E+00 0.  1.
<mgrwt>
<rscale>  0 0.30149524E+04</rscale>
<asrwt>0</asrwt>
<pdfrwt beam="1">  1        1 0.19358513E+00 0.30149524E+04</pdfrwt>
<pdfrwt beam="2">  1       -1 0.27784476E+00 0.30149524E+04</pdfrwt>
<totfact> 0.37858818E-01</totfact>
</mgrwt>
</event>
<event>
 6    1  0.5026615E-004  0.3663275E+04  0.7818608E-02  0.8076150E-01
         -1   -1    0    0    0  501 -0.00000000000E+00  0.00000000000E+00  0.10642411361E+04  0.10642411361E+04  0.00000000000E+00 0.  1.
          1   -1    0    0  501    0  0.00000000000E+00 -0.00000000000E+00 -0.31523830031E+04  0.31523830031E+04  0.00000000000E+00 0. -1.
         23    2    1    2    0    0  0.13870104324E+04 -0.76954258820E+03 -0.20964574033E+04  0.26304139127E+04  0.89162623849E+02 0.  0.
         13    1    3    3    0    0  0.11228517173E+04 -0.65002564206E+03 -0.17539101498E+04  0.21816347375E+04  0.00000000000E+00 0.  1.
        -13    1    3    3    0    0  0.26415871502E+03 -0.11951694614E+03 -0.34254725356E+03  0.44877917516E+03  0.00000000000E+00 0. -1.
         22    1    1    2    0    0 -0.13870104324E+04  0.76954258820E+03  0.83155363477E+01  0.15862102265E+04  0.00000000000E+00 0.  1.
<mgrwt>
<rscale>  0 0.36632749E+04</rscale>
<asrwt>0</asrwt>
<pdfrwt beam="1">  1        1 0.48498200E+00 0.36632749E+04</pdfrwt>
<pdfrwt beam="2">  1       -1 0.16372941E+00 0.36632749E+04</pdfrwt>
<totfact> 0.10162200E-01</totfact>
</mgrwt>
</event>
<event>
 6    1  0.5026615E-004  0.1081236E+04  0.7818608E-02  0.9223676E-01
         -2   -1    0    0    0  501 -0.00000000000E+00  0.00000000000E+00  0.17486354669E+03  0.17486354669E+03  0.00000000000E+00 0. -1.
          2   -1    0    0  501    0  0.00000000000E+00 -0.00000000000E+00 -0.16714036548E+04  0.16714036548E+04  0.00000000000E+00 0.  1.
         23    2    1    2    0    0  0.25009583182E+03 -0.46095629231E+03 -0.94911408900E+03  0.10881749413E+04  0.90986375490E+02 0.  0.
         11    1    3    3    0    0  0.31321330130E+02 -0.13861792938E+03 -0.27673489410E+03  0.31109187980E+03  0.00000000000E+00 0. -1.
        -11    1    3    3    0    0  0.21877450169E+03 -0.32233836293E+03 -0.67237919490E+03  0.77708306154E+03  0.00000000000E+00 0.  1.
         22    1    1    2    0    0 -0.25009583182E+03  0.46095629231E+03 -0.54742601913E+03  0.75809226017E+03  0.00000000000E+00 0. -1.
<mgrwt>
<rscale>  0 0.10812355E+04</rscale>
<asrwt>0</asrwt>
<pdfrwt beam="1">  1        2 0.25713902E+00 0.10812355E+04</pdfrwt>
<pdfrwt beam="2">  1       -2 0.26902084E-01 0.10812355E+04</pdfrwt>
<totfact> 0.12687031E+02</totfact>
</mgrwt>
</event>
<event>
 6    1  0.5026615E-004  0.7662360E+03  0.7818608E-02  0.9610217E-01
          2   -1    0    0  501    0  0.00000000000E+00  0.00000000000E+00  0.87687243773E+03  0.87687243773E+03  0.00000000000E+00 0.  1.
         -2   -1    0    0    0  501 -0.00000000000E+00 -0.00000000000E+00 -0.16738967672E+03  0.16738967672E+03  0.00000000000E+00 0. -1.
         23    2    1    2    0    0  0.10751683145E+03  0.19189285998E+03  0.77781260975E+03  0.81393255277E+03  0.95451588835E+02 0.  0.
         13    1    3    3    0    0  0.93417886252E+02  0.16729531981E+03  0.51316968380E+03  0.54777527315E+03  0.00000000000E+00 0.  1.
        -13    1    3    3    0    0  0.14098945195E+02  0.24597540171E+02  0.26464292596E+03  0.26615727962E+03  0.00000000000E+00 0. -1.
         22    1    1    2    0    0 -0.10751683145E+03 -0.19189285998E+03 -0.68329848738E+02  0.23032956168E+03  0.00000000000E+00 0. -1.
<mgrwt>
<rscale>  0 0.76623598E+03</rscale>
<asrwt>0</asrwt>
<pdfrwt beam="1">  1        2 0.13490345E+00 0.76623598E+03</pdfrwt>
<pdfrwt beam="2">  1       -2 0.25752258E-01 0.76623598E+03</pdfrwt>
<totfact> 0.41514001E+02</totfact>
</mgrwt>
</event>
<event>
 6    1  0.5026615E-004  0.2134377E+04  0.7818608E-02  0.8546250E-01
         -2   -1    0    0    0  501 -0.00000000000E+00  0.00000000000E+00  0.69613231504E+03  0.69613231504E+03  0.00000000000E+00 0. -1.
          2   -1    0    0  501    0  0.00000000000E+00 -0.00000000000E+00 -0.16360265763E+04  0.16360265763E+04  0.00000000000E+00 0.  1.
         23    2    1    2    0    0 -0.51784982812E+03  0.75300038823E+03  0.12718526171E+03  0.92722589027E+03  0.91617310838E+02 0.  0.
         11    1    3    3    0    0 -0.31487022681E+03  0.51515451528E+03  0.54581044603E+02  0.60622316417E+03  0.00000000000E+00 0. -1.
        -11    1    3    3    0    0 -0.20297960131E+03  0.23784587295E+03  0.72604217108E+02  0.32100272610E+03  0.00000000000E+00 0.  1.
         22    1    1    2    0    0  0.51784982812E+03 -0.75300038823E+03 -0.10670795230E+04  0.14049330011E+04  0.00000000000E+00 0.  1.
<mgrwt>
<rscale>  0 0.21343767E+04</rscale>
<asrwt>0</asrwt>
<pdfrwt beam="1">  1        2 0.25169640E+00 0.21343767E+04</pdfrwt>
<pdfrwt beam="2">  1       -2 0.10709728E+00 0.21343767E+04</pdfrwt>
<totfact> 0.68580728E+00</totfact>
</mgrwt>
</event>
<event>
 6    1  0.5026615E-004  0.3248417E+04  0.7818608E-02  0.8176146E-01
         -2   -1    0    0    0  501 -0.00000000000E+00  0.00000000000E+00  0.85049324256E+03  0.85049324256E+03  0.00000000000E+00 0. -1.
          2   -1    0    0  501    0  0.00000000000E+00 -0.00000000000E+00 -0.31017912359E+04  0.31017912359E+04  0.00000000000E+00 0.  1.
         23    2    1    2    0    0  0.68360640454E+03  0.11110315210E+04 -0.23011640438E+04  0.26468361340E+04  0.93149378675E+02 0.  0.
         11    1    3    3    0    0  0.28327339041E+03  0.43130864599E+03 -0.82421459928E+03  0.97242000570E+03  0.00000000000E+00 0. -1.
        -11    1    3    3    0    0  0.40033301413E+03  0.67972287498E+03 -0.14769494446E+04  0.16744161283E+04  0.00000000000E+00 0.  1.
         22    1    1    2    0    0 -0.68360640454E+03 -0.11110315210E+04  0.49866050548E+02  0.13054483444E+04  0.00000000000E+00 0. -1.
<mgrwt>
<rscale>  0 0.32484165E+04</rscale>
<asrwt>0</asrwt>
<pdfrwt beam="1">  1        2 0.47719866E+00 0.32484165E+04</pdfrwt>
<pdfrwt beam="2">  1       -2 0.13084511E+00 0.32484165E+04</pdfrwt>
<totfact> 0.53733447E-01</totfact>
</mgrwt>
</event>
<event>
 6    1  0.5026615E-004  0.2997180E+04  0.7818608E-02  0.8244537E-01
          2   -1    0    0  501    0  0.00000000000E+00  0.00000000000E+00  0.18666424509E+04  0.18666424509E+04  0.00000000000E+00 0.  1.
         -2   -1    0    0    0  501 -0.00000000000E+00 -0.00000000000E+00 -0.12031075573E+04  0.12031075573E+04  0.00000000000E+00 0. -1.
         23    2    1    2    0    0 -0.39880688508E+03  0.90665451817E+03 -0.81780321939E+03  0.12877758356E+04  0.92169139523E+02 0.  0.
         13    1    3    3    0    0 -0.16641592271E+03  0.46328552312E+03 -0.44546833420E+03  0.66390494202E+03  0.00000000000E+00 0.  1.
        -13    1    3    3    0    0 -0.23239096237E+03  0.44336899505E+03 -0.37233488519E+03  0.62387089361E+03  0.00000000000E+00 0. -1.
         22    1    1    2    0    0  0.39880688508E+03 -0.90665451817E+03  0.14813381130E+04  0.17819741726E+04  0.00000000000E+00 0.  1.
<mgrwt>
<rscale>  0 0.29971798E+04</rscale>
<asrwt>0</asrwt>
<pdfrwt beam="1">  1        2 0.28717576E+00 0.29971798E+04</pdfrwt>
<pdfrwt beam="2">  1       -2 0.18509347E+00 0.29971798E+04</pdfrwt>
<totfact> 0.11352808E+00</totfact>
</mgrwt>
</event>
<event>
 6    1  0.5026615E-004  0.4067581E+04  0.7818608E-02  0.7991050E-01
          2   -1    0    0  501    0  0.00000000000E+00  0.00000000000E+00  0.29488623867E+04  0.29488623867E+04  0.00000000000E+00 0.  1.
         -2   -1    0    0    0  501 -0.00000000000E+00 -0.00000000000E+00 -0.14026777539E+04  0.14026777539E+04  0.00000000000E+00 0. -1.
         23    2    1    2    0    0 -0.15579545978E+04 -0.86543334589E+02 -0.61998069634E+03  0.16818988705E+04  0.98465573562E+02 0.  0.
         13    1    3    3    0    0 -0.40504633569E+03 -0.24990524835E+02 -0.20824824578E+03  0.45612979760E+03  0.00000000000E+00 0.  1.
        -13    1    3    3    0    0 -0.11529082621E+04 -0.61552809754E+02 -0.41173245056E+03  0.12257690729E+04  0.00000000000E+00 0. -1.
         22    1    1    2    0    0  0.15579545978E+04  0.86543334589E+02  0.21661653292E+04  0.26696412701E+04  0.00000000000E+00 0.  1.
<mgrwt>
<rscale>  0 0.40675809E+04</rscale>
<asrwt>0</asrwt>
<pdfrwt beam="1">  1        2 0.45367113E+00 0.40675809E+04</pdfrwt>
<pdfrwt beam="2">  1       -2 0.21579658E+00 0.40675809E+04</pdfrwt>
<totfact> 0.15447108E-01</totfact>
</mgrwt>
</event>
<event>
 6    1  0.5026615E-004  0.2114698E+04  0.7818608E-02  0.8554796E-01
         -2   -1    0    0    0  501 -0.00000000000E+00  0.00000000000E+00  0.11451655827E+04  0.11451655827E+04  0.00000000000E+00 0. -1.
          2   -1    0    0  501    0  0.00000000000E+00 -0.00000000000E+00 -0.97626687368E+03  0.97626687368E+03  0.00000000000E+00 0.  1.
         23    2    1    2    0    0 -0.35491597363E+03  0.14370438026E+03 -0.90197532695E+03  0.98416050202E+03  0.91630268268E+02 0.  0.
         11    1    3    3    0    0 -0.14768384428E+03  0.54185017320E+02 -0.48675273023E+03  0.51154154704E+03  0.00000000000E+00 0.  1.
        -11    1    3    3    0    0 -0.20723212935E+03  0.89519362938E+02 -0.41522259672E+03  0.47261895497E+03  0.00000000000E+00 0. -1.
         22    1    1    2    0    0  0.35491597363E+03 -0.14370438026E+03  0.10708740359E+04  0.11372719543E+04  0.00000000000E+00 0. -1.
<mgrwt>
<rscale>  0 0.21146983E+04</rscale>
<asrwt>0</asrwt>
<pdfrwt beam="1">  1        2 0.15019490E+00 0.21146983E+04</pdfrwt>
<pdfrwt beam="2">  1       -2 0.17617932E+00 0.21146983E+04</pdfrwt>
<totfact> 0.46291703E+00</totfact>
</mgrwt>
</event>
<event>
 6    1  0.5026615E-004  0.9664402E+03  0.7818608E-02  0.9346138E-01
         -2   -1    0    0    0  501 -0.00000000000E+00  0.00000000000E+00  0.15944728096E+03  0.15944728096E+03  0.00000000000E+00 0. -1.
          2   -1    0    0  501    0  0.00000000000E+00 -0.00000000000E+00 -0.14644442640E+04  0.14644442640E+04  0.00000000000E+00 0.  1.
         23    2    1    2    0    0  0.19327045613E+03  0.22604186522E+03 -0.12889208392E+04  0.13260546157E+04  0.93035046216E+02 0.  0.
         11    1    3    3    0    0  0.96335375479E+02  0.72710765604E+02 -0.68224090177E+03  0.69283476244E+03  0.00000000000E+00 0. -1.
        -11    1    3    3    0    0  0.96935080653E+02  0.15333109961E+03 -0.60667993747E+03  0.63321985321E+03  0.00000000000E+00 0.  1.
         22    1    1    2    0    0 -0.19327045613E+03 -0.22604186522E+03 -0.16076143776E+02  0.29783692928E+03  0.00000000000E+00 0. -1.
<mgrwt>
<rscale>  0 0.96644018E+03</rscale>
<asrwt>0</asrwt>
<pdfrwt beam="1">  1        2 0.22529912E+00 0.96644018E+03</pdfrwt>
<pdfrwt beam="2">  1       -2 0.24530351E-01 0.96644018E+03</pdfrwt>
<totfact> 0.19724623E+02</totfact>
</mgrwt>
</event>
<event>
 6    1  0.5026615E-004  0.4459539E+03  0.7818608E-02  0.1028936E+00
          2   -1    0    0  501    0  0.00000000000E+00  0.00000000000E+00  0.76149521684E+03  0.76149521684E+03  0.00000000000E+00 0.  1.
         -2   -1    0    0    0  501 -0.00000000000E+00 -0.00000000000E+00 -0.65290915680E+02  0.65290915680E+02  0.00000000000E+00 0. -1.
         23    2    1    2    0    0  0.22249615740E+02  0.12752477008E+03  0.48015059000E+02  0.16579679370E+03  0.91790623303E+02 0.  0.
         13    1    3    3    0    0  0.32322860146E+02  0.13840876429E+03  0.50342837019E+02  0.15078512712E+03  0.00000000000E+00 0.  1.
        -13    1    3    3    0    0 -0.10073244406E+02 -0.10883994217E+02 -0.23277780191E+01  0.15011666579E+02  0.00000000000E+00 0. -1.
         22    1    1    2    0    0 -0.22249615740E+02 -0.12752477008E+03  0.64818924216E+03  0.66098933882E+03  0.00000000000E+00 0.  1.
<mgrwt>
<rscale>  0 0.44595390E+03</rscale>
<asrwt>0</asrwt>
<pdfrwt beam="1">  1        2 0.11715310E+00 0.44595390E+03</pdfrwt>
<pdfrwt beam="2">  1       -2 0.10044757E-01 0.44595390E+03</pdfrwt>
<totfact> 0.25000330E+03</totfact>
</mgrwt>
</event>
<event>
 6    1  0.5026615E-004  0.2327011E+04  0.7818608E-02  0.8467347E-01
         -2   -1    0    0    0  501 -0.00000000000E+00  0.00000000000E+00  0.45535088576E+03  0.45535088576E+03  0.00000000000E+00 0. -1.
          2   -1    0    0  501    0  0.00000000000E+00 -0.00000000000E+00 -0.29729708879E+04  0.29729708879E+04  0.00000000000E+00 0.  1.
         23    2    1    2    0    0  0.69645403645E+03  0.51038296629E+03 -0.11567201263E+03  0.87589290266E+03  0.90936050426E+02 0.  0.
         13    1    3    3    0    0  0.47578726213E+03  0.30290794917E+03 -0.52283638795E+02  0.56644534014E+03  0.00000000000E+00 0. -1.
        -13    1    3    3    0    0  0.22066677431E+03  0.20747501712E+03 -0.63388373831E+02  0.30944756252E+03  0.00000000000E+00 0.  1.
         22    1    1    2    0    0 -0.69645403645E+03 -0.51038296629E+03 -0.24019479896E+04  0.25524288710E+04  0.00000000000E+00 0.  1.
<mgrwt>
<rscale>  0 0.23270109E+04</rscale>
<asrwt>0</asrwt>
<pdfrwt beam="1">  1        2 0.45738014E+00 0.23270109E+04</pdfrwt>
<pdfrwt beam="2">  1       -2 0.70053982E-01 0.23270109E+04</pdfrwt>
<totfact> 0.30410539E+00</totfact>
</mgrwt>
</event>
<event>
 6    1  0.5026615E-004  0.4795292E+04  0.7818608E-02  0.7860885E-01
         -2   -1    0    0    0  501 -0.00000000000E+00  0.00000000000E+00  0.16075284754E+04  0.16075284754E+04  0.00000000000E+00 0. -1.
          2   -1    0    0  501    0  0.00000000000E+00 -0.00000000000E+00 -0.35761152567E+04  0.35761152567E+04  0.00000000000E+00 0.  1.
         23    2    1    2    0    0 -0.20003936891E+04 -0.72461729557E+03  0.20829667393E+03  0.21397208169E+04  0.91501546767E+02 0.  0.
         13    1    3    3    0    0 -0.12265699318E+04 -0.41537285777E+03  0.91125624826E+02  0.12981957818E+04  0.00000000000E+00 0.  1.
        -13    1    3    3    0    0 -0.77382375739E+03 -0.30924443781E+03  0.11717104910E+03  0.84152503502E+03  0.00000000000E+00 0. -1.
         22    1    1    2    0    0  0.20003936891E+04  0.72461729557E+03 -0.21768834552E+04  0.30439229153E+04  0.00000000000E+00 0.  1.
<mgrwt>
<rscale>  0 0.47952923E+04</rscale>
<asrwt>0</asrwt>
<pdfrwt beam="1">  1        2 0.55017158E+00 0.47952923E+04</pdfrwt>
<pdfrwt beam="2">  1       -2 0.24731207E+00 0.47952923E+04</pdfrwt>
<totfact> 0.35395508E-02</totfact>
</mgrwt>
</event>
<event>
 6    1  0.5026615E-004  0.8088830E+03  0.7818608E-02  0.9547248E-01
         -2   -1    0    0    0  501 -0.00000000000E+00  0.00000000000E+00  0.18776733046E+03  0.18776733046E+03  0.00000000000E+00 0. -1.
          2   -1    0    0  501    0  0.00000000000E+00 -0.00000000000E+00 -0.87114699551E+03  0.87114699551E+03  0.00000000000E+00 0.  1.
         23    2    1    2    0    0  0.32036543479E+03 -0.14641219159E+03 -0.59364540904E+03  0.69542735460E+03  0.84461779554E+02 0.  0.
         11    1    3    3    0    0  0.22402588886E+02  0.15839033259E+01 -0.82850513893E+02  0.85840505538E+02  0.00000000000E+00 0.  1.
        -11    1    3    3    0    0  0.29796284590E+03 -0.14799609491E+03 -0.51079489515E+03  0.60958684907E+03  0.00000000000E+00 0. -1.
         22    1    1    2    0    0 -0.32036543479E+03  0.14641219159E+03 -0.89734256007E+02  0.36348697137E+03  0.00000000000E+00 0. -1.
<mgrwt>
<rscale>  0 0.80888305E+03</rscale>
<asrwt>0</asrwt>
<pdfrwt beam="1">  1        2 0.13402262E+00 0.80888305E+03</pdfrwt>
<pdfrwt beam="2">  1       -2 0.28887281E-01 0.80888305E+03</pdfrwt>
<totfact> 0.33891416E+02</totfact>
</mgrwt>
</event>
<event>
 6    1  0.5127094E-004  0.1473983E+04  0.7818608E-02  0.8901941E-01
         -1   -1    0    0    0  501 -0.00000000000E+00  0.00000000000E+00  0.34642479010E+03  0.34642479010E+03  0.00000000000E+00 0. -1.
          1   -1    0    0  501    0  0.00000000000E+00 -0.00000000000E+00 -0.15678913177E+04  0.15678913177E+04  0.00000000000E+00 0.  1.
         23    2    1    2    0    0 -0.35180365193E+03  0.64029886455E+03 -0.52052294623E+03  0.90185852859E+03  0.93038823005E+02 0.  0.
         11    1    3    3    0    0 -0.22442092389E+03  0.31257409859E+03 -0.26552870736E+03  0.46751771370E+03  0.00000000000E+00 0. -1.
        -11    1    3    3    0    0 -0.12738272805E+03  0.32772476596E+03 -0.25499423887E+03  0.43434081489E+03  0.00000000000E+00 0.  1.
         22    1    1    2    0    0  0.35180365193E+03 -0.64029886455E+03 -0.70094358142E+03  0.10124575793E+04  0.00000000000E+00 0. -1.
<mgrwt>
<rscale>  0 0.14739829E+04</rscale>
<asrwt>0</asrwt>
<pdfrwt beam="1">  1        1 0.24121405E+00 0.14739829E+04</pdfrwt>
<pdfrwt beam="2">  1       -1 0.53296122E-01 0.14739829E+04</pdfrwt>
<totfact> 0.20210833E+01</totfact>
</mgrwt>
</event>
<event>
 6    1  0.5026615E-004  0.2239537E+04  0.7818608E-02  0.8502150E-01
         -2   -1    0    0    0  501 -0.00000000000E+00  0.00000000000E+00  0.28787971498E+03  0.28787971498E+03  0.00000000000E+00 0. -1.
          2   -1    0    0  501    0  0.00000000000E+00 -0.00000000000E+00 -0.43555750202E+04  0.43555750202E+04  0.00000000000E+00 0.  1.
         23    2    1    2    0    0  0.43480221803E+03  0.24218245242E+03 -0.41127132410E+04  0.41437228835E+04  0.91234991960E+02 0.  0.
         13    1    3    3    0    0  0.19637552036E+03  0.59735765613E+02 -0.17621369362E+04  0.17740513771E+04  0.00000000000E+00 0. -1.
        -13    1    3    3    0    0  0.23842669768E+03  0.18244668681E+03 -0.23505763048E+04  0.23696715064E+04  0.00000000000E+00 0.  1.
         22    1    1    2    0    0 -0.43480221803E+03 -0.24218245242E+03  0.45017935721E+02  0.49973185170E+03  0.00000000000E+00 0. -1.
<mgrwt>
<rscale>  0 0.22395372E+04</rscale>
<asrwt>0</asrwt>
<pdfrwt beam="1">  1        2 0.67008844E+00 0.22395372E+04</pdfrwt>
<pdfrwt beam="2">  1       -2 0.44289188E-01 0.22395372E+04</pdfrwt>
<totfact> 0.75058425E-01</totfact>
</mgrwt>
</event>
<event>
 6    1  0.5026615E-004  0.3974720E+04  0.7818608E-02  0.8009666E-01
         -2   -1    0    0    0  501 -0.00000000000E+00  0.00000000000E+00  0.30617543857E+04  0.30617543857E+04  0.00000000000E+00 0. -1.
          2   -1    0    0  501    0  0.00000000000E+00 -0.00000000000E+00 -0.12899791716E+04  0.12899791716E+04  0.00000000000E+00 0.  1.
         23    2    1    2    0    0 -0.73049644145E+02  0.18277853131E+04  0.17339891314E+04  0.25220988426E+04  0.90160203006E+02 0.  0.
         13    1    3    3    0    0  0.37242660523E+01  0.17345474321E+03  0.19920461075E+03  0.26416452268E+03  0.00000000000E+00 0. -1.
        -13    1    3    3    0    0 -0.76773910197E+02  0.16543305699E+04  0.15347845207E+04  0.22579343199E+04  0.00000000000E+00 0.  1.
         22    1    1    2    0    0  0.73049644145E+02 -0.18277853131E+04  0.37786082649E+02  0.18296347148E+04  0.00000000000E+00 0.  1.
<mgrwt>
<rscale>  0 0.39747198E+04</rscale>
<asrwt>0</asrwt>
<pdfrwt beam="1">  1        2 0.19845834E+00 0.39747198E+04</pdfrwt>
<pdfrwt beam="2">  1       -2 0.47103913E+00 0.39747198E+04</pdfrwt>
<totfact> 0.33447869E-02</totfact>
</mgrwt>
</event>
<event>
 6    1  0.5026615E-004  0.4991613E+04  0.7818608E-02  0.7829802E-01
          2   -1    0    0  501    0  0.00000000000E+00  0.00000000000E+00  0.26395764569E+04  0.26395764569E+04  0.00000000000E+00 0.  1.
         -2   -1    0    0    0  501 -0.00000000000E+00 -0.00000000000E+00 -0.23598677321E+04  0.23598677321E+04  0.00000000000E+00 0. -1.
         23    2    1    2    0    0 -0.67898377334E+03 -0.21205000248E+04 -0.98760754504E+03  0.24374859834E+04  0.91814684555E+02 0.  0.
         11    1    3    3    0    0 -0.13265242802E+03 -0.41042857558E+03 -0.15214474065E+03  0.45737982511E+03  0.00000000000E+00 0.  1.
        -11    1    3    3    0    0 -0.54633134532E+03 -0.17100714493E+04 -0.83546280438E+03  0.19801061583E+04  0.00000000000E+00 0. -1.
         22    1    1    2    0    0  0.67898377334E+03  0.21205000248E+04  0.12673162698E+04  0.25619582057E+04  0.00000000000E+00 0.  1.
<mgrwt>
<rscale>  0 0.49916135E+04</rscale>
<asrwt>0</asrwt>
<pdfrwt beam="1">  1        2 0.40608868E+00 0.49916135E+04</pdfrwt>
<pdfrwt beam="2">  1       -2 0.36305658E+00 0.49916135E+04</pdfrwt>
<totfact> 0.27020084E-02</totfact>
</mgrwt>
</event>
<event>
 6    1  0.5026615E-004  0.2303467E+04  0.7818608E-02  0.8476555E-01
          2   -1    0    0  501    0  0.00000000000E+00  0.00000000000E+00  0.18029540088E+04  0.18029540088E+04  0.00000000000E+00 0.  1.
         -2   -1    0    0    0  501 -0.00000000000E+00 -0.00000000000E+00 -0.73573152385E+03  0.73573152385E+03  0.00000000000E+00 0. -1.
         23    2    1    2    0    0 -0.55035083263E+03  0.56164910101E+03  0.14591782334E+04  0.16600701103E+04  0.91081846078E+02 0.  0.
         13    1    3    3    0    0 -0.43144216872E+03  0.39287246211E+03  0.11231599911E+04  0.12656932812E+04  0.00000000000E+00 0. -1.
        -13    1    3    3    0    0 -0.11890866392E+03  0.16877663890E+03  0.33601824222E+03  0.39437682905E+03  0.00000000000E+00 0.  1.
         22    1    1    2    0    0  0.55035083263E+03 -0.56164910101E+03 -0.39195574843E+03  0.87861542234E+03  0.00000000000E+00 0.  1.
<mgrwt>
<rscale>  0 0.23034670E+04</rscale>
<asrwt>0</asrwt>
<pdfrwt beam="1">  1        2 0.27737754E+00 0.23034670E+04</pdfrwt>
<pdfrwt beam="2">  1       -2 0.11318947E+00 0.23034670E+04</pdfrwt>
<totfact> 0.47757739E+00</totfact>
</mgrwt>
</event>
<event>
 6    1  0.5026615E-004  0.9317250E+03  0.7818608E-02  0.9386770E-01
         -2   -1    0    0    0  501 -0.00000000000E+00  0.00000000000E+00  0.29549084772E+03  0.29549084772E+03  0.00000000000E+00 0. -1.
          2   -1    0    0  501    0  0.00000000000E+00 -0.00000000000E+00 -0.73446559420E+03  0.73446559420E+03  0.00000000000E+00 0.  1.
         23    2    1    2    0    0  0.27151243788E+03 -0.36381926104E+03 -0.31207161469E+03  0.55858836549E+03  0.92459779008E+02 0.  0.
         11    1    3    3    0    0  0.83258532048E+02 -0.18051876167E+03 -0.15851597475E+03  0.25425640744E+03  0.00000000000E+00 0.  1.
        -11    1    3    3    0    0  0.18825390584E+03 -0.18330049936E+03 -0.15355563995E+03  0.30433195805E+03  0.00000000000E+00 0. -1.
         22    1    1    2    0    0 -0.27151243788E+03  0.36381926104E+03 -0.12690313179E+03  0.47136807644E+03  0.00000000000E+00 0. -1.
<mgrwt>
<rscale>  0 0.93172498E+03</rscale>
<asrwt>0</asrwt>
<pdfrwt beam="1">  1        2 0.11299471E+00 0.93172498E+03</pdfrwt>
<pdfrwt beam="2">  1       -2 0.45460131E-01 0.93172498E+03</pdfrwt>
<totfact> 0.17705817E+02</totfact>
</mgrwt>
</event>
<event>
 6    1  0.5026615E-004  0.1233039E+04  0.7818608E-02  0.9084419E-01
          2   -1    0    0  501    0  0.00000000000E+00  0.00000000000E+00  0.58705013960E+03  0.58705013960E+03  0.00000000000E+00 0.  1.
         -2   -1    0    0    0  501 -0.00000000000E+00 -0.00000000000E+00 -0.64746853975E+03  0.64746853975E+03  0.00000000000E+00 0. -1.
         23    2    1    2    0    0 -0.55680995396E+03  0.25549813713E+03  0.90111954931E+01  0.61796609306E+03  0.80524950327E+02 0.  0.
         11    1    3    3    0    0 -0.30329303140E+03  0.15524886378E+03  0.42254934189E+02  0.34332834440E+03  0.00000000000E+00 0. -1.
        -11    1    3    3    0    0 -0.25351692256E+03  0.10024927335E+03 -0.33243738696E+02  0.27463774866E+03  0.00000000000E+00 0.  1.
         22    1    1    2    0    0  0.55680995396E+03 -0.25549813713E+03 -0.69429595643E+02  0.61655258628E+03  0.00000000000E+00 0. -1.
<mgrwt>
<rscale>  0 0.12330393E+04</rscale>
<asrwt>0</asrwt>
<pdfrwt beam="1">  1        2 0.90315406E-01 0.12330393E+04</pdfrwt>
<pdfrwt beam="2">  1       -2 0.99610544E-01 0.12330393E+04</pdfrwt>
<totfact> 0.41809866E+01</totfact>
</mgrwt>
</event>
<event>
 6    1  0.5026615E-004  0.1894420E+04  0.7818608E-02  0.8657639E-01
         -2   -1    0    0    0  501 -0.00000000000E+00  0.00000000000E+00  0.43980311454E+03  0.43980311454E+03  0.00000000000E+00 0. -1.
          2   -1    0    0  501    0  0.00000000000E+00 -0.00000000000E+00 -0.20400189585E+04  0.20400189585E+04  0.00000000000E+00 0.  1.
         23    2    1    2    0    0 -0.37292146099E+03 -0.73988177631E+03 -0.13964525911E+04  0.16265841683E+04  0.95920582352E+02 0.  0.
         13    1    3    3    0    0 -0.19868490062E+03 -0.43235445308E+03 -0.88630939370E+03  0.10059574565E+04  0.00000000000E+00 0. -1.
        -13    1    3    3    0    0 -0.17423656036E+03 -0.30752732323E+03 -0.51014319744E+03  0.62062671179E+03  0.00000000000E+00 0.  1.
         22    1    1    2    0    0  0.37292146099E+03  0.73988177631E+03 -0.20376325282E+03  0.85323790480E+03  0.00000000000E+00 0. -1.
<mgrwt>
<rscale>  0 0.18944199E+04</rscale>
<asrwt>0</asrwt>
<pdfrwt beam="1">  1        2 0.31384908E+00 0.18944199E+04</pdfrwt>
<pdfrwt beam="2">  1       -2 0.67662016E-01 0.18944199E+04</pdfrwt>
<totfact> 0.11903701E+01</totfact>
</mgrwt>
</event>
<event>
 6    1  0.5026615E-004  0.8698848E+03  0.7818608E-02  0.9464030E-01
         -2   -1    0    0    0  501 -0.00000000000E+00  0.00000000000E+00  0.21697420145E+03  0.21697420145E+03  0.00000000000E+00 0. -1.
          2   -1    0    0  501    0  0.00000000000E+00 -0.00000000000E+00 -0.87187736275E+03  0.87187736275E+03  0.00000000000E+00 0.  1.
         23    2    1    2    0    0  0.16249824143E+03  0.35494480165E+03 -0.10706410708E+03  0.41615615020E+03  0.96600867683E+02 0.  0.
         11    1    3    3    0    0  0.58845607184E+02  0.12613062332E+03 -0.87051147948E+02  0.16416346117E+03  0.00000000000E+00 0.  1.
        -11    1    3    3    0    0  0.10365263425E+03  0.22881417833E+03 -0.20012959134E+02  0.25199268904E+03  0.00000000000E+00 0. -1.
         22    1    1    2    0    0 -0.16249824143E+03 -0.35494480165E+03 -0.54783905421E+03  0.67269541400E+03  0.00000000000E+00 0.  1.
<mgrwt>
<rscale>  0 0.86988481E+03</rscale>
<asrwt>0</asrwt>
<pdfrwt beam="1">  1        2 0.13413498E+00 0.86988481E+03</pdfrwt>
<pdfrwt beam="2">  1       -2 0.33380646E-01 0.86988481E+03</pdfrwt>
<totfact> 0.25766991E+02</totfact>
</mgrwt>
</event>
<event>
 6    1  0.5026615E-004  0.2103850E+04  0.7818608E-02  0.8559549E-01
         -2   -1    0    0    0  501 -0.00000000000E+00  0.00000000000E+00  0.23873512772E+04  0.23873512772E+04  0.00000000000E+00 0. -1.
          2   -1    0    0  501    0  0.00000000000E+00 -0.00000000000E+00 -0.46350375349E+03  0.46350375349E+03  0.00000000000E+00 0.  1.
         23    2    1    2    0    0  0.80785140684E+03 -0.57453015537E+03  0.49484628570E+03  0.11116732308E+04  0.90750926043E+02 0.  0.
         13    1    3    3    0    0  0.23021924097E+03 -0.20773803188E+03  0.13006456762E+03  0.33626296339E+03  0.00000000000E+00 0. -1.
        -13    1    3    3    0    0  0.57763216587E+03 -0.36679212349E+03  0.36478171809E+03  0.77541026738E+03  0.00000000000E+00 0.  1.
         22    1    1    2    0    0 -0.80785140684E+03  0.57453015537E+03  0.14290012381E+04  0.17391818000E+04  0.00000000000E+00 0. -1.
<mgrwt>
<rscale>  0 0.21038501E+04</rscale>
<asrwt>0</asrwt>
<pdfrwt beam="1">  1        2 0.71308271E-01 0.21038501E+04</pdfrwt>
<pdfrwt beam="2">  1       -2 0.36728480E+00 0.21038501E+04</pdfrwt>
<totfact> 0.74995912E-01</totfact>
</mgrwt>
</event>
<event>
 6    1  0.5026615E-004  0.2823408E+04  0.7818608E-02  0.8296038E-01
         -2   -1    0    0    0  501 -0.00000000000E+00  0.00000000000E+00  0.72100184513E+03  0.72100184513E+03  0.00000000000E+00 0. -1.
          2   -1    0    0  501    0  0.00000000000E+00 -0.00000000000E+00 -0.27640828418E+04  0.27640828418E+04  0.00000000000E+00 0.  1.
         23    2    1    2    0    0 -0.59442775709E+03  0.67313658569E+03 -0.23647480236E+04  0.25311838023E+04  0.91656993367E+02 0.  0.
         11    1    3    3    0    0 -0.50996485721E+03  0.56854220969E+03 -0.19119284783E+04  0.20588285275E+04  0.00000000000E+00 0.  1.
        -11    1    3    3    0    0 -0.84462899883E+02  0.10459437600E+03 -0.45281954533E+03  0.47235527475E+03  0.00000000000E+00 0. -1.
         22    1    1    2    0    0  0.59442775709E+03 -0.67313658569E+03  0.32166702697E+03  0.95390088460E+03  0.00000000000E+00 0. -1.
<mgrwt>
<rscale>  0 0.28234085E+04</rscale>
<asrwt>0</asrwt>
<pdfrwt beam="1">  1        2 0.42524352E+00 0.28234085E+04</pdfrwt>
<pdfrwt beam="2">  1       -2 0.11092336E+00 0.28234085E+04</pdfrwt>
<totfact> 0.13587146E+00</totfact>
</mgrwt>
</event>
<event>
 6    1  0.5026615E-004  0.2522752E+04  0.7818608E-02  0.8394925E-01
          2   -1    0    0  501    0  0.00000000000E+00  0.00000000000E+00  0.18849514807E+04  0.18849514807E+04  0.00000000000E+00 0.  1.
         -2   -1    0    0    0  501 -0.00000000000E+00 -0.00000000000E+00 -0.84409020083E+03  0.84409020083E+03  0.00000000000E+00 0. -1.
         23    2    1    2    0    0 -0.49785252446E+03 -0.39422984089E+03 -0.65597724194E+03  0.91726485404E+03  0.88285712007E+02 0.  0.
         11    1    3    3    0    0 -0.37491993704E+03 -0.27144983773E+03 -0.42627651683E+03  0.62925483105E+03  0.00000000000E+00 0. -1.
        -11    1    3    3    0    0 -0.12293258742E+03 -0.12278000316E+03 -0.22970072511E+03  0.28801002299E+03  0.00000000000E+00 0.  1.
         22    1    1    2    0    0  0.49785252446E+03  0.39422984089E+03  0.16968385218E+04  0.18117768275E+04  0.00000000000E+00 0.  1.
<mgrwt>
<rscale>  0 0.25227517E+04</rscale>
<asrwt>0</asrwt>
<pdfrwt beam="1">  1        2 0.28999254E+00 0.25227517E+04</pdfrwt>
<pdfrwt beam="2">  1       -2 0.12986003E+00 0.25227517E+04</pdfrwt>
<totfact> 0.30012138E+00</totfact>
</mgrwt>
</event>
<event>
 6    1  0.5026615E-004  0.2428078E+04  0.7818608E-02  0.8429066E-01
         -2   -1    0    0    0  501 -0.00000000000E+00  0.00000000000E+00  0.54132115089E+03  0.54132115089E+03  0.00000000000E+00 0. -1.
          2   -1    0    0  501    0  0.00000000000E+00 -0.00000000000E+00 -0.27227667681E+04  0.27227667681E+04  0.00000000000E+00 0.  1.
         23    2    1    2    0    0 -0.62916703075E+03 -0.93763312290E+03 -0.16853633829E+04  0.20307572217E+04  0.92293744881E+02 0.  0.
         11    1    3    3    0    0 -0.20158949416E+03 -0.30346547934E+03 -0.46843906892E+03  0.59343473323E+03  0.00000000000E+00 0.  1.
        -11    1    3    3    0    0 -0.42757753659E+03 -0.63416764356E+03 -0.12169243140E+04  0.14373224885E+04  0.00000000000E+00 0. -1.
         22    1    1    2    0    0  0.62916703075E+03  0.93763312290E+03 -0.49608223435E+03  0.12333306973E+04  0.00000000000E+00 0. -1.
<mgrwt>
<rscale>  0 0.24280785E+04</rscale>
<asrwt>0</asrwt>
<pdfrwt beam="1">  1        2 0.41888719E+00 0.24280785E+04</pdfrwt>
<pdfrwt beam="2">  1       -2 0.83280178E-01 0.24280785E+04</pdfrwt>
<totfact> 0.29145313E+00</totfact>
</mgrwt>
</event>
<event>
 6    1  0.5026615E-004  0.2818609E+04  0.7818608E-02  0.8297514E-01
         -1   -1    0    0    0  501 -0.00000000000E+00  0.00000000000E+00  0.61408503786E+03  0.61408503786E+03  0.00000000000E+00 0. -1.
          1   -1    0    0  501    0  0.00000000000E+00 -0.00000000000E+00 -0.32343054158E+04  0.32343054158E+04  0.00000000000E+00 0.  1.
         23    2    1    2    0    0  0.12779653084E+04 -0.29358868710E+03 -0.20109093218E+04  0.24024825694E+04  0.93683238329E+02 0.  0.
         11    1    3    3    0    0  0.89309924668E+03 -0.20788693354E+03 -0.13258110724E+04  0.16120230275E+04  0.00000000000E+00 0. -1.
        -11    1    3    3    0    0  0.38486606169E+03 -0.85701753561E+02 -0.68509824945E+03  0.79045954192E+03  0.00000000000E+00 0.  1.
         22    1    1    2    0    0 -0.12779653084E+04  0.29358868710E+03 -0.60931105608E+03  0.14459078842E+04  0.00000000000E+00 0. -1.
<mgrwt>
<rscale>  0 0.28186086E+04</rscale>
<asrwt>0</asrwt>
<pdfrwt beam="1">  1        1 0.49758544E+00 0.28186086E+04</pdfrwt>
<pdfrwt beam="2">  1       -1 0.94474624E-01 0.28186086E+04</pdfrwt>
<totfact> 0.37514561E-01</totfact>
</mgrwt>
</event>
<event>
 6    1  0.5026615E-004  0.3459298E+04  0.7818608E-02  0.8123504E-01
          1   -1    0    0  501    0  0.00000000000E+00  0.00000000000E+00  0.21754096295E+04  0.21754096295E+04  0.00000000000E+00 0.  1.
         -1   -1    0    0    0  501 -0.00000000000E+00 -0.00000000000E+00 -0.13752283915E+04  0.13752283915E+04  0.00000000000E+00 0. -1.
         23    2    1    2    0    0  0.10104625563E+04  0.54737539819E+03 -0.92472304340E+03  0.14779708542E+04  0.92901746269E+02 0.  0.
         13    1    3    3    0    0  0.47547510565E+03  0.24202376278E+03 -0.48613767056E+03  0.72179076787E+03  0.00000000000E+00 0.  1.
        -13    1    3    3    0    0  0.53498745069E+03  0.30535163541E+03 -0.43858537284E+03  0.75618008630E+03  0.00000000000E+00 0. -1.
         22    1    1    2    0    0 -0.10104625563E+04 -0.54737539819E+03  0.17249042814E+04  0.20726671668E+04  0.00000000000E+00 0.  1.
<mgrwt>
<rscale>  0 0.34592977E+04</rscale>
<asrwt>0</asrwt>
<pdfrwt beam="1">  1        1 0.33467840E+00 0.34592977E+04</pdfrwt>
<pdfrwt beam="2">  1       -1 0.21157360E+00 0.34592977E+04</pdfrwt>
<totfact> 0.23251817E-01</totfact>
</mgrwt>
</event>
<event>
 6    1  0.5026615E-004  0.5046306E+04  0.7818608E-02  0.7821404E-01
         -2   -1    0    0    0  501 -0.00000000000E+00  0.00000000000E+00  0.45118589381E+04  0.45118589381E+04  0.00000000000E+00 0. -1.
          2   -1    0    0  501    0  0.00000000000E+00 -0.00000000000E+00 -0.14110148314E+04  0.14110148314E+04  0.00000000000E+00 0.  1.
         23    2    1    2    0    0 -0.18401350965E+04 -0.17245647294E+04  0.15829608226E+04  0.29793740934E+04  0.10336509892E+03 0.  0.
         11    1    3    3    0    0 -0.10668097984E+04 -0.10367007746E+04  0.98422595500E+03  0.17836850542E+04  0.00000000000E+00 0. -1.
        -11    1    3    3    0    0 -0.77332529802E+03 -0.68786395481E+03  0.59873486762E+03  0.11956890393E+04  0.00000000000E+00 0.  1.
         22    1    1    2    0    0  0.18401350965E+04  0.17245647294E+04  0.15178832841E+04  0.29434996761E+04  0.00000000000E+00 0.  1.
<mgrwt>
<rscale>  0 0.50463055E+04</rscale>
<asrwt>0</asrwt>
<pdfrwt beam="1">  1        2 0.21707921E+00 0.50463055E+04</pdfrwt>
<pdfrwt beam="2">  1       -2 0.69413214E+00 0.50463055E+04</pdfrwt>
<totfact> 0.24920752E-03</totfact>
</mgrwt>
</event>
<event>
 6    1  0.5026615E-004  0.5288454E+04  0.7818608E-02  0.7785488E-01
          2   -1    0    0  501    0  0.00000000000E+00  0.00000000000E+00  0.18253312631E+04  0.18253312631E+04  0.00000000000E+00 0.  1.
         -2   -1    0    0    0  501 -0.00000000000E+00 -0.00000000000E+00 -0.38305020316E+04  0.38305020316E+04  0.00000000000E+00 0. -1.
         23    2    1    2    0    0  0.12716816190E+04 -0.22096230686E+04 -0.25560280825E+03  0.25638119021E+04  0.90500985539E+02 0.  0.
         11    1    3    3    0    0  0.58912077972E+03 -0.10014491870E+04 -0.16040979485E+03  0.11729002812E+04  0.00000000000E+00 0. -1.
        -11    1    3    3    0    0  0.68256083930E+03 -0.12081738815E+04 -0.95193013398E+02  0.13909116209E+04  0.00000000000E+00 0.  1.
         22    1    1    2    0    0 -0.12716816190E+04  0.22096230686E+04 -0.17495679602E+04  0.30920213927E+04  0.00000000000E+00 0.  1.
<mgrwt>
<rscale>  0 0.52884535E+04</rscale>
<asrwt>0</asrwt>
<pdfrwt beam="1">  1        2 0.28082020E+00 0.52884535E+04</pdfrwt>
<pdfrwt beam="2">  1       -2 0.58930800E+00 0.52884535E+04</pdfrwt>
<totfact> 0.33798006E-03</totfact>
</mgrwt>
</event>
<event>
 6    1  0.5026615E-004  0.2056633E+04  0.7818608E-02  0.8580591E-01
          2   -1    0    0  501    0  0.00000000000E+00  0.00000000000E+00  0.25011973046E+04  0.25011973046E+04  0.00000000000E+00 0.  1.
         -2   -1    0    0    0  501 -0.00000000000E+00 -0.00000000000E+00 -0.42277146243E+03  0.42277146243E+03  0.00000000000E+00 0. -1.
         23    2    1    2    0    0  0.54732683679E+02  0.27147023434E+03  0.24463904707E+04  0.24634367675E+04  0.83681643353E+02 0.  0.
         11    1    3    3    0    0  0.15599326013E+02  0.57217568073E+02  0.28528337569E+03  0.29138255527E+03  0.00000000000E+00 0.  1.
        -11    1    3    3    0    0  0.39133357667E+02  0.21425266627E+03  0.21611070950E+04  0.21720542122E+04  0.00000000000E+00 0. -1.
         22    1    1    2    0    0 -0.54732683679E+02 -0.27147023434E+03 -0.36796462850E+03  0.46053199957E+03  0.00000000000E+00 0. -1.
<mgrwt>
<rscale>  0 0.20566330E+04</rscale>
<asrwt>0</asrwt>
<pdfrwt beam="1">  1        2 0.38479958E+00 0.20566330E+04</pdfrwt>
<pdfrwt beam="2">  1       -2 0.65041765E-01 0.20566330E+04</pdfrwt>
<totfact> 0.70102985E+00</totfact>
</mgrwt>
</event>
<event>
 6    1  0.5026615E-004  0.2181828E+04  0.7818608E-02  0.8526030E-01
          2   -1    0    0  501    0  0.00000000000E+00  0.00000000000E+00  0.28224774758E+04  0.28224774758E+04  0.00000000000E+00 0.  1.
         -2   -1    0    0    0  501 -0.00000000000E+00 -0.00000000000E+00 -0.42164858649E+03  0.42164858649E+03  0.00000000000E+00 0. -1.
         23    2    1    2    0    0  0.80043930665E+03 -0.55921824101E+02  0.10759318105E+03  0.81456635985E+03  0.90065131743E+02 0.  0.
         13    1    3    3    0    0  0.42542430684E+03 -0.28721683561E+01  0.20468360789E+02  0.42592610157E+03  0.00000000000E+00 0.  1.
        -13    1    3    3    0    0  0.37501499981E+03 -0.53049655745E+02  0.87124820258E+02  0.38864025829E+03  0.00000000000E+00 0. -1.
         22    1    1    2    0    0 -0.80043930665E+03  0.55921824101E+02  0.22932357082E+04  0.24295597024E+04  0.00000000000E+00 0.  1.
<mgrwt>
<rscale>  0 0.21818283E+04</rscale>
<asrwt>0</asrwt>
<pdfrwt beam="1">  1        2 0.43422729E+00 0.21818283E+04</pdfrwt>
<pdfrwt beam="2">  1       -2 0.64869015E-01 0.21818283E+04</pdfrwt>
<totfact> 0.45014201E+00</totfact>
</mgrwt>
</event>
<event>
 6    1  0.5026615E-004  0.1875524E+04  0.7818608E-02  0.8667136E-01
         -2   -1    0    0    0  501 -0.00000000000E+00  0.00000000000E+00  0.72961250484E+03  0.72961250484E+03  0.00000000000E+00 0. -1.
          2   -1    0    0  501    0  0.00000000000E+00 -0.00000000000E+00 -0.12052943921E+04  0.12052943921E+04  0.00000000000E+00 0.  1.
         23    2    1    2    0    0 -0.57736798335E+03 -0.55623193827E+02 -0.99569020303E+03  0.11558970278E+04  0.90836284224E+02 0.  0.
         13    1    3    3    0    0 -0.30592782078E+03  0.77307558735E+01 -0.46929377808E+03  0.56025730362E+03  0.00000000000E+00 0.  1.
        -13    1    3    3    0    0 -0.27144016257E+03 -0.63353949701E+02 -0.52639642495E+03  0.59563972416E+03  0.00000000000E+00 0. -1.
         22    1    1    2    0    0  0.57736798335E+03  0.55623193827E+02  0.52000831573E+03  0.77900986920E+03  0.00000000000E+00 0. -1.
<mgrwt>
<rscale>  0 0.18755243E+04</rscale>
<asrwt>0</asrwt>
<pdfrwt beam="1">  1        2 0.18542990E+00 0.18755243E+04</pdfrwt>
<pdfrwt beam="2">  1       -2 0.11224808E+00 0.18755243E+04</pdfrwt>
<totfact> 0.11039172E+01</totfact>
</mgrwt>
</event>
<event>
 6    1  0.5026615E-004  0.1754243E+04  0.7818608E-02  0.8731018E-01
          2   -1    0    0  501    0  0.00000000000E+00  0.00000000000E+00  0.16592078990E+04  0.16592078990E+04  0.00000000000E+00 0.  1.
         -2   -1    0    0    0  501 -0.00000000000E+00 -0.00000000000E+00 -0.46368062048E+03  0.46368062048E+03  0.00000000000E+00 0. -1.
         23    2    1    2    0    0 -0.66739154303E+03  0.56542618943E+03  0.59489278263E+03  0.10618135716E+04  0.91828049117E+02 0.  0.
         11    1    3    3    0    0 -0.62602409697E+03  0.50858377447E+03  0.56818674719E+03  0.98661026010E+03  0.00000000000E+00 0. -1.
        -11    1    3    3    0    0 -0.41367446056E+02  0.56842414962E+02  0.26706035435E+02  0.75203311500E+02  0.00000000000E+00 0.  1.
         22    1    1    2    0    0  0.66739154303E+03 -0.56542618943E+03  0.60063449592E+03  0.10610749479E+04  0.00000000000E+00 0. -1.
<mgrwt>
<rscale>  0 0.17542435E+04</rscale>
<asrwt>0</asrwt>
<pdfrwt beam="1">  1        2 0.25526275E+00 0.17542435E+04</pdfrwt>
<pdfrwt beam="2">  1       -2 0.71335481E-01 0.17542435E+04</pdfrwt>
<totfact> 0.17461403E+01</totfact>
</mgrwt>
</event>
<event>
 6    1  0.5026615E-004  0.1903104E+04  0.7818608E-02  0.8653313E-01
         -2   -1    0    0    0  501 -0.00000000000E+00  0.00000000000E+00  0.54975832221E+03  0.54975832221E+03  0.00000000000E+00 0. -1.
          2   -1    0    0  501    0  0.00000000000E+00 -0.00000000000E+00 -0.16469992154E+04  0.16469992154E+04  0.00000000000E+00 0.  1.
         23    2    1    2    0    0 -0.43622052676E+03  0.15996592135E+03  0.40574268098E+03  0.62359604934E+03  0.91473852110E+02 0.  0.
         13    1    3    3    0    0 -0.28270705078E+03  0.57511793930E+02  0.23358670471E+03  0.37120564600E+03  0.00000000000E+00 0. -1.
        -13    1    3    3    0    0 -0.15351347597E+03  0.10245412742E+03  0.17215597627E+03  0.25239040334E+03  0.00000000000E+00 0.  1.
         22    1    1    2    0    0  0.43622052676E+03 -0.15996592135E+03 -0.15029835742E+04  0.15731614883E+04  0.00000000000E+00 0.  1.
<mgrwt>
<rscale>  0 0.19031043E+04</rscale>
<asrwt>0</asrwt>
<pdfrwt beam="1">  1        2 0.25338449E+00 0.19031043E+04</pdfrwt>
<pdfrwt beam="2">  1       -2 0.84578204E-01 0.19031043E+04</pdfrwt>
<totfact> 0.11977590E+01</totfact>
</mgrwt>
</event>
<event>
 6    1  0.5026615E-004  0.1165271E+04  0.7818608E-02  0.9143810E-01
         -2   -1    0    0    0  501 -0.00000000000E+00  0.00000000000E+00  0.39810779928E+03  0.39810779928E+03  0.00000000000E+00 0. -1.
          2   -1    0    0  501    0  0.00000000000E+00 -0.00000000000E+00 -0.85269452136E+03  0.85269452136E+03  0.00000000000E+00 0.  1.
         23    2    1    2    0    0  0.54019813290E+02 -0.38709662228E+03 -0.68730684690E+03  0.79591706949E+03  0.91276198937E+02 0.  0.
         13    1    3    3    0    0  0.25296076645E+02 -0.23491038444E+02 -0.39264706444E+02  0.52282287182E+02  0.00000000000E+00 0.  1.
        -13    1    3    3    0    0  0.28723736645E+02 -0.36360558384E+03 -0.64804214046E+03  0.74363478231E+03  0.00000000000E+00 0. -1.
         22    1    1    2    0    0 -0.54019813290E+02  0.38709662228E+03  0.23272012482E+03  0.45488525115E+03  0.00000000000E+00 0. -1.
<mgrwt>
<rscale>  0 0.11652714E+04</rscale>
<asrwt>0</asrwt>
<pdfrwt beam="1">  1        2 0.13118377E+00 0.11652714E+04</pdfrwt>
<pdfrwt beam="2">  1       -2 0.61247354E-01 0.11652714E+04</pdfrwt>
<totfact> 0.77505270E+01</totfact>
</mgrwt>
</event>
<event>
 6    1  0.5026615E-004  0.4128702E+04  0.7818608E-02  0.7979075E-01
          2   -1    0    0  501    0  0.00000000000E+00  0.00000000000E+00  0.21335288166E+04  0.21335288166E+04  0.00000000000E+00 0.  1.
         -2   -1    0    0    0  501 -0.00000000000E+00 -0.00000000000E+00 -0.19974166556E+04  0.19974166556E+04  0.00000000000E+00 0. -1.
         23    2    1    2    0    0 -0.15098653680E+04  0.26558781966E+03  0.14497729784E+04  0.21120509573E+04  0.93205354907E+02 0.  0.
         11    1    3    3    0    0 -0.10098835773E+04  0.16418893152E+03  0.10241843606E+04  0.14476796778E+04  0.00000000000E+00 0.  1.
        -11    1    3    3    0    0 -0.49998179069E+03  0.10139888814E+03  0.42558861772E+03  0.66437127953E+03  0.00000000000E+00 0. -1.
         22    1    1    2    0    0  0.15098653680E+04 -0.26558781966E+03 -0.13136608174E+04  0.20188945149E+04  0.00000000000E+00 0. -1.
<mgrwt>
<rscale>  0 0.41287025E+04</rscale>
<asrwt>0</asrwt>
<pdfrwt beam="1">  1        2 0.32823520E+00 0.41287025E+04</pdfrwt>
<pdfrwt beam="2">  1       -2 0.30729487E+00 0.41287025E+04</pdfrwt>
<totfact> 0.12597272E-01</totfact>
</mgrwt>
</event>
<event>
 6    1  0.5026615E-004  0.1097133E+04  0.7818608E-02  0.9207991E-01
         -2   -1    0    0    0  501 -0.00000000000E+00  0.00000000000E+00  0.18257858507E+03  0.18257858507E+03  0.00000000000E+00 0. -1.
          2   -1    0    0  501    0  0.00000000000E+00 -0.00000000000E+00 -0.16481947927E+04  0.16481947927E+04  0.00000000000E+00 0.  1.
         23    2    1    2    0    0 -0.25184201692E+03 -0.28128194470E+03 -0.82588749612E+02  0.39713852762E+03  0.91401174265E+02 0.  0.
         11    1    3    3    0    0 -0.88293255462E+02 -0.14756869180E+03 -0.69507545110E+02  0.18548184975E+03  0.00000000000E+00 0.  1.
        -11    1    3    3    0    0 -0.16354876146E+03 -0.13371325290E+03 -0.13081204502E+02  0.21165667787E+03  0.00000000000E+00 0. -1.
         22    1    1    2    0    0  0.25184201692E+03  0.28128194470E+03 -0.13830274580E+04  0.14336348501E+04  0.00000000000E+00 0.  1.
<mgrwt>
<rscale>  0 0.10971328E+04</rscale>
<asrwt>0</asrwt>
<pdfrwt beam="1">  1        2 0.25356842E+00 0.10971328E+04</pdfrwt>
<pdfrwt beam="2">  1       -2 0.28089014E-01 0.10971328E+04</pdfrwt>
<totfact> 0.12058504E+02</totfact>
</mgrwt>
</event>
<event>
 6    1  0.5026615E-004  0.3042123E+04  0.7818608E-02  0.8231804E-01
          2   -1    0    0  501    0  0.00000000000E+00  0.00000000000E+00  0.85860503448E+03  0.85860503448E+03  0.00000000000E+00 0.  1.
         -2   -1    0    0    0  501 -0.00000000000E+00 -0.00000000000E+00 -0.26946366466E+04  0.26946366466E+04  0.00000000000E+00 0. -1.
         23    2    1    2    0    0  0.60671536648E+03 -0.11282730978E+04  0.35376200243E+02  0.12853636157E+04  0.99017321961E+02 0.  0.
         13    1    3    3    0    0  0.10928459865E+03 -0.22985489657E+03 -0.30424361585E+02  0.25632408930E+03  0.00000000000E+00 0.  1.
        -13    1    3    3    0    0  0.49743076783E+03 -0.89841820121E+03  0.65800561827E+02  0.10290395264E+04  0.00000000000E+00 0. -1.
         22    1    1    2    0    0 -0.60671536648E+03  0.11282730978E+04 -0.18714078124E+04  0.22678780654E+04  0.00000000000E+00 0. -1.
<mgrwt>
<rscale>  0 0.30421233E+04</rscale>
<asrwt>0</asrwt>
<pdfrwt beam="1">  1        2 0.13209308E+00 0.30421233E+04</pdfrwt>
<pdfrwt beam="2">  1       -2 0.41455948E+00 0.30421233E+04</pdfrwt>
<totfact> 0.15888681E-01</totfact>
</mgrwt>
</event>
<event>
 6    1  0.5026615E-004  0.1641030E+04  0.7818608E-02  0.8795731E-01
          2   -1    0    0  501    0  0.00000000000E+00  0.00000000000E+00  0.71923791776E+03  0.71923791776E+03  0.00000000000E+00 0.  1.
         -2   -1    0    0    0  501 -0.00000000000E+00 -0.00000000000E+00 -0.93605356150E+03  0.93605356150E+03  0.00000000000E+00 0. -1.
         23    2    1    2    0    0 -0.52776297750E+03  0.55266222144E+03  0.18559654804E+03  0.79163363988E+03  0.90931016216E+02 0.  0.
         13    1    3    3    0    0 -0.21932044111E+03  0.21081841554E+03  0.30289348418E+02  0.30571768815E+03  0.00000000000E+00 0.  1.
        -13    1    3    3    0    0 -0.30844253639E+03  0.34184380590E+03  0.15530719962E+03  0.48591595173E+03  0.00000000000E+00 0. -1.
         22    1    1    2    0    0  0.52776297750E+03 -0.55266222144E+03 -0.40241219178E+03  0.86365783938E+03  0.00000000000E+00 0. -1.
<mgrwt>
<rscale>  0 0.16410304E+04</rscale>
<asrwt>0</asrwt>
<pdfrwt beam="1">  1        2 0.11065199E+00 0.16410304E+04</pdfrwt>
<pdfrwt beam="2">  1       -2 0.14400824E+00 0.16410304E+04</pdfrwt>
<totfact> 0.12617749E+01</totfact>
</mgrwt>
</event>
<event>
 6    1  0.5026615E-004  0.2368926E+04  0.7818608E-02  0.8451230E-01
          2   -1    0    0  501    0  0.00000000000E+00  0.00000000000E+00  0.32356148645E+04  0.32356148645E+04  0.00000000000E+00 0.  1.
         -2   -1    0    0    0  501 -0.00000000000E+00 -0.00000000000E+00 -0.43359679475E+03  0.43359679475E+03  0.00000000000E+00 0. -1.
         23    2    1    2    0    0  0.23402305285E+03 -0.72338826685E+03 -0.21624166157E+00  0.76566649688E+03  0.90486263023E+02 0.  0.
         13    1    3    3    0    0  0.38225806439E+02 -0.79048440969E+02 -0.26513357607E+02  0.91721461116E+02  0.00000000000E+00 0. -1.
        -13    1    3    3    0    0  0.19579724641E+03 -0.64433982588E+03  0.26297115946E+02  0.67394503576E+03  0.00000000000E+00 0.  1.
         22    1    1    2    0    0 -0.23402305285E+03  0.72338826685E+03  0.28022343114E+04  0.29035451623E+04  0.00000000000E+00 0.  1.
<mgrwt>
<rscale>  0 0.23689257E+04</rscale>
<asrwt>0</asrwt>
<pdfrwt beam="1">  1        2 0.49778689E+00 0.23689257E+04</pdfrwt>
<pdfrwt beam="2">  1       -2 0.66707201E-01 0.23689257E+04</pdfrwt>
<totfact> 0.22897441E+00</totfact>
</mgrwt>
</event>
<event>
 6    1  0.5026615E-004  0.4094160E+04  0.7818608E-02  0.7985816E-01
          2   -1    0    0  501    0  0.00000000000E+00  0.00000000000E+00  0.23072905228E+04  0.23072905228E+04  0.00000000000E+00 0.  1.
         -2   -1    0    0    0  501 -0.00000000000E+00 -0.00000000000E+00 -0.18162151609E+04  0.18162151609E+04  0.00000000000E+00 0. -1.
         23    2    1    2    0    0  0.14142424743E+04 -0.44795544096E+03  0.16649114305E+04  0.22317771172E+04  0.90294940632E+02 0.  0.
         11    1    3    3    0    0  0.97009431693E+03 -0.33292887756E+03  0.10987863956E+04  0.15030822214E+04  0.00000000000E+00 0. -1.
        -11    1    3    3    0    0  0.44414815740E+03 -0.11502656340E+03  0.56612503494E+03  0.72869489583E+03  0.00000000000E+00 0.  1.
         22    1    1    2    0    0 -0.14142424743E+04  0.44795544096E+03 -0.11738360686E+04  0.18917285665E+04  0.00000000000E+00 0. -1.
<mgrwt>
<rscale>  0 0.40941598E+04</rscale>
<asrwt>0</asrwt>
<pdfrwt beam="1">  1        2 0.35496777E+00 0.40941598E+04</pdfrwt>
<pdfrwt beam="2">  1       -2 0.27941772E+00 0.40941598E+04</pdfrwt>
<totfact> 0.14928175E-01</totfact>
</mgrwt>
</event>
<event>
 6    1  0.5026615E-004  0.3591590E+04  0.7818608E-02  0.8092421E-01
         -2   -1    0    0    0  501 -0.00000000000E+00  0.00000000000E+00  0.17863367499E+04  0.17863367499E+04  0.00000000000E+00 0. -1.
          2   -1    0    0  501    0  0.00000000000E+00 -0.00000000000E+00 -0.18053029984E+04  0.18053029984E+04  0.00000000000E+00 0.  1.
         23    2    1    2    0    0 -0.17673625996E+04  0.10340218806E+03  0.28435848730E+03  0.17954581132E+04  0.92452776201E+02 0.  0.
         11    1    3    3    0    0 -0.29562933156E+03  0.18691311018E+02  0.82794677199E+02  0.30757279685E+03  0.00000000000E+00 0.  1.
        -11    1    3    3    0    0 -0.14717332680E+04  0.84710877045E+02  0.20156381010E+03  0.14878853163E+04  0.00000000000E+00 0. -1.
         22    1    1    2    0    0  0.17673625996E+04 -0.10340218806E+03 -0.30332473580E+03  0.17961816351E+04  0.00000000000E+00 0.  1.
<mgrwt>
<rscale>  0 0.35915897E+04</rscale>
<asrwt>0</asrwt>
<pdfrwt beam="1">  1        2 0.27773892E+00 0.35915897E+04</pdfrwt>
<pdfrwt beam="2">  1       -2 0.27482104E+00 0.35915897E+04</pdfrwt>
<totfact> 0.31659021E-01</totfact>
</mgrwt>
</event>
<event>
 6    1  0.5026615E-004  0.6907392E+03  0.7818608E-02  0.9733202E-01
         -2   -1    0    0    0  501 -0.00000000000E+00  0.00000000000E+00  0.67250152109E+03  0.67250152109E+03  0.00000000000E+00 0. -1.
          2   -1    0    0  501    0  0.00000000000E+00 -0.00000000000E+00 -0.17736788579E+03  0.17736788579E+03  0.00000000000E+00 0.  1.
         23    2    1    2    0    0 -0.22412548725E+03 -0.20014746318E+03  0.58279228088E+02  0.31964962778E+03  0.92131292527E+02 0.  0.
         11    1    3    3    0    0 -0.91402200878E+02 -0.13637835621E+03  0.91801343868E+01  0.16443142411E+03  0.00000000000E+00 0. -1.
        -11    1    3    3    0    0 -0.13272328637E+03 -0.63769106970E+02  0.49099093701E+02  0.15521820367E+03  0.00000000000E+00 0.  1.
         22    1    1    2    0    0  0.22412548725E+03  0.20014746318E+03  0.43685440722E+03  0.53021977911E+03  0.00000000000E+00 0. -1.
<mgrwt>
<rscale>  0 0.69073924E+03</rscale>
<asrwt>0</asrwt>
<pdfrwt beam="1">  1        2 0.27287367E-01 0.69073924E+03</pdfrwt>
<pdfrwt beam="2">  1       -2 0.10346177E+00 0.69073924E+03</pdfrwt>
<totfact> 0.15256963E+02</totfact>
</mgrwt>
</event>
<event>
 6    1  0.5026615E-004  0.1571151E+04  0.7818608E-02  0.8838470E-01
          2   -1    0    0  501    0  0.00000000000E+00  0.00000000000E+00  0.23047674046E+03  0.23047674046E+03  0.00000000000E+00 0.  1.
         -2   -1    0    0    0  501 -0.00000000000E+00 -0.00000000000E+00 -0.26776191986E+04  0.26776191986E+04  0.00000000000E+00 0. -1.
         23    2    1    2    0    0  0.14377154046E+01  0.70848362263E+03 -0.61053079712E+03  0.93957022068E+03  0.89962407649E+02 0.  0.
         11    1    3    3    0    0 -0.53990263574E+01  0.39353838481E+03 -0.28033055816E+03  0.48320475126E+03  0.00000000000E+00 0. -1.
        -11    1    3    3    0    0  0.68367417620E+01  0.31494523782E+03 -0.33020023897E+03  0.45636546941E+03  0.00000000000E+00 0.  1.
         22    1    1    2    0    0 -0.14377154046E+01 -0.70848362263E+03 -0.18366116610E+04  0.19685257184E+04  0.00000000000E+00 0. -1.
<mgrwt>
<rscale>  0 0.15711511E+04</rscale>
<asrwt>0</asrwt>
<pdfrwt beam="1">  1        2 0.35457960E-01 0.15711511E+04</pdfrwt>
<pdfrwt beam="2">  1       -2 0.41194141E+00 0.15711511E+04</pdfrwt>
<totfact> 0.88534081E-01</totfact>
</mgrwt>
</event>
<event>
 6    1  0.5026615E-004  0.2814719E+04  0.7818608E-02  0.8298713E-01
          2   -1    0    0  501    0  0.00000000000E+00  0.00000000000E+00  0.26707823396E+04  0.26707823396E+04  0.00000000000E+00 0.  1.
         -2   -1    0    0    0  501 -0.00000000000E+00 -0.00000000000E+00 -0.74160342157E+03  0.74160342157E+03  0.00000000000E+00 0. -1.
         23    2    1    2    0    0 -0.27261961789E+03 -0.12013869409E+04  0.17868333579E+04  0.21722590352E+04  0.91015544509E+02 0.  0.
         13    1    3    3    0    0 -0.10844276799E+02 -0.19848247163E+03  0.28950206160E+03  0.35117564488E+03  0.00000000000E+00 0. -1.
        -13    1    3    3    0    0 -0.26177534109E+03 -0.10029044693E+04  0.14973312963E+04  0.18210833903E+04  0.00000000000E+00 0.  1.
         22    1    1    2    0    0  0.27261961789E+03  0.12013869409E+04  0.14234556011E+03  0.12401267259E+04  0.00000000000E+00 0. -1.
<mgrwt>
<rscale>  0 0.28147194E+04</rscale>
<asrwt>0</asrwt>
<pdfrwt beam="1">  1        2 0.41088959E+00 0.28147194E+04</pdfrwt>
<pdfrwt beam="2">  1       -2 0.11409284E+00 0.28147194E+04</pdfrwt>
<totfact> 0.14436263E+00</totfact>
</mgrwt>
</event>
<event>
 6    1  0.5026615E-004  0.2274799E+04  0.7818608E-02  0.8487924E-01
          2   -1    0    0  501    0  0.00000000000E+00  0.00000000000E+00  0.99041744984E+03  0.99041744984E+03  0.00000000000E+00 0.  1.
         -2   -1    0    0    0  501 -0.00000000000E+00 -0.00000000000E+00 -0.13061947834E+04  0.13061947834E+04  0.00000000000E+00 0. -1.
         23    2    1    2    0    0 -0.78758090189E+03 -0.51978195879E+03  0.47968352436E+03  0.10624262917E+04  0.90533861666E+02 0.  0.
         11    1    3    3    0    0 -0.17353738476E+03 -0.71471586606E+02  0.92992847580E+02  0.20945424632E+03  0.00000000000E+00 0. -1.
        -11    1    3    3    0    0 -0.61404351714E+03 -0.44831037218E+03  0.38669067678E+03  0.85297204541E+03  0.00000000000E+00 0.  1.
         22    1    1    2    0    0  0.78758090189E+03  0.51978195879E+03 -0.79546085789E+03  0.12341859415E+04  0.00000000000E+00 0. -1.
<mgrwt>
<rscale>  0 0.22747994E+04</rscale>
<asrwt>0</asrwt>
<pdfrwt beam="1">  1        2 0.15237192E+00 0.22747994E+04</pdfrwt>
<pdfrwt beam="2">  1       -2 0.20095304E+00 0.22747994E+04</pdfrwt>
<totfact> 0.30422025E+00</totfact>
</mgrwt>
</event>
<event>
 6    1  0.5026615E-004  0.2403679E+04  0.7818608E-02  0.8438128E-01
         -2   -1    0    0    0  501 -0.00000000000E+00  0.00000000000E+00  0.12021934166E+04  0.12021934166E+04  0.00000000000E+00 0. -1.
          2   -1    0    0  501    0  0.00000000000E+00 -0.00000000000E+00 -0.12014852218E+04  0.12014852218E+04  0.00000000000E+00 0.  1.
         23    2    1    2    0    0 -0.12497312681E+03  0.11929919432E+04 -0.35329022480E+02  0.12036174983E+04  0.92730164808E+02 0.  0.
         13    1    3    3    0    0 -0.74022968508E+02  0.98910014032E+03 -0.98296735538E+01  0.99191487030E+03  0.00000000000E+00 0. -1.
        -13    1    3    3    0    0 -0.50950158302E+02  0.20389180286E+03 -0.25499348926E+02  0.21170262800E+03  0.00000000000E+00 0.  1.
         22    1    1    2    0    0  0.12497312681E+03 -0.11929919432E+04  0.36037217228E+02  0.12000611401E+04  0.00000000000E+00 0. -1.
<mgrwt>
<rscale>  0 0.24036785E+04</rscale>
<asrwt>0</asrwt>
<pdfrwt beam="1">  1        2 0.18484388E+00 0.24036785E+04</pdfrwt>
<pdfrwt beam="2">  1       -2 0.18495283E+00 0.24036785E+04</pdfrwt>
<totfact> 0.28491689E+00</totfact>
</mgrwt>
</event>
<event>
 6    1  0.5026615E-004  0.3075456E+04  0.7818608E-02  0.8222506E-01
          2   -1    0    0  501    0  0.00000000000E+00  0.00000000000E+00  0.24000411448E+04  0.24000411448E+04  0.00000000000E+00 0.  1.
         -2   -1    0    0    0  501 -0.00000000000E+00 -0.00000000000E+00 -0.98523595097E+03  0.98523595097E+03  0.00000000000E+00 0. -1.
         23    2    1    2    0    0  0.10003185028E+04 -0.10066045254E+04  0.60172500832E+02  0.14234107623E+04  0.92669793892E+02 0.  0.
         11    1    3    3    0    0  0.60132332243E+03 -0.54892739230E+03  0.11347888224E+02  0.81427255552E+03  0.00000000000E+00 0. -1.
        -11    1    3    3    0    0  0.39899518034E+03 -0.45767713312E+03  0.48824612607E+02  0.60913820674E+03  0.00000000000E+00 0.  1.
         22    1    1    2    0    0 -0.10003185028E+04  0.10066045254E+04  0.13546326930E+04  0.19618663335E+04  0.00000000000E+00 0.  1.
<mgrwt>
<rscale>  0 0.30754556E+04</rscale>
<asrwt>0</asrwt>
<pdfrwt beam="1">  1        2 0.36923710E+00 0.30754556E+04</pdfrwt>
<pdfrwt beam="2">  1       -2 0.15157476E+00 0.30754556E+04</pdfrwt>
<totfact> 0.98540195E-01</totfact>
</mgrwt>
</event>
<event>
 6    1  0.5026615E-004  0.5880937E+04  0.7818608E-02  0.7705342E-01
          2   -1    0    0  501    0  0.00000000000E+00  0.00000000000E+00  0.21441201443E+04  0.21441201443E+04  0.00000000000E+00 0.  1.
         -2   -1    0    0    0  501 -0.00000000000E+00 -0.00000000000E+00 -0.40325881877E+04  0.40325881877E+04  0.00000000000E+00 0. -1.
         23    2    1    2    0    0 -0.22426938702E+04 -0.14015492116E+04  0.40389449463E+03  0.26768594791E+04  0.91814596424E+02 0.  0.
         13    1    3    3    0    0 -0.17115014002E+04 -0.10534263845E+04  0.26961534990E+03  0.20277170975E+04  0.00000000000E+00 0.  1.
        -13    1    3    3    0    0 -0.53119246994E+03 -0.34812282706E+03  0.13427914473E+03  0.64914238157E+03  0.00000000000E+00 0. -1.
         22    1    1    2    0    0  0.22426938702E+04  0.14015492116E+04 -0.22923625380E+04  0.34998488530E+04  0.00000000000E+00 0. -1.
<mgrwt>
<rscale>  0 0.58809365E+04</rscale>
<asrwt>0</asrwt>
<pdfrwt beam="1">  1        2 0.32986464E+00 0.58809365E+04</pdfrwt>
<pdfrwt beam="2">  1       -2 0.62039818E+00 0.58809365E+04</pdfrwt>
<totfact> 0.16364620E-03</totfact>
</mgrwt>
</event>
<event>
 6    1  0.5026615E-004  0.1494953E+04  0.7818608E-02  0.8887816E-01
         -2   -1    0    0    0  501 -0.00000000000E+00  0.00000000000E+00  0.56198345117E+03  0.56198345117E+03  0.00000000000E+00 0. -1.
          2   -1    0    0  501    0  0.00000000000E+00 -0.00000000000E+00 -0.99419562327E+03  0.99419562327E+03  0.00000000000E+00 0.  1.
         23    2    1    2    0    0 -0.24602607352E+02  0.71138608853E+03  0.10948838648E+02  0.71768808660E+03  0.90999216122E+02 0.  0.
         13    1    3    3    0    0 -0.52862157477E+02  0.59703557879E+03  0.18488844914E+02  0.59965634110E+03  0.00000000000E+00 0. -1.
        -13    1    3    3    0    0  0.28259550125E+02  0.11435050974E+03 -0.75400062661E+01  0.11803174550E+03  0.00000000000E+00 0.  1.
         22    1    1    2    0    0  0.24602607352E+02 -0.71138608853E+03 -0.44316101075E+03  0.83849098784E+03  0.00000000000E+00 0.  1.
<mgrwt>
<rscale>  0 0.14949535E+04</rscale>
<asrwt>0</asrwt>
<pdfrwt beam="1">  1        2 0.15295317E+00 0.14949535E+04</pdfrwt>
<pdfrwt beam="2">  1       -2 0.86458993E-01 0.14949535E+04</pdfrwt>
<totfact> 0.28467614E+01</totfact>
</mgrwt>
</event>
<event>
 6    1  0.5026615E-004  0.3407408E+04  0.7818608E-02  0.8136091E-01
         -2   -1    0    0    0  501 -0.00000000000E+00  0.00000000000E+00  0.17480900501E+04  0.17480900501E+04  0.00000000000E+00 0. -1.
          2   -1    0    0  501    0  0.00000000000E+00 -0.00000000000E+00 -0.16604446528E+04  0.16604446528E+04  0.00000000000E+00 0.  1.
         23    2    1    2    0    0  0.14968843054E+04 -0.37553490616E+03 -0.67527249877E+03  0.16869851668E+04  0.90757456009E+02 0.  0.
         13    1    3    3    0    0  0.72587706363E+03 -0.20755224458E+03 -0.28865202716E+03  0.80826693518E+03  0.00000000000E+00 0.  1.
        -13    1    3    3    0    0  0.77100724176E+03 -0.16798266159E+03 -0.38662047161E+03  0.87871823158E+03  0.00000000000E+00 0. -1.
         22    1    1    2    0    0 -0.14968843054E+04  0.37553490616E+03  0.76291789606E+03  0.17215495362E+04  0.00000000000E+00 0. -1.
<mgrwt>
<rscale>  0 0.34074077E+04</rscale>
<asrwt>0</asrwt>
<pdfrwt beam="1">  1        2 0.25545302E+00 0.34074077E+04</pdfrwt>
<pdfrwt beam="2">  1       -2 0.26893693E+00 0.34074077E+04</pdfrwt>
<totfact> 0.42025530E-01</totfact>
</mgrwt>
</event>
<event>
 6    1  0.5026615E-004  0.3439677E+04  0.7818608E-02  0.8128236E-01
          2   -1    0    0  501    0  0.00000000000E+00  0.00000000000E+00  0.17412089766E+04  0.17412089766E+04  0.00000000000E+00 0.  1.
         -2   -1    0    0    0  501 -0.00000000000E+00 -0.00000000000E+00 -0.16987298939E+04  0.16987298939E+04  0.00000000000E+00 0. -1.
         23    2    1    2    0    0  0.46360127332E+03 -0.14787361867E+04 -0.72185648274E+03  0.17119933543E+04  0.90871408873E+02 0.  0.
         13    1    3    3    0    0  0.31553689401E+03 -0.85770600447E+03 -0.42976949825E+03  0.10099133345E+04  0.00000000000E+00 0. -1.
        -13    1    3    3    0    0  0.14806437931E+03 -0.62103018223E+03 -0.29208698449E+03  0.70208001978E+03  0.00000000000E+00 0.  1.
         22    1    1    2    0    0 -0.46360127332E+03  0.14787361867E+04  0.76433556549E+03  0.17279455163E+04  0.00000000000E+00 0.  1.
<mgrwt>
<rscale>  0 0.34396766E+04</rscale>
<asrwt>0</asrwt>
<pdfrwt beam="1">  1        2 0.26787830E+00 0.34396766E+04</pdfrwt>
<pdfrwt beam="2">  1       -2 0.26134306E+00 0.34396766E+04</pdfrwt>
<totfact> 0.42056887E-01</totfact>
</mgrwt>
</event>
<event>
 6    1  0.5026615E-004  0.3335575E+04  0.7818608E-02  0.8153902E-01
         -2   -1    0    0    0  501 -0.00000000000E+00  0.00000000000E+00  0.79104471993E+03  0.79104471993E+03  0.00000000000E+00 0.  1.
          2   -1    0    0  501    0  0.00000000000E+00 -0.00000000000E+00 -0.35162550350E+04  0.35162550350E+04  0.00000000000E+00 0. -1.
         23    2    1    2    0    0  0.10637822034E+04  0.71567461555E+03  0.11190044048E+02  0.12854278753E+04  0.91525263609E+02 0.  0.
         11    1    3    3    0    0  0.50863905597E+03  0.29809246685E+03 -0.22088639277E+02  0.58996670757E+03  0.00000000000E+00 0. -1.
        -11    1    3    3    0    0  0.55514314742E+03  0.41758214870E+03  0.33278683325E+02  0.69546116772E+03  0.00000000000E+00 0.  1.
         22    1    1    2    0    0 -0.10637822034E+04 -0.71567461555E+03 -0.27364003591E+04  0.30218718796E+04  0.00000000000E+00 0. -1.
<mgrwt>
<rscale>  0 0.33355749E+04</rscale>
<asrwt>0</asrwt>
<pdfrwt beam="1">  1        2 0.54096232E+00 0.33355749E+04</pdfrwt>
<pdfrwt beam="2">  1       -2 0.12169919E+00 0.33355749E+04</pdfrwt>
<totfact> 0.33762693E-01</totfact>
</mgrwt>
</event>
<event>
 6    1  0.5026615E-004  0.2201178E+04  0.7818608E-02  0.8517938E-01
         -2   -1    0    0    0  501 -0.00000000000E+00  0.00000000000E+00  0.49218412901E+03  0.49218412901E+03  0.00000000000E+00 0. -1.
          2   -1    0    0  501    0  0.00000000000E+00 -0.00000000000E+00 -0.24610640219E+04  0.24610640219E+04  0.00000000000E+00 0.  1.
         23    2    1    2    0    0 -0.79721942238E+03  0.53216463673E+03 -0.26551705150E+03  0.99871419689E+03  0.90403177069E+02 0.  0.
         11    1    3    3    0    0 -0.37657314549E+03  0.20716736530E+03 -0.91925496022E+02  0.43951785854E+03  0.00000000000E+00 0. -1.
        -11    1    3    3    0    0 -0.42064627689E+03  0.32499727143E+03 -0.17359155548E+03  0.55919633836E+03  0.00000000000E+00 0.  1.
         22    1    1    2    0    0  0.79721942238E+03 -0.53216463673E+03 -0.17033628414E+04  0.19545339540E+04  0.00000000000E+00 0.  1.
<mgrwt>
<rscale>  0 0.22011785E+04</rscale>
<asrwt>0</asrwt>
<pdfrwt beam="1">  1        2 0.37862523E+00 0.22011785E+04</pdfrwt>
<pdfrwt beam="2">  1       -2 0.75720635E-01 0.22011785E+04</pdfrwt>
<totfact> 0.52387182E+00</totfact>
</mgrwt>
</event>
<event>
 6    1  0.5026615E-004  0.3170182E+04  0.7818608E-02  0.8196737E-01
         -2   -1    0    0    0  501 -0.00000000000E+00  0.00000000000E+00  0.18037222442E+04  0.18037222442E+04  0.00000000000E+00 0. -1.
          2   -1    0    0  501    0  0.00000000000E+00 -0.00000000000E+00 -0.13929603850E+04  0.13929603850E+04  0.00000000000E+00 0.  1.
         23    2    1    2    0    0  0.29360921370E+03 -0.21731539523E+03 -0.13484443705E+04  0.13999525689E+04  0.90181059846E+02 0.  0.
         11    1    3    3    0    0  0.16525523005E+03 -0.16452127824E+03 -0.94332388484E+03  0.97171832017E+03  0.00000000000E+00 0. -1.
        -11    1    3    3    0    0  0.12835398365E+03 -0.52794116987E+02 -0.40512048563E+03  0.42823424873E+03  0.00000000000E+00 0.  1.
         22    1    1    2    0    0 -0.29360921370E+03  0.21731539523E+03  0.17592062296E+04  0.17967300604E+04  0.00000000000E+00 0. -1.
<mgrwt>
<rscale>  0 0.31701821E+04</rscale>
<asrwt>0</asrwt>
<pdfrwt beam="1">  1        2 0.21430160E+00 0.31701821E+04</pdfrwt>
<pdfrwt beam="2">  1       -2 0.27749573E+00 0.31701821E+04</pdfrwt>
<totfact> 0.53778148E-01</totfact>
</mgrwt>
</event>
<event>
 6    1  0.5026615E-004  0.3171040E+04  0.7818608E-02  0.8196508E-01
          2   -1    0    0  501    0  0.00000000000E+00  0.00000000000E+00  0.13772630631E+04  0.13772630631E+04  0.00000000000E+00 0.  1.
         -2   -1    0    0    0  501 -0.00000000000E+00 -0.00000000000E+00 -0.18252675287E+04  0.18252675287E+04  0.00000000000E+00 0. -1.
         23    2    1    2    0    0 -0.13434632219E+04 -0.76864463606E+03 -0.56529046571E+03  0.16502857622E+04  0.90453197899E+02 0.  0.
         11    1    3    3    0    0 -0.37541958994E+03 -0.25498197694E+03 -0.14241087098E+03  0.47564328361E+03  0.00000000000E+00 0. -1.
        -11    1    3    3    0    0 -0.96804363201E+03 -0.51366265912E+03 -0.42287959474E+03  0.11746424786E+04  0.00000000000E+00 0.  1.
         22    1    1    2    0    0  0.13434632219E+04  0.76864463606E+03  0.11728600011E+03  0.15522448296E+04  0.00000000000E+00 0. -1.
<mgrwt>
<rscale>  0 0.31710399E+04</rscale>
<asrwt>0</asrwt>
<pdfrwt beam="1">  1        2 0.21188662E+00 0.31710399E+04</pdfrwt>
<pdfrwt beam="2">  1       -2 0.28081039E+00 0.31710399E+04</pdfrwt>
<totfact> 0.52404449E-01</totfact>
</mgrwt>
</event>
<event>
 6    1  0.5026615E-004  0.7784018E+03  0.7818608E-02  0.9591817E-01
          2   -1    0    0  501    0  0.00000000000E+00  0.00000000000E+00  0.10372787645E+04  0.10372787645E+04  0.00000000000E+00 0.  1.
         -2   -1    0    0    0  501 -0.00000000000E+00 -0.00000000000E+00 -0.14603339275E+03  0.14603339275E+03  0.00000000000E+00 0. -1.
         23    2    1    2    0    0 -0.15850517430E+03  0.17086283657E+03  0.91509191739E+03  0.94903314207E+03  0.94618646521E+02 0.  0.
         13    1    3    3    0    0 -0.95838386572E+02  0.43916950990E+02  0.30412227790E+03  0.32187583761E+03  0.00000000000E+00 0. -1.
        -13    1    3    3    0    0 -0.62666787725E+02  0.12694588558E+03  0.61096963950E+03  0.62715730446E+03  0.00000000000E+00 0.  1.
         22    1    1    2    0    0  0.15850517430E+03 -0.17086283657E+03 -0.23846545675E+02  0.23427901515E+03  0.00000000000E+00 0. -1.
<mgrwt>
<rscale>  0 0.77840179E+03</rscale>
<asrwt>0</asrwt>
<pdfrwt beam="1">  1        2 0.15958134E+00 0.77840179E+03</pdfrwt>
<pdfrwt beam="2">  1       -2 0.22466677E-01 0.77840179E+03</pdfrwt>
<totfact> 0.41645760E+02</totfact>
</mgrwt>
</event>
<event>
 6    1  0.5026615E-004  0.3860467E+04  0.7818608E-02  0.8033302E-01
          2   -1    0    0  501    0  0.00000000000E+00  0.00000000000E+00  0.13469573209E+04  0.13469573209E+04  0.00000000000E+00 0.  1.
         -2   -1    0    0    0  501 -0.00000000000E+00 -0.00000000000E+00 -0.27660878821E+04  0.27660878821E+04  0.00000000000E+00 0. -1.
         23    2    1    2    0    0  0.28567855311E+03 -0.18641172640E+04 -0.27685696622E+03  0.19082018128E+04  0.89660297580E+02 0.  0.
         13    1    3    3    0    0  0.17023908689E+03 -0.90794965154E+03 -0.16851656753E+03  0.93901637364E+03  0.00000000000E+00 0. -1.
        -13    1    3    3    0    0  0.11543946623E+03 -0.95616761246E+03 -0.10834039869E+03  0.96918543915E+03  0.00000000000E+00 0.  1.
         22    1    1    2    0    0 -0.28567855311E+03  0.18641172640E+04 -0.11422735950E+04  0.22048433902E+04  0.00000000000E+00 0. -1.
<mgrwt>
<rscale>  0 0.38604675E+04</rscale>
<asrwt>0</asrwt>
<pdfrwt beam="1">  1        2 0.20722421E+00 0.38604675E+04</pdfrwt>
<pdfrwt beam="2">  1       -2 0.42555197E+00 0.38604675E+04</pdfrwt>
<totfact> 0.62374504E-02</totfact>
</mgrwt>
</event>
<event>
 6    1  0.5026615E-004  0.1478901E+04  0.7818608E-02  0.8898606E-01
         -2   -1    0    0    0  501 -0.00000000000E+00  0.00000000000E+00  0.60789562969E+03  0.60789562969E+03  0.00000000000E+00 0. -1.
          2   -1    0    0  501    0  0.00000000000E+00 -0.00000000000E+00 -0.89947509212E+03  0.89947509212E+03  0.00000000000E+00 0.  1.
         23    2    1    2    0    0  0.64675175589E+03 -0.34493348165E+03 -0.22132913261E+03  0.77102701854E+03  0.90714595730E+02 0.  0.
         11    1    3    3    0    0  0.62385471435E+03 -0.33321756994E+03 -0.19377313050E+03  0.73333258460E+03  0.00000000000E+00 0. -1.
        -11    1    3    3    0    0  0.22897041540E+02 -0.11715911710E+02 -0.27556002104E+02  0.37694433945E+02  0.00000000000E+00 0.  1.
         22    1    1    2    0    0 -0.64675175589E+03  0.34493348165E+03 -0.70250329825E+02  0.73634370327E+03  0.00000000000E+00 0. -1.
<mgrwt>
<rscale>  0 0.14789009E+04</rscale>
<asrwt>0</asrwt>
<pdfrwt beam="1">  1        2 0.13838078E+00 0.14789009E+04</pdfrwt>
<pdfrwt beam="2">  1       -2 0.93522405E-01 0.14789009E+04</pdfrwt>
<totfact> 0.27461021E+01</totfact>
</mgrwt>
</event>
<event>
 6    1  0.5026615E-004  0.4619163E+04  0.7818608E-02  0.7890101E-01
          2   -1    0    0  501    0  0.00000000000E+00  0.00000000000E+00  0.25680334174E+04  0.25680334174E+04  0.00000000000E+00 0.  1.
         -2   -1    0    0    0  501 -0.00000000000E+00 -0.00000000000E+00 -0.20771410974E+04  0.20771410974E+04  0.00000000000E+00 0. -1.
         23    2    1    2    0    0 -0.10291861078E+04  0.15705109461E+04  0.15962756290E+04  0.24662754955E+04  0.93221561645E+02 0.  0.
         11    1    3    3    0    0 -0.41417316266E+03  0.55230296563E+03  0.59998638979E+03  0.91463743770E+03  0.00000000000E+00 0.  1.
        -11    1    3    3    0    0 -0.61501294517E+03  0.10182079805E+04  0.99628923925E+03  0.15516380578E+04  0.00000000000E+00 0. -1.
         22    1    1    2    0    0  0.10291861078E+04 -0.15705109461E+04 -0.11053833090E+04  0.21788990193E+04  0.00000000000E+00 0. -1.
<mgrwt>
<rscale>  0 0.46191635E+04</rscale>
<asrwt>0</asrwt>
<pdfrwt beam="1">  1        2 0.39508206E+00 0.46191635E+04</pdfrwt>
<pdfrwt beam="2">  1       -2 0.31956017E+00 0.46191635E+04</pdfrwt>
<totfact> 0.57453340E-02</totfact>
</mgrwt>
</event>
<event>
 6    1  0.5026615E-004  0.2981685E+04  0.7818608E-02  0.8248980E-01
         -2   -1    0    0    0  501 -0.00000000000E+00  0.00000000000E+00  0.13709528446E+04  0.13709528446E+04  0.00000000000E+00 0. -1.
          2   -1    0    0  501    0  0.00000000000E+00 -0.00000000000E+00 -0.16212159702E+04  0.16212159702E+04  0.00000000000E+00 0.  1.
         23    2    1    2    0    0 -0.11120338332E+04  0.13403042772E+03 -0.11103829695E+04  0.15799402400E+04  0.93152676318E+02 0.  0.
         13    1    3    3    0    0 -0.39932923882E+03  0.88318145920E+01 -0.42551580484E+03  0.58361420655E+03  0.00000000000E+00 0. -1.
        -13    1    3    3    0    0 -0.71270459438E+03  0.12519861313E+03 -0.68486716468E+03  0.99632603340E+03  0.00000000000E+00 0.  1.
         22    1    1    2    0    0  0.11120338332E+04 -0.13403042772E+03  0.86011984396E+03  0.14122285749E+04  0.00000000000E+00 0. -1.
<mgrwt>
<rscale>  0 0.29816845E+04</rscale>
<asrwt>0</asrwt>
<pdfrwt beam="1">  1        2 0.24941784E+00 0.29816845E+04</pdfrwt>
<pdfrwt beam="2">  1       -2 0.21091582E+00 0.29816845E+04</pdfrwt>
<totfact> 0.10509902E+00</totfact>
</mgrwt>
</event>
<event>
 6    1  0.5026615E-004  0.4383377E+04  0.7818608E-02  0.7931378E-01
          2   -1    0    0  501    0  0.00000000000E+00  0.00000000000E+00  0.20424756186E+04  0.20424756186E+04  0.00000000000E+00 0.  1.
         -2   -1    0    0    0  501 -0.00000000000E+00 -0.00000000000E+00 -0.23518020263E+04  0.23518020263E+04  0.00000000000E+00 0. -1.
         23    2    1    2    0    0  0.11817066629E+03  0.59825574184E+03 -0.22642376999E+04  0.23464611493E+04  0.85048954160E+02 0.  0.
         11    1    3    3    0    0  0.13139599226E+03  0.52854641535E+03 -0.20183110169E+04  0.20905036668E+04  0.00000000000E+00 0. -1.
        -11    1    3    3    0    0 -0.13225325975E+02  0.69709326490E+02 -0.24592668301E+03  0.25595748253E+03  0.00000000000E+00 0.  1.
         22    1    1    2    0    0 -0.11817066629E+03 -0.59825574184E+03  0.19549112922E+04  0.20478164956E+04  0.00000000000E+00 0.  1.
<mgrwt>
<rscale>  0 0.43833769E+04</rscale>
<asrwt>0</asrwt>
<pdfrwt beam="1">  1        2 0.31422702E+00 0.43833769E+04</pdfrwt>
<pdfrwt beam="2">  1       -2 0.36181569E+00 0.43833769E+04</pdfrwt>
<totfact> 0.63362433E-02</totfact>
</mgrwt>
</event>
<event>
 6    1  0.5587380E-004  0.4926779E+04  0.7818608E-02  0.7839903E-01
          2   -1    0    0  501    0  0.00000000000E+00  0.00000000000E+00  0.23608802476E+04  0.23608802476E+04  0.00000000000E+00 0.  1.
         -2   -1    0    0    0  501 -0.00000000000E+00 -0.00000000000E+00 -0.25703494834E+04  0.25703494834E+04  0.00000000000E+00 0. -1.
         23    2    1    2    0    0  0.94930127136E+03  0.61720120754E+03  0.20839846338E+04  0.23734883668E+04  0.91350090911E+02 0.  0.
         13    1    3    3    0    0  0.16909529010E+03  0.13304068291E+03  0.46162023305E+03  0.50929979384E+03  0.00000000000E+00 0.  1.
        -13    1    3    3    0    0  0.78020598126E+03  0.48416052463E+03  0.16223644007E+04  0.18641885730E+04  0.00000000000E+00 0. -1.
         22    1    1    2    0    0 -0.94930127136E+03 -0.61720120754E+03 -0.22934538696E+04  0.25577413643E+04  0.00000000000E+00 0. -1.
<mgrwt>
<rscale>  0 0.49267788E+04</rscale>
<asrwt>0</asrwt>
<pdfrwt beam="1">  1        2 0.36321235E+00 0.49267788E+04</pdfrwt>
<pdfrwt beam="2">  1       -2 0.39543838E+00 0.49267788E+04</pdfrwt>
<totfact> 0.24380019E-02</totfact>
</mgrwt>
</event>
<event>
 6    1  0.5026615E-004  0.4002680E+04  0.7818608E-02  0.8004006E-01
          2   -1    0    0  501    0  0.00000000000E+00  0.00000000000E+00  0.23250873778E+04  0.23250873778E+04  0.00000000000E+00 0.  1.
         -2   -1    0    0    0  501 -0.00000000000E+00 -0.00000000000E+00 -0.17226718378E+04  0.17226718378E+04  0.00000000000E+00 0. -1.
         23    2    1    2    0    0 -0.54491092418E+03  0.17873091155E+04 -0.42086255136E+03  0.19173836990E+04  0.88505211447E+02 0.  0.
         13    1    3    3    0    0 -0.52523696586E+03  0.16435021886E+04 -0.39313595649E+03  0.17696127245E+04  0.00000000000E+00 0.  1.
        -13    1    3    3    0    0 -0.19673958312E+02  0.14380692687E+03 -0.27726594868E+02  0.14777097453E+03  0.00000000000E+00 0. -1.
         22    1    1    2    0    0  0.54491092418E+03 -0.17873091155E+04  0.10232780914E+04  0.21303755166E+04  0.00000000000E+00 0.  1.
<mgrwt>
<rscale>  0 0.40026804E+04</rscale>
<asrwt>0</asrwt>
<pdfrwt beam="1">  1        2 0.35770575E+00 0.40026804E+04</pdfrwt>
<pdfrwt beam="2">  1       -2 0.26502644E+00 0.40026804E+04</pdfrwt>
<totfact> 0.17987577E-01</totfact>
</mgrwt>
</event>
<event>
 6    1  0.5026615E-004  0.1429549E+04  0.7818608E-02  0.8932703E-01
         -2   -1    0    0    0  501 -0.00000000000E+00  0.00000000000E+00  0.54313867623E+03  0.54313867623E+03  0.00000000000E+00 0. -1.
          2   -1    0    0  501    0  0.00000000000E+00 -0.00000000000E+00 -0.94064858668E+03  0.94064858668E+03  0.00000000000E+00 0.  1.
         23    2    1    2    0    0 -0.21664408150E+03 -0.60364167984E+03  0.12134268408E+03  0.65884729508E+03  0.89653642257E+02 0.  0.
         11    1    3    3    0    0 -0.23123590450E+01 -0.72485720930E+02  0.31526117483E+02  0.79078586398E+02  0.00000000000E+00 0. -1.
        -11    1    3    3    0    0 -0.21433172245E+03 -0.53115595891E+03  0.89816566596E+02  0.57976870868E+03  0.00000000000E+00 0.  1.
         22    1    1    2    0    0  0.21664408150E+03  0.60364167984E+03 -0.51885259453E+03  0.82493996784E+03  0.00000000000E+00 0. -1.
<mgrwt>
<rscale>  0 0.14295491E+04</rscale>
<asrwt>0</asrwt>
<pdfrwt beam="1">  1        2 0.14471516E+00 0.14295491E+04</pdfrwt>
<pdfrwt beam="2">  1       -2 0.83559798E-01 0.14295491E+04</pdfrwt>
<totfact> 0.33514819E+01</totfact>
</mgrwt>
</event>
<event>
 6    1  0.5026615E-004  0.1480937E+04  0.7818608E-02  0.8897230E-01
          2   -1    0    0  501    0  0.00000000000E+00  0.00000000000E+00  0.22952175676E+04  0.22952175676E+04  0.00000000000E+00 0.  1.
         -2   -1    0    0    0  501 -0.00000000000E+00 -0.00000000000E+00 -0.23888509068E+03  0.23888509068E+03  0.00000000000E+00 0. -1.
         23    2    1    2    0    0  0.48155167887E+03  0.12665082898E+03  0.10106389223E+03  0.51642882682E+03  0.92479029840E+02 0.  0.
         11    1    3    3    0    0  0.34391191244E+03  0.76523654740E+02  0.29943376640E+02  0.35359281534E+03  0.00000000000E+00 0. -1.
        -11    1    3    3    0    0  0.13763976643E+03  0.50127174236E+02  0.71120515587E+02  0.16283601148E+03  0.00000000000E+00 0.  1.
         22    1    1    2    0    0 -0.48155167887E+03 -0.12665082898E+03  0.19552685847E+04  0.20176738315E+04  0.00000000000E+00 0.  1.
<mgrwt>
<rscale>  0 0.14809365E+04</rscale>
<asrwt>0</asrwt>
<pdfrwt beam="1">  1        2 0.35311038E+00 0.14809365E+04</pdfrwt>
<pdfrwt beam="2">  1       -2 0.36751554E-01 0.14809365E+04</pdfrwt>
<totfact> 0.30834262E+01</totfact>
</mgrwt>
</event>
<event>
 6    1  0.5026615E-004  0.2472027E+04  0.7818608E-02  0.8413019E-01
          2   -1    0    0  501    0  0.00000000000E+00  0.00000000000E+00  0.81307982340E+03  0.81307982340E+03  0.00000000000E+00 0. -1.
         -2   -1    0    0    0  501 -0.00000000000E+00 -0.00000000000E+00 -0.18789417329E+04  0.18789417329E+04  0.00000000000E+00 0.  1.
         23    2    1    2    0    0  0.91058961285E+03  0.71886915823E+03 -0.99324160333E+03  0.15296016586E+04  0.84888408028E+02 0.  0.
         13    1    3    3    0    0  0.62229668429E+03  0.44819898534E+03 -0.62645290754E+03  0.99024175790E+03  0.00000000000E+00 0. -1.
        -13    1    3    3    0    0  0.28829292856E+03  0.27067017289E+03 -0.36678869579E+03  0.53935990073E+03  0.00000000000E+00 0.  1.
         22    1    1    2    0    0 -0.91058961285E+03 -0.71886915823E+03 -0.72620306204E+02  0.11624198977E+04  0.00000000000E+00 0. -1.
<mgrwt>
<rscale>  0 0.24720272E+04</rscale>
<asrwt>0</asrwt>
<pdfrwt beam="1">  1        2 0.12508920E+00 0.24720272E+04</pdfrwt>
<pdfrwt beam="2">  1       -2 0.28906796E+00 0.24720272E+04</pdfrwt>
<totfact> 0.11171882E+00</totfact>
</mgrwt>
</event>
<event>
 6    1  0.5026615E-004  0.4992584E+04  0.7818608E-02  0.7829652E-01
         -2   -1    0    0    0  501 -0.00000000000E+00  0.00000000000E+00  0.16846288845E+04  0.16846288845E+04  0.00000000000E+00 0. -1.
          2   -1    0    0  501    0  0.00000000000E+00 -0.00000000000E+00 -0.36990185157E+04  0.36990185157E+04  0.00000000000E+00 0.  1.
         23    2    1    2    0    0 -0.23016900448E+03 -0.11023343275E+04 -0.34088840946E+04  0.35912374168E+04  0.91524168383E+02 0.  0.
         11    1    3    3    0    0 -0.85651726522E+02 -0.35950524211E+03 -0.12547564817E+04  0.13080497184E+04  0.00000000000E+00 0.  1.
        -11    1    3    3    0    0 -0.14451727796E+03 -0.74282908535E+03 -0.21541276129E+04  0.22831876984E+04  0.00000000000E+00 0. -1.
         22    1    1    2    0    0  0.23016900448E+03  0.11023343275E+04  0.13944944633E+04  0.17924099833E+04  0.00000000000E+00 0. -1.
<mgrwt>
<rscale>  0 0.49925839E+04</rscale>
<asrwt>0</asrwt>
<pdfrwt beam="1">  1        2 0.56907976E+00 0.49925839E+04</pdfrwt>
<pdfrwt beam="2">  1       -2 0.25917368E+00 0.49925839E+04</pdfrwt>
<totfact> 0.23971903E-02</totfact>
</mgrwt>
</event>
<event>
 6    1  0.5026615E-004  0.4748684E+04  0.7818608E-02  0.7868489E-01
          2   -1    0    0  501    0  0.00000000000E+00  0.00000000000E+00  0.23992240541E+04  0.23992240541E+04  0.00000000000E+00 0.  1.
         -2   -1    0    0    0  501 -0.00000000000E+00 -0.00000000000E+00 -0.23497182232E+04  0.23497182232E+04  0.00000000000E+00 0. -1.
         23    2    1    2    0    0  0.21939795985E+04  0.86142339931E+03 -0.25493571484E+03  0.23723309489E+04  0.85820513944E+02 0.  0.
         13    1    3    3    0    0  0.13029552279E+04  0.54599875437E+03 -0.12532065473E+03  0.14182779108E+04  0.00000000000E+00 0.  1.
        -13    1    3    3    0    0  0.89102437062E+03  0.31542464495E+03 -0.12961506011E+03  0.95405303809E+03  0.00000000000E+00 0. -1.
         22    1    1    2    0    0 -0.21939795985E+04 -0.86142339931E+03  0.30444154574E+03  0.23766113284E+04  0.00000000000E+00 0. -1.
<mgrwt>
<rscale>  0 0.47486842E+04</rscale>
<asrwt>0</asrwt>
<pdfrwt beam="1">  1        2 0.36911139E+00 0.47486842E+04</pdfrwt>
<pdfrwt beam="2">  1       -2 0.36149511E+00 0.47486842E+04</pdfrwt>
<totfact> 0.38887900E-02</totfact>
</mgrwt>
</event>
<event>
 6    1  0.5026615E-004  0.1942508E+04  0.7818608E-02  0.8633982E-01
          2   -1    0    0  501    0  0.00000000000E+00  0.00000000000E+00  0.17922897914E+04  0.17922897914E+04  0.00000000000E+00 0.  1.
         -2   -1    0    0    0  501 -0.00000000000E+00 -0.00000000000E+00 -0.52632936178E+03  0.52632936178E+03  0.00000000000E+00 0. -1.
         23    2    1    2    0    0 -0.16807136234E+03  0.37708342910E+03 -0.41217957956E+03  0.59044271955E+03  0.91053302689E+02 0.  0.
         11    1    3    3    0    0 -0.52579928666E+02  0.16955920193E+03 -0.12171088669E+03  0.21524059049E+03  0.00000000000E+00 0. -1.
        -11    1    3    3    0    0 -0.11549143367E+03  0.20752422717E+03 -0.29046869287E+03  0.37520212906E+03  0.00000000000E+00 0.  1.
         22    1    1    2    0    0  0.16807136234E+03 -0.37708342910E+03  0.16781400091E+04  0.17281764336E+04  0.00000000000E+00 0.  1.
<mgrwt>
<rscale>  0 0.19425084E+04</rscale>
<asrwt>0</asrwt>
<pdfrwt beam="1">  1        2 0.27573689E+00 0.19425084E+04</pdfrwt>
<pdfrwt beam="2">  1       -2 0.80973749E-01 0.19425084E+04</pdfrwt>
<totfact> 0.10939916E+01</totfact>
</mgrwt>
</event>
<event>
 6    1  0.6431134E-004  0.3904366E+04  0.7818608E-02  0.8024122E-01
          2   -1    0    0  501    0  0.00000000000E+00  0.00000000000E+00  0.16117487812E+04  0.16117487812E+04  0.00000000000E+00 0.  1.
         -2   -1    0    0    0  501 -0.00000000000E+00 -0.00000000000E+00 -0.23645240405E+04  0.23645240405E+04  0.00000000000E+00 0. -1.
         23    2    1    2    0    0 -0.14136186399E+04  0.40575923396E+03 -0.16812311411E+04  0.22370234033E+04  0.12156209133E+03 0.  0.
         13    1    3    3    0    0 -0.94524285286E+03  0.28364420527E+03 -0.12108633354E+04  0.15620909394E+04  0.00000000000E+00 0.  1.
        -13    1    3    3    0    0 -0.46837578705E+03  0.12211502869E+03 -0.47036780568E+03  0.67493246384E+03  0.00000000000E+00 0. -1.
         22    1    1    2    0    0  0.14136186399E+04 -0.40575923396E+03  0.92845588180E+03  0.17392494184E+04  0.00000000000E+00 0.  1.
<mgrwt>
<rscale>  0 0.39043661E+04</rscale>
<asrwt>0</asrwt>
<pdfrwt beam="1">  1        2 0.24796135E+00 0.39043661E+04</pdfrwt>
<pdfrwt beam="2">  1       -2 0.36377292E+00 0.39043661E+04</pdfrwt>
<totfact> 0.11106652E-01</totfact>
</mgrwt>
</event>
<event>
 6    1  0.5026615E-004  0.1845969E+04  0.7818608E-02  0.8682229E-01
          2   -1    0    0  501    0  0.00000000000E+00  0.00000000000E+00  0.12869869978E+04  0.12869869978E+04  0.00000000000E+00 0.  1.
         -2   -1    0    0    0  501 -0.00000000000E+00 -0.00000000000E+00 -0.66193372218E+03  0.66193372218E+03  0.00000000000E+00 0. -1.
         23    2    1    2    0    0  0.42836019383E+03 -0.18595587757E+03  0.11512928552E+04  0.12453582570E+04  0.85848155521E+02 0.  0.
         13    1    3    3    0    0  0.95626758516E+02 -0.57043116318E+02  0.19344631290E+03  0.22320365149E+03  0.00000000000E+00 0.  1.
        -13    1    3    3    0    0  0.33273343531E+03 -0.12891276125E+03  0.95784654233E+03  0.10221546055E+04  0.00000000000E+00 0. -1.
         22    1    1    2    0    0 -0.42836019383E+03  0.18595587757E+03 -0.52623957963E+03  0.70356246292E+03  0.00000000000E+00 0. -1.
<mgrwt>
<rscale>  0 0.18459687E+04</rscale>
<asrwt>0</asrwt>
<pdfrwt beam="1">  1        2 0.19799800E+00 0.18459687E+04</pdfrwt>
<pdfrwt beam="2">  1       -2 0.10183596E+00 0.18459687E+04</pdfrwt>
<totfact> 0.12518841E+01</totfact>
</mgrwt>
</event>
<event>
 6    1  0.5026615E-004  0.2974294E+04  0.7818608E-02  0.8251110E-01
         -2   -1    0    0    0  501 -0.00000000000E+00  0.00000000000E+00  0.10058847164E+04  0.10058847164E+04  0.00000000000E+00 0. -1.
          2   -1    0    0  501    0  0.00000000000E+00 -0.00000000000E+00 -0.21986680604E+04  0.21986680604E+04  0.00000000000E+00 0.  1.
         23    2    1    2    0    0  0.53862638452E+03 -0.77228678977E+03  0.64147133909E+03  0.11427488312E+04  0.88567175247E+02 0.  0.
         13    1    3    3    0    0  0.75727999197E+02 -0.15341381946E+03  0.89881175850E+02  0.19325929638E+03  0.00000000000E+00 0.  1.
        -13    1    3    3    0    0  0.46289838533E+03 -0.61887297031E+03  0.55159016324E+03  0.94948953481E+03  0.00000000000E+00 0. -1.
         22    1    1    2    0    0 -0.53862638452E+03  0.77228678977E+03 -0.18342546831E+04  0.20618039456E+04  0.00000000000E+00 0.  1.
<mgrwt>
<rscale>  0 0.29742943E+04</rscale>
<asrwt>0</asrwt>
<pdfrwt beam="1">  1        2 0.33825662E+00 0.29742943E+04</pdfrwt>
<pdfrwt beam="2">  1       -2 0.15475150E+00 0.29742943E+04</pdfrwt>
<totfact> 0.12233749E+00</totfact>
</mgrwt>
</event>
<event>
 6    1  0.5026615E-004  0.3252784E+04  0.7818608E-02  0.8175015E-01
         -1   -1    0    0    0  501 -0.00000000000E+00  0.00000000000E+00  0.10648119351E+04  0.10648119351E+04  0.00000000000E+00 0. -1.
          1   -1    0    0  501    0  0.00000000000E+00 -0.00000000000E+00 -0.24841479915E+04  0.24841479915E+04  0.00000000000E+00 0.  1.
         23    2    1    2    0    0 -0.15370246290E+04  0.48486279552E+03 -0.93624758491E+03  0.18664287643E+04  0.97263308677E+02 0.  0.
         11    1    3    3    0    0 -0.48422305256E+03  0.11545829753E+03 -0.25736933886E+03  0.56039411104E+03  0.00000000000E+00 0. -1.
        -11    1    3    3    0    0 -0.10528015765E+04  0.36940449799E+03 -0.67887824605E+03  0.13060346533E+04  0.00000000000E+00 0.  1.
         22    1    1    2    0    0  0.15370246290E+04 -0.48486279552E+03 -0.48308847150E+03  0.16825311623E+04  0.00000000000E+00 0. -1.
<mgrwt>
<rscale>  0 0.32527837E+04</rscale>
<asrwt>0</asrwt>
<pdfrwt beam="1">  1        1 0.38217661E+00 0.32527837E+04</pdfrwt>
<pdfrwt beam="2">  1       -1 0.16381722E+00 0.32527837E+04</pdfrwt>
<totfact> 0.31644040E-01</totfact>
</mgrwt>
</event>
<event>
 6    1  0.5026615E-004  0.1326570E+04  0.7818608E-02  0.9008756E-01
         -2   -1    0    0    0  501 -0.00000000000E+00  0.00000000000E+00  0.25127216455E+03  0.25127216455E+03  0.00000000000E+00 0. -1.
          2   -1    0    0  501    0  0.00000000000E+00 -0.00000000000E+00 -0.17508777028E+04  0.17508777028E+04  0.00000000000E+00 0.  1.
         23    2    1    2    0    0 -0.57440455788E+03 -0.15452155526E+03 -0.32111640430E+03  0.68205360343E+03  0.90905806680E+02 0.  0.
         11    1    3    3    0    0 -0.95756168974E+02 -0.11747225925E+01 -0.26105768057E+02  0.99257921576E+02  0.00000000000E+00 0. -1.
        -11    1    3    3    0    0 -0.47864838891E+03 -0.15334683267E+03 -0.29501063624E+03  0.58279568186E+03  0.00000000000E+00 0.  1.
         22    1    1    2    0    0  0.57440455788E+03  0.15452155526E+03 -0.11784891339E+04  0.13200962639E+04  0.00000000000E+00 0.  1.
<mgrwt>
<rscale>  0 0.13265698E+04</rscale>
<asrwt>0</asrwt>
<pdfrwt beam="1">  1        2 0.26936579E+00 0.13265698E+04</pdfrwt>
<pdfrwt beam="2">  1       -2 0.38657257E-01 0.13265698E+04</pdfrwt>
<totfact> 0.56833737E+01</totfact>
</mgrwt>
</event>
<event>
 6    1  0.5026615E-004  0.3367044E+04  0.7818608E-02  0.8146043E-01
          2   -1    0    0  501    0  0.00000000000E+00  0.00000000000E+00  0.18677581717E+04  0.18677581717E+04  0.00000000000E+00 0.  1.
         -2   -1    0    0    0  501 -0.00000000000E+00 -0.00000000000E+00 -0.15174587884E+04  0.15174587884E+04  0.00000000000E+00 0. -1.
         23    2    1    2    0    0  0.45190532214E+03 -0.53439183695E+03 -0.13627151598E+04  0.15347543475E+04  0.93194661026E+02 0.  0.
         11    1    3    3    0    0  0.32958753890E+03 -0.42473745219E+03 -0.96909526112E+03  0.11082307856E+04  0.00000000000E+00 0. -1.
        -11    1    3    3    0    0  0.12231778324E+03 -0.10965438476E+03 -0.39361989869E+03  0.42652356188E+03  0.00000000000E+00 0.  1.
         22    1    1    2    0    0 -0.45190532214E+03  0.53439183695E+03  0.17130145431E+04  0.18504626125E+04  0.00000000000E+00 0.  1.
<mgrwt>
<rscale>  0 0.33670438E+04</rscale>
<asrwt>0</asrwt>
<pdfrwt beam="1">  1        2 0.28734741E+00 0.33670438E+04</pdfrwt>
<pdfrwt beam="2">  1       -2 0.23345520E+00 0.33670438E+04</pdfrwt>
<totfact> 0.53475495E-01</totfact>
</mgrwt>
</event>
<event>
 6    1  0.5026615E-004  0.4132747E+04  0.7818608E-02  0.7978290E-01
         -2   -1    0    0    0  501 -0.00000000000E+00  0.00000000000E+00  0.28558900398E+04  0.28558900398E+04  0.00000000000E+00 0. -1.
          2   -1    0    0  501    0  0.00000000000E+00 -0.00000000000E+00 -0.14951202433E+04  0.14951202433E+04  0.00000000000E+00 0.  1.
         23    2    1    2    0    0 -0.29468587315E+03  0.52302396531E+03  0.27612708253E+04  0.28272658938E+04  0.91771625692E+02 0.  0.
         13    1    3    3    0    0 -0.66519348377E+02  0.20607876116E+03  0.94856260364E+03  0.97296674791E+03  0.00000000000E+00 0. -1.
        -13    1    3    3    0    0 -0.22816652477E+03  0.31694520415E+03  0.18127082217E+04  0.18542991459E+04  0.00000000000E+00 0.  1.
         22    1    1    2    0    0  0.29468587315E+03 -0.52302396531E+03 -0.14005010288E+04  0.15237443893E+04  0.00000000000E+00 0.  1.
<mgrwt>
<rscale>  0 0.41327468E+04</rscale>
<asrwt>0</asrwt>
<pdfrwt beam="1">  1        2 0.23001850E+00 0.41327468E+04</pdfrwt>
<pdfrwt beam="2">  1       -2 0.43936770E+00 0.41327468E+04</pdfrwt>
<totfact> 0.40697616E-02</totfact>
</mgrwt>
</event>
<event>
 6    1  0.5026615E-004  0.3063405E+04  0.7818608E-02  0.8225853E-01
         -2   -1    0    0    0  501 -0.00000000000E+00  0.00000000000E+00  0.78079211678E+03  0.78079211678E+03  0.00000000000E+00 0. -1.
          2   -1    0    0  501    0  0.00000000000E+00 -0.00000000000E+00 -0.30047853192E+04  0.30047853192E+04  0.00000000000E+00 0.  1.
         23    2    1    2    0    0 -0.14929874495E+04  0.33407824924E+03 -0.11624204896E+04  0.19234398403E+04  0.88202174030E+02 0.  0.
         13    1    3    3    0    0 -0.48121078268E+03  0.12386249548E+03 -0.42593417933E+03  0.65446593515E+03  0.00000000000E+00 0.  1.
        -13    1    3    3    0    0 -0.10117766668E+04  0.21021575376E+03 -0.73648631032E+03  0.12689739051E+04  0.00000000000E+00 0. -1.
         22    1    1    2    0    0  0.14929874495E+04 -0.33407824924E+03 -0.10615727128E+04  0.18621375957E+04  0.00000000000E+00 0.  1.
<mgrwt>
<rscale>  0 0.30634051E+04</rscale>
<asrwt>0</asrwt>
<pdfrwt beam="1">  1        2 0.46227465E+00 0.30634051E+04</pdfrwt>
<pdfrwt beam="2">  1       -2 0.12012187E+00 0.30634051E+04</pdfrwt>
<totfact> 0.77942819E-01</totfact>
</mgrwt>
</event>
<event>
 6    1  0.5026615E-004  0.1659478E+04  0.7818608E-02  0.8784819E-01
          1   -1    0    0  501    0  0.00000000000E+00  0.00000000000E+00  0.12532974184E+04  0.12532974184E+04  0.00000000000E+00 0.  1.
         -1   -1    0    0    0  501 -0.00000000000E+00 -0.00000000000E+00 -0.54932457828E+03  0.54932457828E+03  0.00000000000E+00 0. -1.
         23    2    1    2    0    0  0.36529973674E+03 -0.19607415674E+03  0.11306628943E+04  0.12076821888E+04  0.90601964756E+02 0.  0.
         11    1    3    3    0    0  0.77104444505E+02 -0.69867045495E+02  0.20288600808E+03  0.22801147270E+03  0.00000000000E+00 0. -1.
        -11    1    3    3    0    0  0.28819529223E+03 -0.12620711124E+03  0.92777688627E+03  0.97967071615E+03  0.00000000000E+00 0.  1.
         22    1    1    2    0    0 -0.36529973674E+03  0.19607415674E+03 -0.42669005420E+03  0.59493980784E+03  0.00000000000E+00 0. -1.
<mgrwt>
<rscale>  0 0.16594783E+04</rscale>
<asrwt>0</asrwt>
<pdfrwt beam="1">  1        1 0.19281499E+00 0.16594783E+04</pdfrwt>
<pdfrwt beam="2">  1       -1 0.84511474E-01 0.16594783E+04</pdfrwt>
<totfact> 0.12937508E+01</totfact>
</mgrwt>
</event>
<event>
 6    1  0.5026615E-004  0.5290222E+03  0.7818608E-02  0.1006470E+00
         -2   -1    0    0    0  501 -0.00000000000E+00  0.00000000000E+00  0.23974919485E+02  0.23974919485E+02  0.00000000000E+00 0. -1.
          2   -1    0    0  501    0  0.00000000000E+00 -0.00000000000E+00 -0.29183050077E+04  0.29183050077E+04  0.00000000000E+00 0.  1.
         23    2    1    2    0    0 -0.18286271440E+03  0.16910772612E+03 -0.18322683775E+04  0.18514035489E+04  0.91932030893E+02 0.  0.
         11    1    3    3    0    0  0.30172951260E+01  0.35733552456E+02 -0.20158171727E+03  0.20474662287E+03  0.00000000000E+00 0. -1.
        -11    1    3    3    0    0 -0.18588000953E+03  0.13337417367E+03 -0.16306866602E+04  0.16466569260E+04  0.00000000000E+00 0.  1.
         22    1    1    2    0    0  0.18286271440E+03 -0.16910772612E+03 -0.10620617107E+04  0.10908763783E+04  0.00000000000E+00 0.  1.
<mgrwt>
<rscale>  0 0.52902222E+03</rscale>
<asrwt>0</asrwt>
<pdfrwt beam="1">  1        2 0.44897010E+00 0.52902222E+03</pdfrwt>
<pdfrwt beam="2">  1       -2 0.36884484E-02 0.52902222E+03</pdfrwt>
<totfact> 0.69556602E+02</totfact>
</mgrwt>
</event>
<event>
 6    1  0.5026615E-004  0.2614893E+04  0.7818608E-02  0.8363160E-01
         -2   -1    0    0    0  501 -0.00000000000E+00  0.00000000000E+00  0.85230567286E+03  0.85230567286E+03  0.00000000000E+00 0. -1.
          2   -1    0    0  501    0  0.00000000000E+00 -0.00000000000E+00 -0.20056374186E+04  0.20056374186E+04  0.00000000000E+00 0.  1.
         23    2    1    2    0    0  0.30438227218E+03  0.42907296847E+03  0.72894025078E+03  0.90353779859E+03  0.90964192912E+02 0.  0.
         11    1    3    3    0    0  0.16001619836E+03  0.28782172536E+03  0.40779375255E+03  0.52415863433E+03  0.00000000000E+00 0. -1.
        -11    1    3    3    0    0  0.14436607382E+03  0.14125124311E+03  0.32114649823E+03  0.37937916426E+03  0.00000000000E+00 0.  1.
         22    1    1    2    0    0 -0.30438227218E+03 -0.42907296847E+03 -0.18822719966E+04  0.19544052929E+04  0.00000000000E+00 0.  1.
<mgrwt>
<rscale>  0 0.26148928E+04</rscale>
<asrwt>0</asrwt>
<pdfrwt beam="1">  1        2 0.30855960E+00 0.26148928E+04</pdfrwt>
<pdfrwt beam="2">  1       -2 0.13112395E+00 0.26148928E+04</pdfrwt>
<totfact> 0.24901788E+00</totfact>
</mgrwt>
</event>
<event>
 6    1  0.5026615E-004  0.1632076E+04  0.7818608E-02  0.8801082E-01
          2   -1    0    0  501    0  0.00000000000E+00  0.00000000000E+00  0.98050147086E+03  0.98050147086E+03  0.00000000000E+00 0.  1.
         -2   -1    0    0    0  501 -0.00000000000E+00 -0.00000000000E+00 -0.67916031339E+03  0.67916031339E+03  0.00000000000E+00 0. -1.
         23    2    1    2    0    0  0.61212247104E+03 -0.53196774527E+03  0.86565946296E+02  0.82072674929E+03  0.91734030636E+02 0.  0.
         11    1    3    3    0    0  0.38712544806E+03 -0.39187959058E+03  0.68036914849E+02  0.55503580770E+03  0.00000000000E+00 0. -1.
        -11    1    3    3    0    0  0.22499702298E+03 -0.14008815469E+03  0.18529031447E+02  0.26569094158E+03  0.00000000000E+00 0.  1.
         22    1    1    2    0    0 -0.61212247104E+03  0.53196774527E+03  0.21477521117E+03  0.83893503497E+03  0.00000000000E+00 0.  1.
<mgrwt>
<rscale>  0 0.16320756E+04</rscale>
<asrwt>0</asrwt>
<pdfrwt beam="1">  1        2 0.15084638E+00 0.16320756E+04</pdfrwt>
<pdfrwt beam="2">  1       -2 0.10448620E+00 0.16320756E+04</pdfrwt>
<totfact> 0.18452419E+01</totfact>
</mgrwt>
</event>
<event>
 6    1  0.5026615E-004  0.4940452E+04  0.7818608E-02  0.7837759E-01
         -2   -1    0    0    0  501 -0.00000000000E+00  0.00000000000E+00  0.39288468072E+04  0.39288468072E+04  0.00000000000E+00 0. -1.
          2   -1    0    0  501    0  0.00000000000E+00 -0.00000000000E+00 -0.15531316453E+04  0.15531316453E+04  0.00000000000E+00 0.  1.
         23    2    1    2    0    0 -0.15853437619E+04 -0.16978999022E+04  0.21179982933E+04  0.31447585430E+04  0.86084855488E+02 0.  0.
         13    1    3    3    0    0 -0.12057041520E+04 -0.12419402581E+04  0.15548263561E+04  0.23267193867E+04  0.00000000000E+00 0.  1.
        -13    1    3    3    0    0 -0.37963960984E+03 -0.45595964407E+03  0.56317193721E+03  0.81803915630E+03  0.00000000000E+00 0. -1.
         22    1    1    2    0    0  0.15853437619E+04  0.16978999022E+04  0.25771686865E+03  0.23372199095E+04  0.00000000000E+00 0.  1.
<mgrwt>
<rscale>  0 0.49404519E+04</rscale>
<asrwt>0</asrwt>
<pdfrwt beam="1">  1        2 0.23894333E+00 0.49404519E+04</pdfrwt>
<pdfrwt beam="2">  1       -2 0.60443797E+00 0.49404519E+04</pdfrwt>
<totfact> 0.42690894E-03</totfact>
</mgrwt>
</event>
<event>
 6    1  0.5026615E-004  0.4277521E+04  0.7818608E-02  0.7950788E-01
          4   -1    0    0  501    0  0.00000000000E+00  0.00000000000E+00  0.23503346975E+04  0.23503346975E+04  0.00000000000E+00 0.  1.
         -4   -1    0    0    0  501 -0.00000000000E+00 -0.00000000000E+00 -0.19462320921E+04  0.19462320921E+04  0.00000000000E+00 0. -1.
         23    2    1    2    0    0  0.98448570385E+03 -0.17467109233E+04 -0.54191465008E+03  0.20795508226E+04  0.10319391951E+03 0.  0.
         11    1    3    3    0    0  0.41907792287E+03 -0.77662798624E+03 -0.28887946436E+03  0.92856269545E+03  0.00000000000E+00 0. -1.
        -11    1    3    3    0    0  0.56540778098E+03 -0.97008293704E+03 -0.25303518572E+03  0.11509881271E+04  0.00000000000E+00 0.  1.
         22    1    1    2    0    0 -0.98448570385E+03  0.17467109233E+04  0.94601725544E+03  0.22170159671E+04  0.00000000000E+00 0.  1.
<mgrwt>
<rscale>  0 0.42775212E+04</rscale>
<asrwt>0</asrwt>
<pdfrwt beam="1">  1        4 0.36158996E+00 0.42775212E+04</pdfrwt>
<pdfrwt beam="2">  1       -4 0.29942032E+00 0.42775212E+04</pdfrwt>
<totfact> 0.58220132E-04</totfact>
</mgrwt>
</event>
<event>
 6    1  0.5026615E-004  0.2512171E+04  0.7818608E-02  0.8398662E-01
          2   -1    0    0  501    0  0.00000000000E+00  0.00000000000E+00  0.31987702052E+04  0.31987702052E+04  0.00000000000E+00 0.  1.
         -2   -1    0    0    0  501 -0.00000000000E+00 -0.00000000000E+00 -0.49323684921E+03  0.49323684921E+03  0.00000000000E+00 0. -1.
         23    2    1    2    0    0 -0.74218891781E+03  0.13500043962E+02 -0.13220066279E+03  0.75879021922E+03  0.85199416902E+02 0.  0.
         13    1    3    3    0    0 -0.85626086691E+02  0.88380141881E+01 -0.42858514142E+02  0.96160228011E+02  0.00000000000E+00 0.  1.
        -13    1    3    3    0    0 -0.65656283112E+03  0.46620297742E+01 -0.89342148651E+02  0.66262999121E+03  0.00000000000E+00 0. -1.
         22    1    1    2    0    0  0.74218891781E+03 -0.13500043962E+02  0.28377340188E+04  0.29332168352E+04  0.00000000000E+00 0.  1.
<mgrwt>
<rscale>  0 0.25121714E+04</rscale>
<asrwt>0</asrwt>
<pdfrwt beam="1">  1        2 0.49211848E+00 0.25121714E+04</pdfrwt>
<pdfrwt beam="2">  1       -2 0.75882594E-01 0.25121714E+04</pdfrwt>
<totfact> 0.18017635E+00</totfact>
</mgrwt>
</event>
<event>
 6    1  0.5026615E-004  0.1264616E+04  0.7818608E-02  0.9058105E-01
         -2   -1    0    0    0  501 -0.00000000000E+00  0.00000000000E+00  0.81557494782E+03  0.81557494782E+03  0.00000000000E+00 0. -1.
          2   -1    0    0  501    0  0.00000000000E+00 -0.00000000000E+00 -0.49022267294E+03  0.49022267294E+03  0.00000000000E+00 0.  1.
         23    2    1    2    0    0  0.48840095501E+03 -0.16943954377E+03 -0.20646483401E+03  0.56412741833E+03  0.91470020084E+02 0.  0.
         11    1    3    3    0    0  0.43029602685E+03 -0.11716744968E+03 -0.16387158257E+03  0.47511764602E+03  0.00000000000E+00 0.  1.
        -11    1    3    3    0    0  0.58104928166E+02 -0.52272094094E+02 -0.42593251439E+02  0.89009772308E+02  0.00000000000E+00 0. -1.
         22    1    1    2    0    0 -0.48840095501E+03  0.16943954377E+03  0.53181710889E+03  0.74167020242E+03  0.00000000000E+00 0. -1.
<mgrwt>
<rscale>  0 0.12646159E+04</rscale>
<asrwt>0</asrwt>
<pdfrwt beam="1">  1        2 0.75418873E-01 0.12646159E+04</pdfrwt>
<pdfrwt beam="2">  1       -2 0.12547307E+00 0.12646159E+04</pdfrwt>
<totfact> 0.29391397E+01</totfact>
</mgrwt>
</event>
<event>
 6    1  0.5026615E-004  0.2802590E+04  0.7818608E-02  0.8302465E-01
         -2   -1    0    0    0  501 -0.00000000000E+00  0.00000000000E+00  0.27654701318E+04  0.27654701318E+04  0.00000000000E+00 0. -1.
          2   -1    0    0  501    0  0.00000000000E+00 -0.00000000000E+00 -0.71005184148E+03  0.71005184148E+03  0.00000000000E+00 0.  1.
         23    2    1    2    0    0  0.31880563613E+02 -0.13099660131E+04  0.16395948025E+04  0.21007723601E+04  0.89140713101E+02 0.  0.
         13    1    3    3    0    0  0.29915404181E+02 -0.97633506385E+03  0.12817184099E+04  0.16114984240E+04  0.00000000000E+00 0.  1.
        -13    1    3    3    0    0  0.19651594322E+01 -0.33363094929E+03  0.35787639263E+03  0.48927393613E+03  0.00000000000E+00 0. -1.
         22    1    1    2    0    0 -0.31880563613E+02  0.13099660131E+04  0.41582348784E+03  0.13747496132E+04  0.00000000000E+00 0. -1.
<mgrwt>
<rscale>  0 0.28025896E+04</rscale>
<asrwt>0</asrwt>
<pdfrwt beam="1">  1        2 0.10923875E+00 0.28025896E+04</pdfrwt>
<pdfrwt beam="2">  1       -2 0.42545694E+00 0.28025896E+04</pdfrwt>
<totfact> 0.17648688E-01</totfact>
</mgrwt>
</event>
<event>
 6    1  0.5026615E-004  0.1998761E+04  0.7818608E-02  0.8607200E-01
         -2   -1    0    0    0  501 -0.00000000000E+00  0.00000000000E+00  0.47532383067E+03  0.47532383067E+03  0.00000000000E+00 0. -1.
          2   -1    0    0  501    0  0.00000000000E+00 -0.00000000000E+00 -0.21012229632E+04  0.21012229632E+04  0.00000000000E+00 0.  1.
         23    2    1    2    0    0  0.40833301286E+03  0.43217466798E+03  0.21751000177E+03  0.63962448530E+03  0.91093843339E+02 0.  0.
         11    1    3    3    0    0  0.33752067263E+03  0.30600325889E+03  0.18238998236E+03  0.49073852974E+03  0.00000000000E+00 0. -1.
        -11    1    3    3    0    0  0.70812340228E+02  0.12617140909E+03  0.35120019402E+02  0.14888595556E+03  0.00000000000E+00 0.  1.
         22    1    1    2    0    0 -0.40833301286E+03 -0.43217466798E+03 -0.18434091343E+04  0.19369223085E+04  0.00000000000E+00 0.  1.
<mgrwt>
<rscale>  0 0.19987610E+04</rscale>
<asrwt>0</asrwt>
<pdfrwt beam="1">  1        2 0.32326508E+00 0.19987610E+04</pdfrwt>
<pdfrwt beam="2">  1       -2 0.73126741E-01 0.19987610E+04</pdfrwt>
<totfact> 0.92049591E+00</totfact>
</mgrwt>
</event>
<event>
 6    1  0.5026615E-004  0.2889872E+04  0.7818608E-02  0.8275897E-01
         -2   -1    0    0    0  501 -0.00000000000E+00  0.00000000000E+00  0.88805026633E+03  0.88805026633E+03  0.00000000000E+00 0. -1.
          2   -1    0    0  501    0  0.00000000000E+00 -0.00000000000E+00 -0.23510381002E+04  0.23510381002E+04  0.00000000000E+00 0.  1.
         23    2    1    2    0    0 -0.64793556064E+03 -0.12494421851E+04 -0.37290365328E+03  0.14588609132E+04  0.91059127947E+02 0.  0.
         11    1    3    3    0    0 -0.22178448302E+03 -0.45790897172E+03 -0.92064355150E+02  0.51705399020E+03  0.00000000000E+00 0. -1.
        -11    1    3    3    0    0 -0.42615107762E+03 -0.79153321340E+03 -0.28083929813E+03  0.94180692302E+03  0.00000000000E+00 0.  1.
         22    1    1    2    0    0  0.64793556064E+03  0.12494421851E+04 -0.10900841806E+04  0.17802274533E+04  0.00000000000E+00 0.  1.
<mgrwt>
<rscale>  0 0.28898720E+04</rscale>
<asrwt>0</asrwt>
<pdfrwt beam="1">  1        2 0.36169817E+00 0.28898720E+04</pdfrwt>
<pdfrwt beam="2">  1       -2 0.13662312E+00 0.28898720E+04</pdfrwt>
<totfact> 0.14012377E+00</totfact>
</mgrwt>
</event>
<event>
 6    1  0.5026615E-004  0.2699984E+04  0.7818608E-02  0.8335010E-01
         -2   -1    0    0    0  501 -0.00000000000E+00  0.00000000000E+00  0.20041597124E+04  0.20041597124E+04  0.00000000000E+00 0. -1.
          2   -1    0    0  501    0  0.00000000000E+00 -0.00000000000E+00 -0.90934758498E+03  0.90934758498E+03  0.00000000000E+00 0.  1.
         23    2    1    2    0    0  0.28474824562E+03  0.11912925567E+04 -0.60946518940E+02  0.12294533886E+04  0.87072599408E+02 0.  0.
         11    1    3    3    0    0  0.53141903224E+02  0.13740344680E+03 -0.27696627824E+02  0.14990287610E+03  0.00000000000E+00 0. -1.
        -11    1    3    3    0    0  0.23160634240E+03  0.10538891099E+04 -0.33249891116E+02  0.10795505125E+04  0.00000000000E+00 0.  1.
         22    1    1    2    0    0 -0.28474824562E+03 -0.11912925567E+04  0.11557586463E+04  0.16840539087E+04  0.00000000000E+00 0. -1.
<mgrwt>
<rscale>  0 0.26999836E+04</rscale>
<asrwt>0</asrwt>
<pdfrwt beam="1">  1        2 0.13989963E+00 0.26999836E+04</pdfrwt>
<pdfrwt beam="2">  1       -2 0.30833226E+00 0.26999836E+04</pdfrwt>
<totfact> 0.71634748E-01</totfact>
</mgrwt>
</event>
<event>
 6    1  0.5026615E-004  0.2053329E+04  0.7818608E-02  0.8582086E-01
         -2   -1    0    0    0  501 -0.00000000000E+00  0.00000000000E+00  0.56453974441E+03  0.56453974441E+03  0.00000000000E+00 0. -1.
          2   -1    0    0  501    0  0.00000000000E+00 -0.00000000000E+00 -0.18670788303E+04  0.18670788303E+04  0.00000000000E+00 0.  1.
         23    2    1    2    0    0 -0.53489662375E+03  0.29615350577E+03 -0.16262934228E+04  0.17397817675E+04  0.90493117379E+02 0.  0.
         13    1    3    3    0    0 -0.18114377364E+03  0.12129288713E+03 -0.47231708710E+03  0.52020040558E+03  0.00000000000E+00 0. -1.
        -13    1    3    3    0    0 -0.35375285011E+03  0.17486061863E+03 -0.11539763357E+04  0.12195813619E+04  0.00000000000E+00 0.  1.
         22    1    1    2    0    0  0.53489662375E+03 -0.29615350577E+03  0.32375433697E+03  0.69183680719E+03  0.00000000000E+00 0. -1.
<mgrwt>
<rscale>  0 0.20533292E+04</rscale>
<asrwt>0</asrwt>
<pdfrwt beam="1">  1        2 0.28724289E+00 0.20533292E+04</pdfrwt>
<pdfrwt beam="2">  1       -2 0.86852269E-01 0.20533292E+04</pdfrwt>
<totfact> 0.84026337E+00</totfact>
</mgrwt>
</event>
<event>
 6    1  0.5026615E-004  0.4221920E+04  0.7818608E-02  0.7961216E-01
          2   -1    0    0  501    0  0.00000000000E+00  0.00000000000E+00  0.49183273394E+04  0.49183273394E+04  0.00000000000E+00 0.  1.
         -2   -1    0    0    0  501 -0.00000000000E+00 -0.00000000000E+00 -0.90603016490E+03  0.90603016490E+03  0.00000000000E+00 0. -1.
         23    2    1    2    0    0 -0.25177290018E+02 -0.10920223559E+04  0.44974229053E+04  0.46291614132E+04  0.95790805757E+02 0.  0.
         13    1    3    3    0    0  0.18269242541E+02 -0.18817747087E+03  0.90371346839E+03  0.92327815891E+03  0.00000000000E+00 0.  1.
        -13    1    3    3    0    0 -0.43446532558E+02 -0.90384488498E+03  0.35937094369E+04  0.37058832543E+04  0.00000000000E+00 0. -1.
         22    1    1    2    0    0  0.25177290018E+02  0.10920223559E+04 -0.48512573078E+03  0.11951960911E+04  0.00000000000E+00 0. -1.
<mgrwt>
<rscale>  0 0.42219204E+04</rscale>
<asrwt>0</asrwt>
<pdfrwt beam="1">  1        2 0.75666573E+00 0.42219204E+04</pdfrwt>
<pdfrwt beam="2">  1       -2 0.13938926E+00 0.42219204E+04</pdfrwt>
<totfact> 0.12041294E-02</totfact>
</mgrwt>
</event>
<event>
 6    1  0.5026615E-004  0.3282092E+04  0.7818608E-02  0.8167467E-01
          1   -1    0    0  501    0  0.00000000000E+00  0.00000000000E+00  0.27403167414E+04  0.27403167414E+04  0.00000000000E+00 0.  1.
         -1   -1    0    0    0  501 -0.00000000000E+00 -0.00000000000E+00 -0.98274460646E+03  0.98274460646E+03  0.00000000000E+00 0. -1.
         23    2    1    2    0    0 -0.11264790628E+04 -0.39764598090E+03  0.21536933803E+04  0.24644949230E+04  0.90899086680E+02 0.  0.
         13    1    3    3    0    0 -0.10706703650E+04 -0.38895373528E+03  0.20816650624E+04  0.23729621721E+04  0.00000000000E+00 0. -1.
        -13    1    3    3    0    0 -0.55808697830E+02 -0.86922456195E+01  0.72028317926E+02  0.91532750809E+02  0.00000000000E+00 0.  1.
         22    1    1    2    0    0  0.11264790628E+04  0.39764598090E+03 -0.39612124531E+03  0.12585664249E+04  0.00000000000E+00 0.  1.
<mgrwt>
<rscale>  0 0.32820917E+04</rscale>
<asrwt>0</asrwt>
<pdfrwt beam="1">  1        1 0.42158719E+00 0.32820917E+04</pdfrwt>
<pdfrwt beam="2">  1       -1 0.15119148E+00 0.32820917E+04</pdfrwt>
<totfact> 0.26062134E-01</totfact>
</mgrwt>
</event>
<event>
 6    1  0.5026615E-004  0.2747774E+03  0.7818608E-02  0.1098576E+00
          4   -1    0    0  501    0  0.00000000000E+00  0.00000000000E+00  0.10532286799E+03  0.10532286799E+03  0.00000000000E+00 0.  1.
         -4   -1    0    0    0  501 -0.00000000000E+00 -0.00000000000E+00 -0.17921709851E+03  0.17921709851E+03  0.00000000000E+00 0. -1.
         23    2    1    2    0    0  0.29603201770E+02 -0.11380224474E+03 -0.75235932594E+02  0.16694276998E+03  0.91554041049E+02 0.  0.
         13    1    3    3    0    0  0.51744031239E+02 -0.24977734081E+02 -0.30610902870E+02  0.65102683072E+02  0.00000000000E+00 0. -1.
        -13    1    3    3    0    0 -0.22140829469E+02 -0.88824510662E+02 -0.44625029724E+02  0.10184008691E+03  0.00000000000E+00 0.  1.
         22    1    1    2    0    0 -0.29603201770E+02  0.11380224474E+03  0.13417020787E+01  0.11759719651E+03  0.00000000000E+00 0.  1.
<mgrwt>
<rscale>  0 0.27477743E+03</rscale>
<asrwt>0</asrwt>
<pdfrwt beam="1">  1        4 0.16203518E-01 0.27477743E+03</pdfrwt>
<pdfrwt beam="2">  1       -4 0.27571861E-01 0.27477743E+03</pdfrwt>
<totfact> 0.76942560E+02</totfact>
</mgrwt>
</event>
<event>
 6    1  0.5026615E-004  0.7054471E+03  0.7818608E-02  0.9707962E-01
          1   -1    0    0  501    0  0.00000000000E+00  0.00000000000E+00  0.45843243139E+03  0.45843243139E+03  0.00000000000E+00 0.  1.
         -1   -1    0    0    0  501 -0.00000000000E+00 -0.00000000000E+00 -0.27138985687E+03  0.27138985687E+03  0.00000000000E+00 0. -1.
         23    2    1    2    0    0 -0.55258565952E+02 -0.12227643582E+03 -0.23568600082E+03  0.28630849560E+03  0.91758529849E+02 0.  0.
         11    1    3    3    0    0 -0.34893093556E+02 -0.61491401218E+02 -0.20173831396E+03  0.21376872484E+03  0.00000000000E+00 0.  1.
        -11    1    3    3    0    0 -0.20365472396E+02 -0.60785034604E+02 -0.33947686858E+02  0.72539770752E+02  0.00000000000E+00 0. -1.
         22    1    1    2    0    0  0.55258565952E+02  0.12227643582E+03  0.42272857534E+03  0.44351379266E+03  0.00000000000E+00 0.  1.
<mgrwt>
<rscale>  0 0.70544713E+03</rscale>
<asrwt>0</asrwt>
<pdfrwt beam="1">  1        1 0.70528066E-01 0.70544713E+03</pdfrwt>
<pdfrwt beam="2">  1       -1 0.41752286E-01 0.70544713E+03</pdfrwt>
<totfact> 0.28464084E+02</totfact>
</mgrwt>
</event>
<event>
 6    1  0.5026615E-004  0.2939785E+04  0.7818608E-02  0.8261138E-01
         -2   -1    0    0    0  501 -0.00000000000E+00  0.00000000000E+00  0.12185708102E+04  0.12185708102E+04  0.00000000000E+00 0.  1.
          2   -1    0    0  501    0  0.00000000000E+00 -0.00000000000E+00 -0.17730474579E+04  0.17730474579E+04  0.00000000000E+00 0. -1.
         23    2    1    2    0    0 -0.13426383194E+04 -0.10070373348E+03 -0.87413549186E+03  0.16077827739E+04  0.89630862060E+02 0.  0.
         11    1    3    3    0    0 -0.26275431450E+03 -0.47958976772E+02 -0.19975942630E+03  0.33353218981E+03  0.00000000000E+00 0. -1.
        -11    1    3    3    0    0 -0.10798840049E+04 -0.52744756705E+02 -0.67437606556E+03  0.12742505841E+04  0.00000000000E+00 0.  1.
         22    1    1    2    0    0  0.13426383194E+04  0.10070373348E+03  0.31965884416E+03  0.13838354943E+04  0.00000000000E+00 0.  1.
<mgrwt>
<rscale>  0 0.29397849E+04</rscale>
<asrwt>0</asrwt>
<pdfrwt beam="1">  1        2 0.27277653E+00 0.29397849E+04</pdfrwt>
<pdfrwt beam="2">  1       -2 0.18747243E+00 0.29397849E+04</pdfrwt>
<totfact> 0.12387083E+00</totfact>
</mgrwt>
</event>
<event>
 6    1  0.5026615E-004  0.1888433E+04  0.7818608E-02  0.8660636E-01
         -4   -1    0    0    0  501 -0.00000000000E+00  0.00000000000E+00  0.86891086685E+03  0.86891086685E+03  0.00000000000E+00 0. -1.
          4   -1    0    0  501    0  0.00000000000E+00 -0.00000000000E+00 -0.10260484318E+04  0.10260484318E+04  0.00000000000E+00 0.  1.
         23    2    1    2    0    0  0.69141410772E+03  0.39167941991E+02  0.56173734355E+03  0.89677658487E+03  0.95246018314E+02 0.  0.
         13    1    3    3    0    0  0.11674666173E+03  0.41405170609E+02  0.86932149876E+02  0.15133198558E+03  0.00000000000E+00 0.  1.
        -13    1    3    3    0    0  0.57466744599E+03 -0.22372286177E+01  0.47480519367E+03  0.74544459929E+03  0.00000000000E+00 0. -1.
         22    1    1    2    0    0 -0.69141410772E+03 -0.39167941991E+02 -0.71887490851E+03  0.99818271379E+03  0.00000000000E+00 0.  1.
<mgrwt>
<rscale>  0 0.18884328E+04</rscale>
<asrwt>0</asrwt>
<pdfrwt beam="1">  1        4 0.15785361E+00 0.18884328E+04</pdfrwt>
<pdfrwt beam="2">  1       -4 0.13367859E+00 0.18884328E+04</pdfrwt>
<totfact> 0.19613937E-01</totfact>
</mgrwt>
</event>
<event>
 6    1  0.5026615E-004  0.1077020E+04  0.7818608E-02  0.9227884E-01
         -4   -1    0    0    0  501 -0.00000000000E+00  0.00000000000E+00  0.24694720906E+03  0.24694720906E+03  0.00000000000E+00 0.  1.
          4   -1    0    0  501    0  0.00000000000E+00 -0.00000000000E+00 -0.11743122057E+04  0.11743122057E+04  0.00000000000E+00 0. -1.
         23    2    1    2    0    0  0.48367248855E+03  0.20014618941E+03 -0.60875219457E+03  0.80846932759E+03  0.95109652230E+02 0.  0.
         13    1    3    3    0    0  0.45356348044E+03  0.21068510015E+03 -0.57106045520E+03  0.75909030142E+03  0.00000000000E+00 0.  1.
        -13    1    3    3    0    0  0.30109008105E+02 -0.10538910743E+02 -0.37691739372E+02  0.49379026171E+02  0.00000000000E+00 0. -1.
         22    1    1    2    0    0 -0.48367248855E+03 -0.20014618941E+03 -0.31861280209E+03  0.61279008720E+03  0.00000000000E+00 0. -1.
<mgrwt>
<rscale>  0 0.10770202E+04</rscale>
<asrwt>0</asrwt>
<pdfrwt beam="1">  1        4 0.18066342E+00 0.10770202E+04</pdfrwt>
<pdfrwt beam="2">  1       -4 0.37991878E-01 0.10770202E+04</pdfrwt>
<totfact> 0.23848465E+00</totfact>
</mgrwt>
</event>
<event>
 6    1  0.5026615E-004  0.2151067E+04  0.7818608E-02  0.8539076E-01
          2   -1    0    0  501    0  0.00000000000E+00  0.00000000000E+00  0.66397456411E+03  0.66397456411E+03  0.00000000000E+00 0.  1.
         -2   -1    0    0    0  501 -0.00000000000E+00 -0.00000000000E+00 -0.17421934995E+04  0.17421934995E+04  0.00000000000E+00 0. -1.
         23    2    1    2    0    0  0.10141529276E+04 -0.34303053477E+03 -0.44903840851E+03  0.11643773229E+04  0.89235358938E+02 0.  0.
         13    1    3    3    0    0  0.25582023746E+03 -0.72242660161E+02 -0.15128854546E+03  0.30586143894E+03  0.00000000000E+00 0.  1.
        -13    1    3    3    0    0  0.75833269016E+03 -0.27078787461E+03 -0.29774986306E+03  0.85851588392E+03  0.00000000000E+00 0. -1.
         22    1    1    2    0    0 -0.10141529276E+04  0.34303053477E+03 -0.62918052684E+03  0.12417907407E+04  0.00000000000E+00 0.  1.
<mgrwt>
<rscale>  0 0.21510669E+04</rscale>
<asrwt>0</asrwt>
<pdfrwt beam="1">  1        2 0.10214993E+00 0.21510669E+04</pdfrwt>
<pdfrwt beam="2">  1       -2 0.26802977E+00 0.21510669E+04</pdfrwt>
<totfact> 0.20025088E+00</totfact>
</mgrwt>
</event>
<event>
 6    1  0.5026615E-004  0.1859487E+04  0.7818608E-02  0.8675289E-01
         -2   -1    0    0    0  501 -0.00000000000E+00  0.00000000000E+00  0.52059529631E+03  0.52059529631E+03  0.00000000000E+00 0.  1.
          2   -1    0    0  501    0  0.00000000000E+00 -0.00000000000E+00 -0.16604512728E+04  0.16604512728E+04  0.00000000000E+00 0. -1.
         23    2    1    2    0    0 -0.30239247272E+03  0.15145377246E+02 -0.15995380798E+04  0.16306119897E+04  0.93288811358E+02 0.  0.
         13    1    3    3    0    0 -0.10943614177E+03  0.42291420612E+02 -0.47214966131E+03  0.48650810482E+03  0.00000000000E+00 0.  1.
        -13    1    3    3    0    0 -0.19295633095E+03 -0.27146043366E+02 -0.11273884185E+04  0.11441038849E+04  0.00000000000E+00 0. -1.
         22    1    1    2    0    0  0.30239247272E+03 -0.15145377246E+02  0.45968210334E+03  0.55043457935E+03  0.00000000000E+00 0.  1.
<mgrwt>
<rscale>  0 0.18594872E+04</rscale>
<asrwt>0</asrwt>
<pdfrwt beam="1">  1        2 0.25545405E+00 0.18594872E+04</pdfrwt>
<pdfrwt beam="2">  1       -2 0.80091583E-01 0.18594872E+04</pdfrwt>
<totfact> 0.13364973E+01</totfact>
</mgrwt>
</event>
<event>
 6    1  0.5026615E-004  0.5239833E+04  0.7818608E-02  0.7792539E-01
          2   -1    0    0  501    0  0.00000000000E+00  0.00000000000E+00  0.30600889924E+04  0.30600889924E+04  0.00000000000E+00 0.  1.
         -2   -1    0    0    0  501 -0.00000000000E+00 -0.00000000000E+00 -0.22430598347E+04  0.22430598347E+04  0.00000000000E+00 0. -1.
         23    2    1    2    0    0  0.68074221858E+03  0.81050033718E+03 -0.20161271569E+04  0.22787322771E+04  0.86783137656E+02 0.  0.
         11    1    3    3    0    0  0.26420648319E+03  0.25078040622E+03 -0.68385022995E+03  0.77482063402E+03  0.00000000000E+00 0. -1.
        -11    1    3    3    0    0  0.41653573539E+03  0.55971993096E+03 -0.13322769270E+04  0.15039116430E+04  0.00000000000E+00 0.  1.
         22    1    1    2    0    0 -0.68074221858E+03 -0.81050033718E+03  0.28331563146E+04  0.30244165500E+04  0.00000000000E+00 0.  1.
<mgrwt>
<rscale>  0 0.52398331E+04</rscale>
<asrwt>0</asrwt>
<pdfrwt beam="1">  1        2 0.47078292E+00 0.52398331E+04</pdfrwt>
<pdfrwt beam="2">  1       -2 0.34508613E+00 0.52398331E+04</pdfrwt>
<totfact> 0.19032536E-02</totfact>
</mgrwt>
</event>
<event>
 6    1  0.5026615E-004  0.1586911E+04  0.7818608E-02  0.8828630E-01
         -2   -1    0    0    0  501 -0.00000000000E+00  0.00000000000E+00  0.69374628227E+03  0.69374628227E+03  0.00000000000E+00 0. -1.
          2   -1    0    0  501    0  0.00000000000E+00 -0.00000000000E+00 -0.90749567088E+03  0.90749567088E+03  0.00000000000E+00 0.  1.
         23    2    1    2    0    0 -0.61057598873E+02 -0.72178335803E+03 -0.42691866948E+03  0.84616554072E+03  0.95064849621E+02 0.  0.
         13    1    3    3    0    0 -0.21129296141E+02 -0.42619815846E+03 -0.30208788454E+03  0.52282732084E+03  0.00000000000E+00 0. -1.
        -13    1    3    3    0    0 -0.39928302732E+02 -0.29558519957E+03 -0.12483078494E+03  0.32333821988E+03  0.00000000000E+00 0.  1.
         22    1    1    2    0    0  0.61057598873E+02  0.72178335803E+03  0.21316928087E+03  0.75507641244E+03  0.00000000000E+00 0. -1.
<mgrwt>
<rscale>  0 0.15869111E+04</rscale>
<asrwt>0</asrwt>
<pdfrwt beam="1">  1        2 0.13961472E+00 0.15869111E+04</pdfrwt>
<pdfrwt beam="2">  1       -2 0.10673020E+00 0.15869111E+04</pdfrwt>
<totfact> 0.19663350E+01</totfact>
</mgrwt>
</event>
<event>
 6    1  0.5026615E-004  0.3596442E+04  0.7818608E-02  0.8091307E-01
          2   -1    0    0  501    0  0.00000000000E+00  0.00000000000E+00  0.42938537265E+04  0.42938537265E+04  0.00000000000E+00 0.  1.
         -2   -1    0    0    0  501 -0.00000000000E+00 -0.00000000000E+00 -0.75307592515E+03  0.75307592515E+03  0.00000000000E+00 0. -1.
         23    2    1    2    0    0  0.52484471308E+03  0.14194401915E+03  0.41751812576E+04  0.42114191354E+04  0.91118182956E+02 0.  0.
         11    1    3    3    0    0  0.20245447929E+03  0.98834228598E+01  0.15904021978E+04  0.16032668677E+04  0.00000000000E+00 0. -1.
        -11    1    3    3    0    0  0.32239023379E+03  0.13206059629E+03  0.25847790598E+04  0.26081522678E+04  0.00000000000E+00 0.  1.
         22    1    1    2    0    0 -0.52484471308E+03 -0.14194401915E+03 -0.63440345623E+03  0.83551051621E+03  0.00000000000E+00 0. -1.
<mgrwt>
<rscale>  0 0.35964415E+04</rscale>
<asrwt>0</asrwt>
<pdfrwt beam="1">  1        2 0.66059287E+00 0.35964415E+04</pdfrwt>
<pdfrwt beam="2">  1       -2 0.11585784E+00 0.35964415E+04</pdfrwt>
<totfact> 0.90310507E-02</totfact>
</mgrwt>
</event>
<event>
 6    1  0.5026615E-004  0.4325434E+04  0.7818608E-02  0.7941932E-01
         -4   -1    0    0    0  501 -0.00000000000E+00  0.00000000000E+00  0.18239309501E+04  0.18239309501E+04  0.00000000000E+00 0. -1.
          4   -1    0    0  501    0  0.00000000000E+00 -0.00000000000E+00 -0.25644309583E+04  0.25644309583E+04  0.00000000000E+00 0.  1.
         23    2    1    2    0    0 -0.82299234165E+03  0.12182782069E+04 -0.19782922227E+04  0.24664754003E+04  0.91337825369E+02 0.  0.
         13    1    3    3    0    0 -0.58858361785E+03  0.89448056442E+03 -0.15034593861E+04  0.18457833786E+04  0.00000000000E+00 0. -1.
        -13    1    3    3    0    0 -0.23440872380E+03  0.32379764248E+03 -0.47483283659E+03  0.62069202167E+03  0.00000000000E+00 0.  1.
         22    1    1    2    0    0  0.82299234165E+03 -0.12182782069E+04  0.12377922144E+04  0.19218865080E+04  0.00000000000E+00 0. -1.
<mgrwt>
<rscale>  0 0.43254341E+04</rscale>
<asrwt>0</asrwt>
<pdfrwt beam="1">  1        4 0.39452784E+00 0.43254341E+04</pdfrwt>
<pdfrwt beam="2">  1       -4 0.28060476E+00 0.43254341E+04</pdfrwt>
<totfact> 0.45382509E-04</totfact>
</mgrwt>
</event>
<event>
 6    1  0.5026615E-004  0.1426158E+04  0.7818608E-02  0.8935099E-01
          2   -1    0    0  501    0  0.00000000000E+00  0.00000000000E+00  0.61554739500E+03  0.61554739500E+03  0.00000000000E+00 0.  1.
         -2   -1    0    0    0  501 -0.00000000000E+00 -0.00000000000E+00 -0.82606386600E+03  0.82606386600E+03  0.00000000000E+00 0. -1.
         23    2    1    2    0    0 -0.52747992458E+03  0.47536227194E+03 -0.11871817416E+03  0.72562851838E+03  0.90765529790E+02 0.  0.
         13    1    3    3    0    0 -0.21097849359E+03  0.18995617698E+03 -0.92740228603E+02  0.29865703395E+03  0.00000000000E+00 0. -1.
        -13    1    3    3    0    0 -0.31650143099E+03  0.28540609496E+03 -0.25977945555E+02  0.42697148443E+03  0.00000000000E+00 0.  1.
         22    1    1    2    0    0  0.52747992458E+03 -0.47536227194E+03 -0.91798296846E+02  0.71598274262E+03  0.00000000000E+00 0.  1.
<mgrwt>
<rscale>  0 0.14261577E+04</rscale>
<asrwt>0</asrwt>
<pdfrwt beam="1">  1        2 0.94699599E-01 0.14261577E+04</pdfrwt>
<pdfrwt beam="2">  1       -2 0.12708675E+00 0.14261577E+04</pdfrwt>
<totfact> 0.21473070E+01</totfact>
</mgrwt>
</event>
<event>
 6    1  0.5026615E-004  0.9863816E+03  0.7818608E-02  0.9323609E-01
          2   -1    0    0  501    0  0.00000000000E+00  0.00000000000E+00  0.82787607845E+03  0.82787607845E+03  0.00000000000E+00 0.  1.
         -2   -1    0    0    0  501 -0.00000000000E+00 -0.00000000000E+00 -0.29380864940E+03  0.29380864940E+03  0.00000000000E+00 0. -1.
         23    2    1    2    0    0 -0.37671059139E+03 -0.28714191580E+03  0.13186244900E+03  0.50029097551E+03  0.92422969209E+02 0.  0.
         13    1    3    3    0    0 -0.75330226179E+02 -0.87183576298E+02 -0.29654097176E+00  0.11522025381E+03  0.00000000000E+00 0. -1.
        -13    1    3    3    0    0 -0.30138036521E+03 -0.19995833951E+03  0.13215898997E+03  0.38507072169E+03  0.00000000000E+00 0.  1.
         22    1    1    2    0    0  0.37671059139E+03  0.28714191580E+03  0.40220498005E+03  0.62139375235E+03  0.00000000000E+00 0.  1.
<mgrwt>
<rscale>  0 0.98638157E+03</rscale>
<asrwt>0</asrwt>
<pdfrwt beam="1">  1        2 0.12736555E+00 0.98638157E+03</pdfrwt>
<pdfrwt beam="2">  1       -2 0.45201331E-01 0.98638157E+03</pdfrwt>
<totfact> 0.15250043E+02</totfact>
</mgrwt>
</event>
<event>
 6    1  0.5026615E-004  0.2679387E+04  0.7818608E-02  0.8341724E-01
         -1   -1    0    0    0  501 -0.00000000000E+00  0.00000000000E+00  0.80547746491E+03  0.80547746491E+03  0.00000000000E+00 0. -1.
          1   -1    0    0  501    0  0.00000000000E+00 -0.00000000000E+00 -0.22282163570E+04  0.22282163570E+04  0.00000000000E+00 0.  1.
         23    2    1    2    0    0  0.50128013630E+03  0.12386055118E+04 -0.79475964336E+03  0.15572848929E+04  0.89821811883E+02 0.  0.
         13    1    3    3    0    0  0.24584085795E+03  0.52558260518E+03 -0.30740103742E+03  0.65663551542E+03  0.00000000000E+00 0. -1.
        -13    1    3    3    0    0  0.25543927835E+03  0.71302290663E+03 -0.48735860594E+03  0.90064937744E+03  0.00000000000E+00 0.  1.
         22    1    1    2    0    0 -0.50128013630E+03 -0.12386055118E+04 -0.62797924873E+03  0.14764089290E+04  0.00000000000E+00 0.  1.
<mgrwt>
<rscale>  0 0.26793865E+04</rscale>
<asrwt>0</asrwt>
<pdfrwt beam="1">  1        1 0.34280251E+00 0.26793865E+04</pdfrwt>
<pdfrwt beam="2">  1       -1 0.12391961E+00 0.26793865E+04</pdfrwt>
<totfact> 0.10421165E+00</totfact>
</mgrwt>
</event>
<event>
 6    1  0.5026615E-004  0.2870300E+04  0.7818608E-02  0.8281769E-01
          2   -1    0    0  501    0  0.00000000000E+00  0.00000000000E+00  0.25580600174E+04  0.25580600174E+04  0.00000000000E+00 0. -1.
         -2   -1    0    0    0  501 -0.00000000000E+00 -0.00000000000E+00 -0.80516333773E+03  0.80516333773E+03  0.00000000000E+00 0.  1.
         23    2    1    2    0    0 -0.10903153459E+04  0.61545271782E+03  0.16959197727E+04  0.21099013816E+04  0.89276891371E+02 0.  0.
         11    1    3    3    0    0 -0.52569731432E+03  0.34737602455E+03  0.83971460817E+03  0.10498325542E+04  0.00000000000E+00 0. -1.
        -11    1    3    3    0    0 -0.56461803156E+03  0.26807669327E+03  0.85620516458E+03  0.10600688274E+04  0.00000000000E+00 0.  1.
         22    1    1    2    0    0  0.10903153459E+04 -0.61545271782E+03  0.56976906950E+02  0.12533219735E+04  0.00000000000E+00 0.  1.
<mgrwt>
<rscale>  0 0.28703004E+04</rscale>
<asrwt>0</asrwt>
<pdfrwt beam="1">  1        2 0.39354769E+00 0.28703004E+04</pdfrwt>
<pdfrwt beam="2">  1       -2 0.12387128E+00 0.28703004E+04</pdfrwt>
<totfact> 0.13663302E+00</totfact>
</mgrwt>
</event>
<event>
 6    1  0.6052454E-004  0.1592999E+04  0.7818608E-02  0.8824860E-01
          2   -1    0    0  501    0  0.00000000000E+00  0.00000000000E+00  0.19205676504E+04  0.19205676504E+04  0.00000000000E+00 0.  1.
         -2   -1    0    0    0  501 -0.00000000000E+00 -0.00000000000E+00 -0.33032510083E+03  0.33032510083E+03  0.00000000000E+00 0. -1.
         23    2    1    2    0    0  0.35523983004E+03 -0.17090211016E+03 -0.17795101025E+03  0.43928812187E+03  0.76841550374E+02 0.  0.
         11    1    3    3    0    0  0.10882567089E+03 -0.68892072512E+02 -0.94820406036E+02  0.15993765567E+03  0.00000000000E+00 0.  1.
        -11    1    3    3    0    0  0.24641415915E+03 -0.10201003765E+03 -0.83130604214E+02  0.27935046621E+03  0.00000000000E+00 0. -1.
         22    1    1    2    0    0 -0.35523983004E+03  0.17090211016E+03  0.17681935599E+04  0.18116046294E+04  0.00000000000E+00 0.  1.
<mgrwt>
<rscale>  0 0.15929993E+04</rscale>
<asrwt>0</asrwt>
<pdfrwt beam="1">  1        2 0.29547194E+00 0.15929993E+04</pdfrwt>
<pdfrwt beam="2">  1       -2 0.50819247E-01 0.15929993E+04</pdfrwt>
<totfact> 0.25978365E+01</totfact>
</mgrwt>
</event>
<event>
 6    1  0.5026615E-004  0.7676568E+03  0.7818608E-02  0.9608050E-01
          2   -1    0    0  501    0  0.00000000000E+00  0.00000000000E+00  0.11139695822E+04  0.11139695822E+04  0.00000000000E+00 0.  1.
         -2   -1    0    0    0  501 -0.00000000000E+00 -0.00000000000E+00 -0.13225159380E+03  0.13225159380E+03  0.00000000000E+00 0. -1.
         23    2    1    2    0    0 -0.18721491006E+03  0.24750702690E+03  0.14608834483E+03  0.35482561165E+03  0.90830937862E+02 0.  0.
         11    1    3    3    0    0 -0.10530770659E+03  0.11050174565E+03  0.11757563898E+03  0.19267687910E+03  0.00000000000E+00 0.  1.
        -11    1    3    3    0    0 -0.81907203471E+02  0.13700528125E+03  0.28512705841E+02  0.16214873254E+03  0.00000000000E+00 0. -1.
         22    1    1    2    0    0  0.18721491006E+03 -0.24750702690E+03  0.83562964354E+03  0.89139556431E+03  0.00000000000E+00 0.  1.
<mgrwt>
<rscale>  0 0.76765683E+03</rscale>
<asrwt>0</asrwt>
<pdfrwt beam="1">  1        2 0.17137993E+00 0.76765683E+03</pdfrwt>
<pdfrwt beam="2">  1       -2 0.20346400E-01 0.76765683E+03</pdfrwt>
<totfact> 0.44504002E+02</totfact>
</mgrwt>
</event>
<event>
 6    1  0.5026615E-004  0.2594790E+04  0.7818608E-02  0.8369973E-01
         -2   -1    0    0    0  501 -0.00000000000E+00  0.00000000000E+00  0.45549978307E+03  0.45549978307E+03  0.00000000000E+00 0. -1.
          2   -1    0    0  501    0  0.00000000000E+00 -0.00000000000E+00 -0.36953545294E+04  0.36953545294E+04  0.00000000000E+00 0.  1.
         23    2    1    2    0    0  0.99847909491E+03  0.61764305932E+03 -0.74540133624E+03  0.13939101225E+04  0.94439534969E+02 0.  0.
         11    1    3    3    0    0  0.49258662520E+03  0.34737112530E+03 -0.41765880271E+03  0.73331245558E+03  0.00000000000E+00 0. -1.
        -11    1    3    3    0    0  0.50589246971E+03  0.27027193402E+03 -0.32774253353E+03  0.66059766690E+03  0.00000000000E+00 0.  1.
         22    1    1    2    0    0 -0.99847909491E+03 -0.61764305932E+03 -0.24944534101E+04  0.27569441900E+04  0.00000000000E+00 0.  1.
<mgrwt>
<rscale>  0 0.25947895E+04</rscale>
<asrwt>0</asrwt>
<pdfrwt beam="1">  1        2 0.56851606E+00 0.25947895E+04</pdfrwt>
<pdfrwt beam="2">  1       -2 0.70076892E-01 0.25947895E+04</pdfrwt>
<totfact> 0.96676407E-01</totfact>
</mgrwt>
</event>
<event>
 6    1  0.5026615E-004  0.1824319E+04  0.7818608E-02  0.8693473E-01
         -2   -1    0    0    0  501 -0.00000000000E+00  0.00000000000E+00  0.97531223504E+03  0.97531223504E+03  0.00000000000E+00 0. -1.
          2   -1    0    0  501    0  0.00000000000E+00 -0.00000000000E+00 -0.85309611388E+03  0.85309611388E+03  0.00000000000E+00 0.  1.
         23    2    1    2    0    0  0.50759397121E+03  0.50159810616E+03 -0.50446566688E+03  0.87868082842E+03  0.91335039597E+02 0.  0.
         11    1    3    3    0    0  0.91513883510E+02  0.50108316789E+02 -0.56456155634E+02  0.11862938841E+03  0.00000000000E+00 0. -1.
        -11    1    3    3    0    0  0.41608008770E+03  0.45148978937E+03 -0.44800951125E+03  0.76005144001E+03  0.00000000000E+00 0.  1.
         22    1    1    2    0    0 -0.50759397121E+03 -0.50159810616E+03  0.62668178805E+03  0.94972752049E+03  0.00000000000E+00 0. -1.
<mgrwt>
<rscale>  0 0.18243191E+04</rscale>
<asrwt>0</asrwt>
<pdfrwt beam="1">  1        2 0.13124555E+00 0.18243191E+04</pdfrwt>
<pdfrwt beam="2">  1       -2 0.15004804E+00 0.18243191E+04</pdfrwt>
<totfact> 0.89054408E+00</totfact>
</mgrwt>
</event>
<event>
 6    1  0.5026615E-004  0.3171098E+04  0.7818608E-02  0.8196492E-01
          1   -1    0    0  501    0  0.00000000000E+00  0.00000000000E+00  0.29474455625E+04  0.29474455625E+04  0.00000000000E+00 0. -1.
         -1   -1    0    0    0  501 -0.00000000000E+00 -0.00000000000E+00 -0.85293046934E+03  0.85293046934E+03  0.00000000000E+00 0.  1.
         23    2    1    2    0    0  0.97255649598E+03  0.10573121248E+04  0.18485722051E+04  0.23428908788E+04  0.90240820456E+02 0.  0.
         11    1    3    3    0    0  0.36164254357E+03  0.40793635532E+03  0.63286090217E+03  0.83529056071E+03  0.00000000000E+00 0. -1.
        -11    1    3    3    0    0  0.61091395241E+03  0.64937576946E+03  0.12157113029E+04  0.15076003181E+04  0.00000000000E+00 0.  1.
         22    1    1    2    0    0 -0.97255649598E+03 -0.10573121248E+04  0.24594288811E+03  0.14574851530E+04  0.00000000000E+00 0.  1.
<mgrwt>
<rscale>  0 0.31710983E+04</rscale>
<asrwt>0</asrwt>
<pdfrwt beam="1">  1        1 0.45345316E+00 0.31710983E+04</pdfrwt>
<pdfrwt beam="2">  1       -1 0.13122007E+00 0.31710983E+04</pdfrwt>
<totfact> 0.27095711E-01</totfact>
</mgrwt>
</event>
<event>
 6    1  0.5026615E-004  0.3423442E+04  0.7818608E-02  0.8132177E-01
          2   -1    0    0  501    0  0.00000000000E+00  0.00000000000E+00  0.13073333170E+04  0.13073333170E+04  0.00000000000E+00 0.  1.
         -2   -1    0    0    0  501 -0.00000000000E+00 -0.00000000000E+00 -0.22411943754E+04  0.22411943754E+04  0.00000000000E+00 0. -1.
         23    2    1    2    0    0 -0.53992497424E+02  0.16822321184E+04 -0.78359758530E+03  0.18587350421E+04  0.89725642499E+02 0.  0.
         13    1    3    3    0    0 -0.66934198276E+02  0.12511446828E+04 -0.55112156183E+03  0.13687871201E+04  0.00000000000E+00 0.  1.
        -13    1    3    3    0    0  0.12941700852E+02  0.43108743557E+03 -0.23247602347E+03  0.48994792194E+03  0.00000000000E+00 0. -1.
         22    1    1    2    0    0  0.53992497424E+02 -0.16822321184E+04 -0.15026347306E+03  0.16897926504E+04  0.00000000000E+00 0.  1.
<mgrwt>
<rscale>  0 0.34234416E+04</rscale>
<asrwt>0</asrwt>
<pdfrwt beam="1">  1        2 0.20112820E+00 0.34234416E+04</pdfrwt>
<pdfrwt beam="2">  1       -2 0.34479914E+00 0.34234416E+04</pdfrwt>
<totfact> 0.22698350E-01</totfact>
</mgrwt>
</event>
<event>
 6    1  0.5026615E-004  0.2141629E+04  0.7818608E-02  0.8543124E-01
          2   -1    0    0  501    0  0.00000000000E+00  0.00000000000E+00  0.10256730327E+04  0.10256730327E+04  0.00000000000E+00 0.  1.
         -2   -1    0    0    0  501 -0.00000000000E+00 -0.00000000000E+00 -0.11179429294E+04  0.11179429294E+04  0.00000000000E+00 0. -1.
         23    2    1    2    0    0 -0.26841141411E+03 -0.74398007425E+02 -0.10787269294E+04  0.11185904853E+04  0.10006565301E+03 0.  0.
         13    1    3    3    0    0 -0.20750884258E+03 -0.88962443087E+02 -0.93393710914E+03  0.96083961193E+03  0.00000000000E+00 0. -1.
        -13    1    3    3    0    0 -0.60902571530E+02  0.14564435663E+02 -0.14478982025E+03  0.15775087338E+03  0.00000000000E+00 0.  1.
         22    1    1    2    0    0  0.26841141411E+03  0.74398007425E+02  0.98645703266E+03  0.10250254768E+04  0.00000000000E+00 0.  1.
<mgrwt>
<rscale>  0 0.21416292E+04</rscale>
<asrwt>0</asrwt>
<pdfrwt beam="1">  1        2 0.15779585E+00 0.21416292E+04</pdfrwt>
<pdfrwt beam="2">  1       -2 0.17199122E+00 0.21416292E+04</pdfrwt>
<totfact> 0.45948245E+00</totfact>
</mgrwt>
</event>
<event>
 6    1  0.5026615E-004  0.4470027E+04  0.7818608E-02  0.7915905E-01
         -2   -1    0    0    0  501 -0.00000000000E+00  0.00000000000E+00  0.18028648989E+04  0.18028648989E+04  0.00000000000E+00 0. -1.
          2   -1    0    0  501    0  0.00000000000E+00 -0.00000000000E+00 -0.27707485398E+04  0.27707485398E+04  0.00000000000E+00 0.  1.
         23    2    1    2    0    0 -0.28503201203E+03 -0.11912410458E+04  0.14275205951E+04  0.18832119946E+04  0.91508961956E+02 0.  0.
         13    1    3    3    0    0 -0.51914170544E+02 -0.37081346730E+03  0.46996652998E+03  0.60088788300E+03  0.00000000000E+00 0. -1.
        -13    1    3    3    0    0 -0.23311784149E+03 -0.82042757849E+03  0.95755406510E+03  0.12823241116E+04  0.00000000000E+00 0.  1.
         22    1    1    2    0    0  0.28503201203E+03  0.11912410458E+04 -0.23954042360E+04  0.26904014442E+04  0.00000000000E+00 0.  1.
<mgrwt>
<rscale>  0 0.44700270E+04</rscale>
<asrwt>0</asrwt>
<pdfrwt beam="1">  1        2 0.42626901E+00 0.44700270E+04</pdfrwt>
<pdfrwt beam="2">  1       -2 0.27736383E+00 0.44700270E+04</pdfrwt>
<totfact> 0.79928692E-02</totfact>
</mgrwt>
</event>
<event>
 6    1  0.8204572E-004  0.3595896E+04  0.7818608E-02  0.8091432E-01
         -2   -1    0    0    0  501 -0.00000000000E+00  0.00000000000E+00  0.19305887731E+04  0.19305887731E+04  0.00000000000E+00 0. -1.
          2   -1    0    0  501    0  0.00000000000E+00 -0.00000000000E+00 -0.16744203300E+04  0.16744203300E+04  0.00000000000E+00 0.  1.
         23    2    1    2    0    0 -0.97623718497E+03 -0.24121000578E+03  0.16209584768E+04  0.19097589316E+04  0.91931960067E+02 0.  0.
         13    1    3    3    0    0 -0.61867508702E+03 -0.19789853431E+03  0.10330073433E+04  0.12202568846E+04  0.00000000000E+00 0. -1.
        -13    1    3    3    0    0 -0.35756209795E+03 -0.43311471474E+02  0.58795113347E+03  0.68950204699E+03  0.00000000000E+00 0.  1.
         22    1    1    2    0    0  0.97623718497E+03  0.24121000578E+03 -0.13647900337E+04  0.16952501716E+04  0.00000000000E+00 0.  1.
<mgrwt>
<rscale>  0 0.35958960E+04</rscale>
<asrwt>0</asrwt>
<pdfrwt beam="1">  1        2 0.25760313E+00 0.35958960E+04</pdfrwt>
<pdfrwt beam="2">  1       -2 0.29701366E+00 0.35958960E+04</pdfrwt>
<totfact> 0.27387684E-01</totfact>
</mgrwt>
</event>
<event>
 6    1  0.5026615E-004  0.3455019E+04  0.7818608E-02  0.8124533E-01
         -2   -1    0    0    0  501 -0.00000000000E+00  0.00000000000E+00  0.12840095409E+04  0.12840095409E+04  0.00000000000E+00 0. -1.
          2   -1    0    0  501    0  0.00000000000E+00 -0.00000000000E+00 -0.23241947520E+04  0.23241947520E+04  0.00000000000E+00 0.  1.
         23    2    1    2    0    0  0.28210758174E+01  0.13128469040E+04  0.65015799991E+03  0.14679157322E+04  0.92174942511E+02 0.  0.
         13    1    3    3    0    0  0.19783483090E+02  0.79915333977E+03  0.34947871640E+03  0.87245218774E+03  0.00000000000E+00 0. -1.
        -13    1    3    3    0    0 -0.16962407273E+02  0.51369356425E+03  0.30067928351E+03  0.59546354443E+03  0.00000000000E+00 0.  1.
         22    1    1    2    0    0 -0.28210758174E+01 -0.13128469040E+04 -0.16903432110E+04  0.21402885607E+04  0.00000000000E+00 0.  1.
<mgrwt>
<rscale>  0 0.34550185E+04</rscale>
<asrwt>0</asrwt>
<pdfrwt beam="1">  1        2 0.35756842E+00 0.34550185E+04</pdfrwt>
<pdfrwt beam="2">  1       -2 0.19753993E+00 0.34550185E+04</pdfrwt>
<totfact> 0.50010426E-01</totfact>
</mgrwt>
</event>
<event>
 6    1  0.5026615E-004  0.1044174E+04  0.7818608E-02  0.9261380E-01
          2   -1    0    0  501    0  0.00000000000E+00  0.00000000000E+00  0.46854478658E+03  0.46854478658E+03  0.00000000000E+00 0.  1.
         -2   -1    0    0    0  501 -0.00000000000E+00 -0.00000000000E+00 -0.58174725976E+03  0.58174725976E+03  0.00000000000E+00 0. -1.
         23    2    1    2    0    0 -0.34684601392E+03 -0.17073597664E+03 -0.40415930287E+03  0.56644412826E+03  0.89784615923E+02 0.  0.
         13    1    3    3    0    0 -0.33574295502E+03 -0.13927978175E+03 -0.37227955346E+03  0.52030208088E+03  0.00000000000E+00 0. -1.
        -13    1    3    3    0    0 -0.11103058901E+02 -0.31456194887E+02 -0.31879749416E+02  0.46142047382E+02  0.00000000000E+00 0.  1.
         22    1    1    2    0    0  0.34684601392E+03  0.17073597664E+03  0.29095682969E+03  0.48384791808E+03  0.00000000000E+00 0.  1.
<mgrwt>
<rscale>  0 0.10441736E+04</rscale>
<asrwt>0</asrwt>
<pdfrwt beam="1">  1        2 0.72083813E-01 0.10441736E+04</pdfrwt>
<pdfrwt beam="2">  1       -2 0.89499579E-01 0.10441736E+04</pdfrwt>
<totfact> 0.70831395E+01</totfact>
</mgrwt>
</event>
<event>
 6    1  0.5026615E-004  0.4540046E+04  0.7818608E-02  0.7903663E-01
         -2   -1    0    0    0  501 -0.00000000000E+00  0.00000000000E+00  0.17305691775E+04  0.17305691775E+04  0.00000000000E+00 0. -1.
          2   -1    0    0  501    0  0.00000000000E+00 -0.00000000000E+00 -0.29776355440E+04  0.29776355440E+04  0.00000000000E+00 0.  1.
         23    2    1    2    0    0  0.18643525480E+04  0.12901142833E+04 -0.71919690904E+03  0.23803620611E+04  0.93134636653E+02 0.  0.
         13    1    3    3    0    0  0.15387275845E+04  0.10208069485E+04 -0.58767052194E+03  0.19378044400E+04  0.00000000000E+00 0.  1.
        -13    1    3    3    0    0  0.32562496353E+03  0.26930733487E+03 -0.13152638709E+03  0.44255762109E+03  0.00000000000E+00 0. -1.
         22    1    1    2    0    0 -0.18643525480E+04 -0.12901142833E+04 -0.52786945750E+03  0.23278426604E+04  0.00000000000E+00 0. -1.
<mgrwt>
<rscale>  0 0.45400459E+04</rscale>
<asrwt>0</asrwt>
<pdfrwt beam="1">  1        2 0.45809778E+00 0.45400459E+04</pdfrwt>
<pdfrwt beam="2">  1       -2 0.26624141E+00 0.45400459E+04</pdfrwt>
<totfact> 0.69364817E-02</totfact>
</mgrwt>
</event>
<event>
 6    1  0.5026615E-004  0.4187704E+04  0.7818608E-02  0.7967715E-01
         -2   -1    0    0    0  501 -0.00000000000E+00  0.00000000000E+00  0.14575135617E+04  0.14575135617E+04  0.00000000000E+00 0. -1.
          2   -1    0    0  501    0  0.00000000000E+00 -0.00000000000E+00 -0.30080104726E+04  0.30080104726E+04  0.00000000000E+00 0.  1.
         23    2    1    2    0    0 -0.75032805852E+03 -0.17470324422E+04 -0.17087725773E+04  0.25576021973E+04  0.79440096444E+02 0.  0.
         11    1    3    3    0    0 -0.35946359784E+03 -0.86940528832E+03 -0.79490857065E+03  0.12316490041E+04  0.00000000000E+00 0. -1.
        -11    1    3    3    0    0 -0.39086446068E+03 -0.87762715392E+03 -0.91386400661E+03  0.13259531932E+04  0.00000000000E+00 0.  1.
         22    1    1    2    0    0  0.75032805852E+03  0.17470324422E+04  0.15827566644E+03  0.19079218370E+04  0.00000000000E+00 0. -1.
<mgrwt>
<rscale>  0 0.41877039E+04</rscale>
<asrwt>0</asrwt>
<pdfrwt beam="1">  1        2 0.46277084E+00 0.41877039E+04</pdfrwt>
<pdfrwt beam="2">  1       -2 0.22423286E+00 0.41877039E+04</pdfrwt>
<totfact> 0.12421055E-01</totfact>
</mgrwt>
</event>
<event>
 6    1  0.5026615E-004  0.1518635E+04  0.7818608E-02  0.8872154E-01
         -2   -1    0    0    0  501 -0.00000000000E+00  0.00000000000E+00  0.19393474251E+03  0.19393474251E+03  0.00000000000E+00 0. -1.
          2   -1    0    0  501    0  0.00000000000E+00 -0.00000000000E+00 -0.29729753717E+04  0.29729753717E+04  0.00000000000E+00 0.  1.
         23    2    1    2    0    0  0.24135663292E+03 -0.20218942543E+03 -0.28291712643E+04  0.28480893675E+04  0.90936319463E+02 0.  0.
         13    1    3    3    0    0  0.20922471460E+03 -0.12414305155E+03 -0.20810156004E+04  0.20951879170E+04  0.00000000000E+00 0.  1.
        -13    1    3    3    0    0  0.32131918318E+02 -0.78046373876E+02 -0.74815566391E+03  0.75290145045E+03  0.00000000000E+00 0. -1.
         22    1    1    2    0    0 -0.24135663292E+03  0.20218942543E+03  0.50130635081E+02  0.31882074679E+03  0.00000000000E+00 0. -1.
<mgrwt>
<rscale>  0 0.15186352E+04</rscale>
<asrwt>0</asrwt>
<pdfrwt beam="1">  1        2 0.45738080E+00 0.15186352E+04</pdfrwt>
<pdfrwt beam="2">  1       -2 0.29836116E-01 0.15186352E+04</pdfrwt>
<totfact> 0.18217638E+01</totfact>
</mgrwt>
</event>
<event>
 6    1  0.5026615E-004  0.3116463E+04  0.7818608E-02  0.8211234E-01
         -2   -1    0    0    0  501 -0.00000000000E+00  0.00000000000E+00  0.25231079352E+04  0.25231079352E+04  0.00000000000E+00 0. -1.
          2   -1    0    0  501    0  0.00000000000E+00 -0.00000000000E+00 -0.96233911037E+03  0.96233911037E+03  0.00000000000E+00 0.  1.
         23    2    1    2    0    0 -0.97915577176E+03 -0.12280125728E+02  0.21348359640E+04  0.23503479718E+04  0.87830338149E+02 0.  0.
         11    1    3    3    0    0 -0.37289479580E+03  0.36112045994E+02  0.78413350386E+03  0.86903392366E+03  0.00000000000E+00 0. -1.
        -11    1    3    3    0    0 -0.60626097596E+03 -0.48392171722E+02  0.13507024602E+04  0.14813140481E+04  0.00000000000E+00 0.  1.
         22    1    1    2    0    0  0.97915577176E+03  0.12280125728E+02 -0.57406713924E+03  0.11350990737E+04  0.00000000000E+00 0.  1.
<mgrwt>
<rscale>  0 0.31164630E+04</rscale>
<asrwt>0</asrwt>
<pdfrwt beam="1">  1        2 0.14805217E+00 0.31164630E+04</pdfrwt>
<pdfrwt beam="2">  1       -2 0.38817045E+00 0.31164630E+04</pdfrwt>
<totfact> 0.20013594E-01</totfact>
</mgrwt>
</event>
<event>
 6    1  0.5026615E-004  0.1295386E+04  0.7818608E-02  0.9033232E-01
         -2   -1    0    0    0  501 -0.00000000000E+00  0.00000000000E+00  0.68002522280E+03  0.68002522280E+03  0.00000000000E+00 0. -1.
          2   -1    0    0  501    0  0.00000000000E+00 -0.00000000000E+00 -0.61689810859E+03  0.61689810859E+03  0.00000000000E+00 0.  1.
         23    2    1    2    0    0  0.25937431079E+03 -0.54722773704E+03  0.25298890424E+03  0.66227324781E+03  0.88708735803E+02 0.  0.
         11    1    3    3    0    0  0.12220898619E+03 -0.18661691684E+03  0.60639228744E+02  0.23116666286E+03  0.00000000000E+00 0. -1.
        -11    1    3    3    0    0  0.13716532460E+03 -0.36061082020E+03  0.19234967549E+03  0.43110658494E+03  0.00000000000E+00 0.  1.
         22    1    1    2    0    0 -0.25937431079E+03  0.54722773704E+03 -0.18986179002E+03  0.63465008359E+03  0.00000000000E+00 0.  1.
<mgrwt>
<rscale>  0 0.12953861E+04</rscale>
<asrwt>0</asrwt>
<pdfrwt beam="1">  1        2 0.94907401E-01 0.12953861E+04</pdfrwt>
<pdfrwt beam="2">  1       -2 0.10461927E+00 0.12953861E+04</pdfrwt>
<totfact> 0.34866384E+01</totfact>
</mgrwt>
</event>
<event>
 6    1  0.5026615E-004  0.2691418E+04  0.7818608E-02  0.8337795E-01
          1   -1    0    0  501    0  0.00000000000E+00  0.00000000000E+00  0.79408859814E+03  0.79408859814E+03  0.00000000000E+00 0.  1.
         -1   -1    0    0    0  501 -0.00000000000E+00 -0.00000000000E+00 -0.22805180290E+04  0.22805180290E+04  0.00000000000E+00 0. -1.
         23    2    1    2    0    0  0.32542215262E+03  0.12763918751E+04 -0.10496733579E+04  0.16868632562E+04  0.92831517175E+02 0.  0.
         11    1    3    3    0    0  0.19528763203E+03  0.57943251267E+03 -0.48052187720E+03  0.77767639184E+03  0.00000000000E+00 0.  1.
        -11    1    3    3    0    0  0.13013452059E+03  0.69695936243E+03 -0.56915148074E+03  0.90918686438E+03  0.00000000000E+00 0. -1.
         22    1    1    2    0    0 -0.32542215262E+03 -0.12763918751E+04 -0.43675607288E+03  0.13877433709E+04  0.00000000000E+00 0.  1.
<mgrwt>
<rscale>  0 0.26914185E+04</rscale>
<asrwt>0</asrwt>
<pdfrwt beam="1">  1        1 0.12216748E+00 0.26914185E+04</pdfrwt>
<pdfrwt beam="2">  1       -1 0.35084892E+00 0.26914185E+04</pdfrwt>
<totfact> 0.29985345E-01</totfact>
</mgrwt>
</event>
<event>
 6    1  0.5026615E-004  0.1890852E+04  0.7818608E-02  0.8659423E-01
          2   -1    0    0  501    0  0.00000000000E+00  0.00000000000E+00  0.19383541734E+04  0.19383541734E+04  0.00000000000E+00 0.  1.
         -2   -1    0    0    0  501 -0.00000000000E+00 -0.00000000000E+00 -0.46112846648E+03  0.46112846648E+03  0.00000000000E+00 0. -1.
         23    2    1    2    0    0  0.22200683775E+02  0.18938995681E+03  0.19125494653E+04  0.19242267081E+04  0.91877858003E+02 0.  0.
         11    1    3    3    0    0  0.12178920005E+02  0.12607190770E+03  0.81270656909E+03  0.82251712410E+03  0.00000000000E+00 0. -1.
        -11    1    3    3    0    0  0.10021763771E+02  0.63318049113E+02  0.10998428963E+04  0.11017095840E+04  0.00000000000E+00 0.  1.
         22    1    1    2    0    0 -0.22200683775E+02 -0.18938995681E+03 -0.43532375838E+03  0.47525593180E+03  0.00000000000E+00 0. -1.
<mgrwt>
<rscale>  0 0.18908520E+04</rscale>
<asrwt>0</asrwt>
<pdfrwt beam="1">  1        2 0.29820833E+00 0.18908520E+04</pdfrwt>
<pdfrwt beam="2">  1       -2 0.70942842E-01 0.18908520E+04</pdfrwt>
<totfact> 0.12231823E+01</totfact>
</mgrwt>
</event>
<event>
 6    1  0.5026615E-004  0.5258101E+03  0.7818608E-02  0.1007253E+00
         -2   -1    0    0    0  501 -0.00000000000E+00  0.00000000000E+00  0.38152492424E+02  0.38152492424E+02  0.00000000000E+00 0. -1.
          2   -1    0    0  501    0  0.00000000000E+00 -0.00000000000E+00 -0.18116528958E+04  0.18116528958E+04  0.00000000000E+00 0.  1.
         23    2    1    2    0    0  0.51856764769E+02  0.24621858826E+03 -0.10584244322E+04  0.10917510618E+04  0.91353078846E+02 0.  0.
         13    1    3    3    0    0 -0.15119756937E+01  0.13221615280E+03 -0.39655574657E+03  0.41801896760E+03  0.00000000000E+00 0. -1.
        -13    1    3    3    0    0  0.53368740462E+02  0.11400243545E+03 -0.66186868558E+03  0.67373209416E+03  0.00000000000E+00 0.  1.
         22    1    1    2    0    0 -0.51856764769E+02 -0.24621858826E+03 -0.71507597123E+03  0.75805432648E+03  0.00000000000E+00 0.  1.
<mgrwt>
<rscale>  0 0.52581013E+03</rscale>
<asrwt>0</asrwt>
<pdfrwt beam="1">  1        2 0.27871592E+00 0.52581013E+03</pdfrwt>
<pdfrwt beam="2">  1       -2 0.58696124E-02 0.52581013E+03</pdfrwt>
<totfact> 0.14065618E+03</totfact>
</mgrwt>
</event>
<event>
 6    1  0.5026615E-004  0.4187089E+04  0.7818608E-02  0.7967833E-01
         -2   -1    0    0    0  501 -0.00000000000E+00  0.00000000000E+00  0.19730751734E+04  0.19730751734E+04  0.00000000000E+00 0. -1.
          2   -1    0    0  501    0  0.00000000000E+00 -0.00000000000E+00 -0.22213691055E+04  0.22213691055E+04  0.00000000000E+00 0.  1.
         23    2    1    2    0    0 -0.78857461421E+03 -0.33895013367E+03  0.17875428522E+04  0.19850623455E+04  0.91792984707E+02 0.  0.
         13    1    3    3    0    0 -0.16099225354E+03 -0.54471222286E+02  0.43728035700E+03  0.46914787687E+03  0.00000000000E+00 0.  1.
        -13    1    3    3    0    0 -0.62758236066E+03 -0.28447891138E+03  0.13502624952E+04  0.15159144686E+04  0.00000000000E+00 0. -1.
         22    1    1    2    0    0  0.78857461421E+03  0.33895013367E+03 -0.20358367843E+04  0.22093819334E+04  0.00000000000E+00 0.  1.
<mgrwt>
<rscale>  0 0.41870888E+04</rscale>
<asrwt>0</asrwt>
<pdfrwt beam="1">  1        2 0.34174909E+00 0.41870888E+04</pdfrwt>
<pdfrwt beam="2">  1       -2 0.30355003E+00 0.41870888E+04</pdfrwt>
<totfact> 0.11799273E-01</totfact>
</mgrwt>
</event>
<event>
 6    1  0.5026615E-004  0.2313712E+04  0.7818608E-02  0.8472534E-01
         -2   -1    0    0    0  501 -0.00000000000E+00  0.00000000000E+00  0.11940845535E+04  0.11940845535E+04  0.00000000000E+00 0. -1.
          2   -1    0    0  501    0  0.00000000000E+00 -0.00000000000E+00 -0.11207884813E+04  0.11207884813E+04  0.00000000000E+00 0.  1.
         23    2    1    2    0    0  0.14929116303E+02 -0.41965085914E+03  0.11132849723E+04  0.11933086655E+04  0.90842828889E+02 0.  0.
         13    1    3    3    0    0  0.14505736600E+02 -0.77815934582E+02  0.12894673142E+03  0.15130431459E+03  0.00000000000E+00 0. -1.
        -13    1    3    3    0    0  0.42337970248E+00 -0.34183492456E+03  0.98433824084E+03  0.10420043509E+04  0.00000000000E+00 0.  1.
         22    1    1    2    0    0 -0.14929116303E+02  0.41965085914E+03 -0.10399889001E+04  0.11215643692E+04  0.00000000000E+00 0.  1.
<mgrwt>
<rscale>  0 0.23137124E+04</rscale>
<asrwt>0</asrwt>
<pdfrwt beam="1">  1        2 0.17242900E+00 0.23137124E+04</pdfrwt>
<pdfrwt beam="2">  1       -2 0.18370532E+00 0.23137124E+04</pdfrwt>
<totfact> 0.32754361E+00</totfact>
</mgrwt>
</event>
<event>
 6    1  0.5026615E-004  0.2086500E+04  0.7818608E-02  0.8567214E-01
          2   -1    0    0  501    0  0.00000000000E+00  0.00000000000E+00  0.26872667193E+04  0.26872667193E+04  0.00000000000E+00 0.  1.
         -2   -1    0    0    0  501 -0.00000000000E+00 -0.00000000000E+00 -0.40501034981E+03  0.40501034981E+03  0.00000000000E+00 0. -1.
         23    2    1    2    0    0 -0.20810628541E+03 -0.49865364729E+03  0.24624597485E+04  0.25226834036E+04  0.90883749226E+02 0.  0.
         11    1    3    3    0    0 -0.12434767804E+03 -0.18946271488E+03  0.94720713562E+03  0.97394035912E+03  0.00000000000E+00 0. -1.
        -11    1    3    3    0    0 -0.83758607365E+02 -0.30919093241E+03  0.15152526129E+04  0.15487430445E+04  0.00000000000E+00 0.  1.
         22    1    1    2    0    0  0.20810628541E+03  0.49865364729E+03 -0.18020337900E+03  0.56959366551E+03  0.00000000000E+00 0. -1.
<mgrwt>
<rscale>  0 0.20865003E+04</rscale>
<asrwt>0</asrwt>
<pdfrwt beam="1">  1        2 0.41342564E+00 0.20865003E+04</pdfrwt>
<pdfrwt beam="2">  1       -2 0.62309286E-01 0.20865003E+04</pdfrwt>
<totfact> 0.59634144E+00</totfact>
</mgrwt>
</event>
<event>
 6    1  0.5026615E-004  0.1958434E+04  0.7818608E-02  0.8626305E-01
         -2   -1    0    0    0  501 -0.00000000000E+00  0.00000000000E+00  0.13913574921E+04  0.13913574921E+04  0.00000000000E+00 0. -1.
          2   -1    0    0  501    0  0.00000000000E+00 -0.00000000000E+00 -0.68915841215E+03  0.68915841215E+03  0.00000000000E+00 0.  1.
         23    2    1    2    0    0  0.79976929274E+03  0.10057293085E+03 -0.23486333481E+03  0.84446096808E+03  0.90596382631E+02 0.  0.
         11    1    3    3    0    0  0.35419720861E+03  0.17884760887E+02 -0.65372322954E+02  0.36062316601E+03  0.00000000000E+00 0. -1.
        -11    1    3    3    0    0  0.44557208413E+03  0.82688169959E+02 -0.16949101186E+03  0.48383780207E+03  0.00000000000E+00 0.  1.
         22    1    1    2    0    0 -0.79976929274E+03 -0.10057293085E+03  0.93706241475E+03  0.12360549361E+04  0.00000000000E+00 0. -1.
<mgrwt>
<rscale>  0 0.19584338E+04</rscale>
<asrwt>0</asrwt>
<pdfrwt beam="1">  1        2 0.10602437E+00 0.19584338E+04</pdfrwt>
<pdfrwt beam="2">  1       -2 0.21405500E+00 0.19584338E+04</pdfrwt>
<totfact> 0.41985685E+00</totfact>
</mgrwt>
</event>
<event>
 6    1  0.5026615E-004  0.4728892E+04  0.7818608E-02  0.7871746E-01
         -2   -1    0    0    0  501 -0.00000000000E+00  0.00000000000E+00  0.15380545487E+04  0.15380545487E+04  0.00000000000E+00 0. -1.
          2   -1    0    0  501    0  0.00000000000E+00 -0.00000000000E+00 -0.36348541364E+04  0.36348541364E+04  0.00000000000E+00 0.  1.
         23    2    1    2    0    0 -0.15539016531E+04  0.47347541660E+03  0.82925568591E+03  0.18261806140E+04  0.92094108279E+02 0.  0.
         13    1    3    3    0    0 -0.95905627033E+03  0.25379855995E+03  0.53477180604E+03  0.11270241893E+04  0.00000000000E+00 0. -1.
        -13    1    3    3    0    0 -0.59484538277E+03  0.21967685664E+03  0.29448387987E+03  0.69915642474E+03  0.00000000000E+00 0.  1.
         22    1    1    2    0    0  0.15539016531E+04 -0.47347541660E+03 -0.29260552736E+04  0.33467280711E+04  0.00000000000E+00 0.  1.
<mgrwt>
<rscale>  0 0.47288916E+04</rscale>
<asrwt>0</asrwt>
<pdfrwt beam="1">  1        2 0.55920832E+00 0.47288916E+04</pdfrwt>
<pdfrwt beam="2">  1       -2 0.23662378E+00 0.47288916E+04</pdfrwt>
<totfact> 0.37578500E-02</totfact>
</mgrwt>
</event>
<event>
 6    1  0.5026615E-004  0.4002968E+03  0.7818608E-02  0.1043677E+00
          2   -1    0    0  501    0  0.00000000000E+00  0.00000000000E+00  0.47494216047E+03  0.47494216047E+03  0.00000000000E+00 0.  1.
         -2   -1    0    0    0  501 -0.00000000000E+00 -0.00000000000E+00 -0.84345792314E+02  0.84345792314E+02  0.00000000000E+00 0. -1.
         23    2    1    2    0    0  0.14361738767E+03  0.88451578190E+02  0.32724730388E+03  0.37911376021E+03  0.90480990065E+02 0.  0.
         13    1    3    3    0    0  0.86892561398E+02  0.33175201628E+02  0.91725995871E+02  0.13063142634E+03  0.00000000000E+00 0.  1.
        -13    1    3    3    0    0  0.56724826267E+02  0.55276376562E+02  0.23552130801E+03  0.24848233387E+03  0.00000000000E+00 0. -1.
         22    1    1    2    0    0 -0.14361738767E+03 -0.88451578190E+02  0.63349064280E+02  0.18017419257E+03  0.00000000000E+00 0. -1.
<mgrwt>
<rscale>  0 0.40029675E+03</rscale>
<asrwt>0</asrwt>
<pdfrwt beam="1">  1        2 0.73068023E-01 0.40029675E+03</pdfrwt>
<pdfrwt beam="2">  1       -2 0.12976276E-01 0.40029675E+03</pdfrwt>
<totfact> 0.28870328E+03</totfact>
</mgrwt>
</event>
<event>
 6    1  0.5026615E-004  0.1725773E+04  0.7818608E-02  0.8746800E-01
          2   -1    0    0  501    0  0.00000000000E+00  0.00000000000E+00  0.98759461146E+03  0.98759461146E+03  0.00000000000E+00 0.  1.
         -2   -1    0    0    0  501 -0.00000000000E+00 -0.00000000000E+00 -0.75392567401E+03  0.75392567401E+03  0.00000000000E+00 0. -1.
         23    2    1    2    0    0  0.88261236860E+02 -0.76535570356E+03 -0.26939222936E+03  0.82139532849E+03  0.92513315411E+02 0.  0.
         11    1    3    3    0    0  0.55775602176E+02 -0.43767634889E+03 -0.10585799571E+03  0.45373716999E+03  0.00000000000E+00 0. -1.
        -11    1    3    3    0    0  0.32485634684E+02 -0.32767935467E+03 -0.16353423365E+03  0.36765815850E+03  0.00000000000E+00 0.  1.
         22    1    1    2    0    0 -0.88261236860E+02  0.76535570356E+03  0.50306116682E+03  0.92012495698E+03  0.00000000000E+00 0.  1.
<mgrwt>
<rscale>  0 0.17257728E+04</rscale>
<asrwt>0</asrwt>
<pdfrwt beam="1">  1        2 0.15193763E+00 0.17257728E+04</pdfrwt>
<pdfrwt beam="2">  1       -2 0.11598857E+00 0.17257728E+04</pdfrwt>
<totfact> 0.14070244E+01</totfact>
</mgrwt>
</event>
<event>
 6    1  0.5026615E-004  0.4108355E+03  0.7818608E-02  0.1040091E+00
         -2   -1    0    0    0  501 -0.00000000000E+00  0.00000000000E+00  0.72799523278E+02  0.72799523278E+02  0.00000000000E+00 0. -1.
          2   -1    0    0  501    0  0.00000000000E+00 -0.00000000000E+00 -0.57962545371E+03  0.57962545371E+03  0.00000000000E+00 0.  1.
         23    2    1    2    0    0  0.11014584687E+03 -0.19855063721E+02 -0.12360912719E+02  0.14545161982E+03  0.92070898805E+02 0.  0.
         13    1    3    3    0    0  0.24102141354E+02  0.13947700771E+02 -0.40202324602E+02  0.48904789929E+02  0.00000000000E+00 0.  1.
        -13    1    3    3    0    0  0.86043705515E+02 -0.33802764492E+02  0.27841411882E+02  0.96546829889E+02  0.00000000000E+00 0. -1.
         22    1    1    2    0    0 -0.11014584687E+03  0.19855063721E+02 -0.49446501772E+03  0.50697335717E+03  0.00000000000E+00 0.  1.
<mgrwt>
<rscale>  0 0.41083552E+03</rscale>
<asrwt>0</asrwt>
<pdfrwt beam="1">  1        2 0.89173143E-01 0.41083552E+03</pdfrwt>
<pdfrwt beam="2">  1       -2 0.11199927E-01 0.41083552E+03</pdfrwt>
<totfact> 0.29222826E+03</totfact>
</mgrwt>
</event>
<event>
 6    1  0.5026615E-004  0.2082866E+04  0.7818608E-02  0.8568829E-01
         -2   -1    0    0    0  501 -0.00000000000E+00  0.00000000000E+00  0.55557466296E+03  0.55557466296E+03  0.00000000000E+00 0. -1.
          2   -1    0    0  501    0  0.00000000000E+00 -0.00000000000E+00 -0.19521810077E+04  0.19521810077E+04  0.00000000000E+00 0.  1.
         23    2    1    2    0    0  0.57669452507E+03  0.81076855755E+03 -0.33766794436E+03  0.10547337283E+04  0.92311255078E+02 0.  0.
         11    1    3    3    0    0  0.48761764143E+03  0.62167820391E+03 -0.27314713981E+03  0.83598092888E+03  0.00000000000E+00 0.  1.
        -11    1    3    3    0    0  0.89076883632E+02  0.18909035364E+03 -0.64520804548E+02  0.21875279943E+03  0.00000000000E+00 0. -1.
         22    1    1    2    0    0 -0.57669452507E+03 -0.81076855755E+03 -0.10589384004E+04  0.14530219424E+04  0.00000000000E+00 0. -1.
<mgrwt>
<rscale>  0 0.20828656E+04</rscale>
<asrwt>0</asrwt>
<pdfrwt beam="1">  1        2 0.30033554E+00 0.20828656E+04</pdfrwt>
<pdfrwt beam="2">  1       -2 0.85473024E-01 0.20828656E+04</pdfrwt>
<totfact> 0.77982578E+00</totfact>
</mgrwt>
</event>
<event>
 6    1  0.5026615E-004  0.3680163E+04  0.7818608E-02  0.8072372E-01
          2   -1    0    0  501    0  0.00000000000E+00  0.00000000000E+00  0.23157913370E+04  0.23157913370E+04  0.00000000000E+00 0.  1.
         -2   -1    0    0    0  501 -0.00000000000E+00 -0.00000000000E+00 -0.14620922033E+04  0.14620922033E+04  0.00000000000E+00 0. -1.
         23    2    1    2    0    0  0.16310708887E+04 -0.33556039519E+03 -0.37388786611E+03  0.17090764287E+04  0.90316554805E+02 0.  0.
         11    1    3    3    0    0  0.11798023653E+04 -0.28145397494E+03 -0.25830923236E+03  0.12401103260E+04  0.00000000000E+00 0.  1.
        -11    1    3    3    0    0  0.45126852336E+03 -0.54106420254E+02 -0.11557863375E+03  0.46896610269E+03  0.00000000000E+00 0. -1.
         22    1    1    2    0    0 -0.16310708887E+04  0.33556039519E+03  0.12275869998E+04  0.20688071116E+04  0.00000000000E+00 0. -1.
<mgrwt>
<rscale>  0 0.36801633E+04</rscale>
<asrwt>0</asrwt>
<pdfrwt beam="1">  1        2 0.35627559E+00 0.36801633E+04</pdfrwt>
<pdfrwt beam="2">  1       -2 0.22493726E+00 0.36801633E+04</pdfrwt>
<totfact> 0.33078152E-01</totfact>
</mgrwt>
</event>
<event>
 6    1  0.5026615E-004  0.2561160E+04  0.7818608E-02  0.8381515E-01
         -2   -1    0    0    0  501 -0.00000000000E+00  0.00000000000E+00  0.82157905425E+03  0.82157905425E+03  0.00000000000E+00 0. -1.
          2   -1    0    0  501    0  0.00000000000E+00 -0.00000000000E+00 -0.19960166044E+04  0.19960166044E+04  0.00000000000E+00 0.  1.
         23    2    1    2    0    0  0.15822530244E+03  0.28715613492E+03  0.77211636248E+03  0.84362351423E+03  0.89683133233E+02 0.  0.
         11    1    3    3    0    0  0.20205053478E+01  0.43175742598E+02  0.17044443530E+03  0.17583950840E+03  0.00000000000E+00 0. -1.
        -11    1    3    3    0    0  0.15620479710E+03  0.24398039232E+03  0.60167192718E+03  0.66778400582E+03  0.00000000000E+00 0.  1.
         22    1    1    2    0    0 -0.15822530244E+03 -0.28715613492E+03 -0.19465539126E+04  0.19739721444E+04  0.00000000000E+00 0.  1.
<mgrwt>
<rscale>  0 0.25611602E+04</rscale>
<asrwt>0</asrwt>
<pdfrwt beam="1">  1        2 0.30707947E+00 0.25611602E+04</pdfrwt>
<pdfrwt beam="2">  1       -2 0.12639678E+00 0.25611602E+04</pdfrwt>
<totfact> 0.27786512E+00</totfact>
</mgrwt>
</event>
<event>
 6    1  0.5026615E-004  0.3892760E+04  0.7818608E-02  0.8026537E-01
         -2   -1    0    0    0  501 -0.00000000000E+00  0.00000000000E+00  0.13639963624E+04  0.13639963624E+04  0.00000000000E+00 0. -1.
          2   -1    0    0  501    0  0.00000000000E+00 -0.00000000000E+00 -0.27774227822E+04  0.27774227822E+04  0.00000000000E+00 0.  1.
         23    2    1    2    0    0  0.14254248830E+04  0.63912761971E+03  0.52630629077E+03  0.16508603319E+04  0.89561779370E+02 0.  0.
         11    1    3    3    0    0  0.39078013935E+03  0.21201622731E+03  0.12604485776E+03  0.46211178747E+03  0.00000000000E+00 0. -1.
        -11    1    3    3    0    0  0.10346447437E+04  0.42711139241E+03  0.40026143301E+03  0.11887485444E+04  0.00000000000E+00 0.  1.
         22    1    1    2    0    0 -0.14254248830E+04 -0.63912761971E+03 -0.19397327105E+04  0.24905588128E+04  0.00000000000E+00 0.  1.
<mgrwt>
<rscale>  0 0.38927597E+04</rscale>
<asrwt>0</asrwt>
<pdfrwt beam="1">  1        2 0.42729581E+00 0.38927597E+04</pdfrwt>
<pdfrwt beam="2">  1       -2 0.20984560E+00 0.38927597E+04</pdfrwt>
<totfact> 0.21787314E-01</totfact>
</mgrwt>
</event>
<event>
 6    1  0.5026615E-004  0.4423992E+04  0.7818608E-02  0.7924080E-01
         -1   -1    0    0    0  501 -0.00000000000E+00  0.00000000000E+00  0.16427564048E+04  0.16427564048E+04  0.00000000000E+00 0. -1.
          1   -1    0    0  501    0  0.00000000000E+00 -0.00000000000E+00 -0.29784859116E+04  0.29784859116E+04  0.00000000000E+00 0.  1.
         23    2    1    2    0    0 -0.42636942719E+03  0.21693799370E+04 -0.64424300777E+03  0.23047463035E+04  0.93841734050E+02 0.  0.
         11    1    3    3    0    0 -0.15963212057E+03  0.76532835954E+03 -0.27373994913E+03  0.82833777626E+03  0.00000000000E+00 0. -1.
        -11    1    3    3    0    0 -0.26673730662E+03  0.14040515775E+04 -0.37050305864E+03  0.14764085273E+04  0.00000000000E+00 0.  1.
         22    1    1    2    0    0  0.42636942719E+03 -0.21693799370E+04 -0.69148649896E+03  0.23164960129E+04  0.00000000000E+00 0. -1.
<mgrwt>
<rscale>  0 0.44239922E+04</rscale>
<asrwt>0</asrwt>
<pdfrwt beam="1">  1        1 0.45822859E+00 0.44239922E+04</pdfrwt>
<pdfrwt beam="2">  1       -1 0.25273176E+00 0.44239922E+04</pdfrwt>
<totfact> 0.31344951E-02</totfact>
</mgrwt>
</event>
<event>
 6    1  0.5026615E-004  0.1041443E+04  0.7818608E-02  0.9264224E-01
         -2   -1    0    0    0  501 -0.00000000000E+00  0.00000000000E+00  0.10220772390E+03  0.10220772390E+03  0.00000000000E+00 0. -1.
          2   -1    0    0  501    0  0.00000000000E+00 -0.00000000000E+00 -0.26529370272E+04  0.26529370272E+04  0.00000000000E+00 0.  1.
         23    2    1    2    0    0  0.19934573954E+02 -0.12185332966E+03 -0.26124539338E+04  0.26171029053E+04  0.95217852608E+02 0.  0.
         11    1    3    3    0    0 -0.37670379964E+02 -0.45586635942E+02 -0.84517489190E+03  0.84724128606E+03  0.00000000000E+00 0. -1.
        -11    1    3    3    0    0  0.57604953918E+02 -0.76266693719E+02 -0.17672790419E+04  0.17698616192E+04  0.00000000000E+00 0.  1.
         22    1    1    2    0    0 -0.19934573954E+02  0.12185332966E+03  0.61724630486E+02  0.13804184582E+03  0.00000000000E+00 0. -1.
<mgrwt>
<rscale>  0 0.10414426E+04</rscale>
<asrwt>0</asrwt>
<pdfrwt beam="1">  1        2 0.40814415E+00 0.10414426E+04</pdfrwt>
<pdfrwt beam="2">  1       -2 0.15724265E-01 0.10414426E+04</pdfrwt>
<totfact> 0.92707208E+01</totfact>
</mgrwt>
</event>
<event>
 6    1  0.5026615E-004  0.2573926E+03  0.7818608E-02  0.1108720E+00
          2   -1    0    0  501    0  0.00000000000E+00  0.00000000000E+00  0.76988302894E+03  0.76988302894E+03  0.00000000000E+00 0.  1.
         -2   -1    0    0    0  501 -0.00000000000E+00 -0.00000000000E+00 -0.21513314406E+02  0.21513314406E+02  0.00000000000E+00 0. -1.
         23    2    1    2    0    0  0.31533681695E+02 -0.82975928824E+02  0.62993455622E+03  0.64338869297E+03  0.96187770932E+02 0.  0.
         13    1    3    3    0    0 -0.18934566965E+02 -0.58334799586E+02  0.46778252366E+03  0.47178592191E+03  0.00000000000E+00 0.  1.
        -13    1    3    3    0    0  0.50468248660E+02 -0.24641129238E+02  0.16215203255E+03  0.17160277106E+03  0.00000000000E+00 0. -1.
         22    1    1    2    0    0 -0.31533681695E+02  0.82975928824E+02  0.11843515832E+03  0.14800765038E+03  0.00000000000E+00 0. -1.
<mgrwt>
<rscale>  0 0.25739258E+03</rscale>
<asrwt>0</asrwt>
<pdfrwt beam="1">  1        2 0.11844352E+00 0.25739258E+03</pdfrwt>
<pdfrwt beam="2">  1       -2 0.33097413E-02 0.25739258E+03</pdfrwt>
<totfact> 0.13521273E+04</totfact>
</mgrwt>
</event>
<event>
 6    1  0.5026615E-004  0.2861913E+04  0.7818608E-02  0.8284300E-01
          2   -1    0    0  501    0  0.00000000000E+00  0.00000000000E+00  0.17869027277E+04  0.17869027277E+04  0.00000000000E+00 0.  1.
         -2   -1    0    0    0  501 -0.00000000000E+00 -0.00000000000E+00 -0.11459140226E+04  0.11459140226E+04  0.00000000000E+00 0. -1.
         23    2    1    2    0    0  0.12639389694E+04 -0.49797966803E+03  0.77659499128E+03  0.15675641975E+04  0.92909981638E+02 0.  0.
         13    1    3    3    0    0  0.17721810300E+03 -0.72747932579E+02  0.14798230078E+03  0.24206874864E+03  0.00000000000E+00 0.  1.
        -13    1    3    3    0    0  0.10867208664E+04 -0.42523173546E+03  0.62861269049E+03  0.13254954488E+04  0.00000000000E+00 0. -1.
         22    1    1    2    0    0 -0.12639389694E+04  0.49797966803E+03 -0.13560628617E+03  0.13652525528E+04  0.00000000000E+00 0. -1.
<mgrwt>
<rscale>  0 0.28619133E+04</rscale>
<asrwt>0</asrwt>
<pdfrwt beam="1">  1        2 0.27490811E+00 0.28619133E+04</pdfrwt>
<pdfrwt beam="2">  1       -2 0.17629447E+00 0.28619133E+04</pdfrwt>
<totfact> 0.14619081E+00</totfact>
</mgrwt>
</event>
<event>
 6    1  0.5026615E-004  0.3368084E+04  0.7818608E-02  0.8145784E-01
         -2   -1    0    0    0  501 -0.00000000000E+00  0.00000000000E+00  0.78753039245E+03  0.78753039245E+03  0.00000000000E+00 0. -1.
          2   -1    0    0  501    0  0.00000000000E+00 -0.00000000000E+00 -0.36011273136E+04  0.36011273136E+04  0.00000000000E+00 0.  1.
         23    2    1    2    0    0 -0.61087221796E+03  0.10309467248E+04 -0.29472024691E+04  0.31828938575E+04  0.93781120557E+02 0.  0.
         13    1    3    3    0    0 -0.23021896299E+03  0.41440926357E+03 -0.10510324759E+04  0.11529982975E+04  0.00000000000E+00 0.  1.
        -13    1    3    3    0    0 -0.38065325497E+03  0.61653746122E+03 -0.18961699932E+04  0.20298955600E+04  0.00000000000E+00 0. -1.
         22    1    1    2    0    0  0.61087221796E+03 -0.10309467248E+04  0.13360554790E+03  0.12057638485E+04  0.00000000000E+00 0. -1.
<mgrwt>
<rscale>  0 0.33680839E+04</rscale>
<asrwt>0</asrwt>
<pdfrwt beam="1">  1        2 0.55401958E+00 0.33680839E+04</pdfrwt>
<pdfrwt beam="2">  1       -2 0.12115852E+00 0.33680839E+04</pdfrwt>
<totfact> 0.29625194E-01</totfact>
</mgrwt>
</event>
<event>
 6    1  0.5026615E-004  0.1347191E+04  0.7818608E-02  0.8992957E-01
          2   -1    0    0  501    0  0.00000000000E+00  0.00000000000E+00  0.20089034919E+04  0.20089034919E+04  0.00000000000E+00 0.  1.
         -2   -1    0    0    0  501 -0.00000000000E+00 -0.00000000000E+00 -0.22585987707E+03  0.22585987707E+03  0.00000000000E+00 0. -1.
         23    2    1    2    0    0  0.14206918086E+03  0.61650215112E+03  0.12644877509E+04  0.14167421354E+04  0.89277385936E+02 0.  0.
         13    1    3    3    0    0  0.33458090095E+02  0.26368707853E+03  0.60843828150E+03  0.66396344898E+03  0.00000000000E+00 0. -1.
        -13    1    3    3    0    0  0.10861109076E+03  0.35281507259E+03  0.65604946939E+03  0.75277868645E+03  0.00000000000E+00 0.  1.
         22    1    1    2    0    0 -0.14206918086E+03 -0.61650215112E+03  0.51855586389E+03  0.81802123350E+03  0.00000000000E+00 0.  1.
<mgrwt>
<rscale>  0 0.13471907E+04</rscale>
<asrwt>0</asrwt>
<pdfrwt beam="1">  1        2 0.30906206E+00 0.13471907E+04</pdfrwt>
<pdfrwt beam="2">  1       -2 0.34747675E-01 0.13471907E+04</pdfrwt>
<totfact> 0.50166451E+01</totfact>
</mgrwt>
</event>
<event>
 6    1  0.5026615E-004  0.1440485E+04  0.7818608E-02  0.8925024E-01
          2   -1    0    0  501    0  0.00000000000E+00  0.00000000000E+00  0.25912604693E+04  0.25912604693E+04  0.00000000000E+00 0.  1.
         -2   -1    0    0    0  501 -0.00000000000E+00 -0.00000000000E+00 -0.20019177862E+03  0.20019177862E+03  0.00000000000E+00 0. -1.
         23    2    1    2    0    0  0.43758996564E+03 -0.56407370613E+03  0.13362730361E+04  0.15177733257E+04  0.91357086575E+02 0.  0.
         11    1    3    3    0    0  0.12132511994E+03 -0.22712593376E+03  0.49077069598E+03  0.55422184235E+03  0.00000000000E+00 0. -1.
        -11    1    3    3    0    0  0.31626484570E+03 -0.33694777238E+03  0.84550234016E+03  0.96355148339E+03  0.00000000000E+00 0.  1.
         22    1    1    2    0    0 -0.43758996564E+03  0.56407370613E+03  0.10547956546E+04  0.12736789222E+04  0.00000000000E+00 0. -1.
<mgrwt>
<rscale>  0 0.14404847E+04</rscale>
<asrwt>0</asrwt>
<pdfrwt beam="1">  1        2 0.39865543E+00 0.14404847E+04</pdfrwt>
<pdfrwt beam="2">  1       -2 0.30798737E-01 0.14404847E+04</pdfrwt>
<totfact> 0.29292240E+01</totfact>
</mgrwt>
</event>
<event>
 6    1  0.5738933E-004  0.2599090E+04  0.7818608E-02  0.8368510E-01
         -2   -1    0    0    0  501 -0.00000000000E+00  0.00000000000E+00  0.13531515481E+04  0.13531515481E+04  0.00000000000E+00 0. -1.
          2   -1    0    0  501    0  0.00000000000E+00 -0.00000000000E+00 -0.12480623944E+04  0.12480623944E+04  0.00000000000E+00 0.  1.
         23    2    1    2    0    0 -0.47613352961E+03  0.46727346373E+03 -0.10616128724E+04  0.12572491938E+04  0.92768617536E+02 0.  0.
         11    1    3    3    0    0 -0.56841891607E+02  0.82892022487E+02 -0.21448455140E+03  0.23686644089E+03  0.00000000000E+00 0. -1.
        -11    1    3    3    0    0 -0.41929163801E+03  0.38438144124E+03 -0.84712832105E+03  0.10203827529E+04  0.00000000000E+00 0.  1.
         22    1    1    2    0    0  0.47613352961E+03 -0.46727346373E+03  0.11667020262E+04  0.13439647487E+04  0.00000000000E+00 0. -1.
<mgrwt>
<rscale>  0 0.25990903E+04</rscale>
<asrwt>0</asrwt>
<pdfrwt beam="1">  1        2 0.19200960E+00 0.25990903E+04</pdfrwt>
<pdfrwt beam="2">  1       -2 0.20817716E+00 0.25990903E+04</pdfrwt>
<totfact> 0.18457314E+00</totfact>
</mgrwt>
</event>
<event>
 6    1  0.5026615E-004  0.3268566E+04  0.7818608E-02  0.8170940E-01
          2   -1    0    0  501    0  0.00000000000E+00  0.00000000000E+00  0.20999506220E+04  0.20999506220E+04  0.00000000000E+00 0.  1.
         -2   -1    0    0    0  501 -0.00000000000E+00 -0.00000000000E+00 -0.12718776335E+04  0.12718776335E+04  0.00000000000E+00 0. -1.
         23    2    1    2    0    0 -0.60132662135E+02  0.16062183171E+04  0.71165396559E+03  0.17602741582E+04  0.92523110311E+02 0.  0.
         13    1    3    3    0    0 -0.65940392351E+02  0.66178657513E+03  0.27269220999E+03  0.71879805770E+03  0.00000000000E+00 0. -1.
        -13    1    3    3    0    0  0.58077302164E+01  0.94443174201E+03  0.43896175560E+03  0.10414761005E+04  0.00000000000E+00 0.  1.
         22    1    1    2    0    0  0.60132662135E+02 -0.16062183171E+04  0.11641902294E+03  0.16115540972E+04  0.00000000000E+00 0.  1.
<mgrwt>
<rscale>  0 0.32685656E+04</rscale>
<asrwt>0</asrwt>
<pdfrwt beam="1">  1        2 0.32306933E+00 0.32685656E+04</pdfrwt>
<pdfrwt beam="2">  1       -2 0.19567348E+00 0.32685656E+04</pdfrwt>
<totfact> 0.69896808E-01</totfact>
</mgrwt>
</event>
<event>
 6    1  0.5026615E-004  0.3188226E+04  0.7818608E-02  0.8191934E-01
          2   -1    0    0  501    0  0.00000000000E+00  0.00000000000E+00  0.15942401736E+04  0.15942401736E+04  0.00000000000E+00 0.  1.
         -2   -1    0    0    0  501 -0.00000000000E+00 -0.00000000000E+00 -0.15939858513E+04  0.15939858513E+04  0.00000000000E+00 0. -1.
         23    2    1    2    0    0 -0.96066720779E+03  0.29873289109E+03  0.12348347591E+04  0.15956458293E+04  0.95634229871E+02 0.  0.
         11    1    3    3    0    0 -0.27237085369E+03  0.93554740538E+02  0.28870078066E+03  0.40778243240E+03  0.00000000000E+00 0.  1.
        -11    1    3    3    0    0 -0.68829635409E+03  0.20517815055E+03  0.94613397848E+03  0.11878633969E+04  0.00000000000E+00 0. -1.
         22    1    1    2    0    0  0.96066720779E+03 -0.29873289109E+03 -0.12345804368E+04  0.15925801956E+04  0.00000000000E+00 0. -1.
<mgrwt>
<rscale>  0 0.31882260E+04</rscale>
<asrwt>0</asrwt>
<pdfrwt beam="1">  1        2 0.24526772E+00 0.31882260E+04</pdfrwt>
<pdfrwt beam="2">  1       -2 0.24522859E+00 0.31882260E+04</pdfrwt>
<totfact> 0.65119920E-01</totfact>
</mgrwt>
</event>
<event>
 6    1  0.5026615E-004  0.1349891E+04  0.7818608E-02  0.8990911E-01
         -2   -1    0    0    0  501 -0.00000000000E+00  0.00000000000E+00  0.58125095899E+03  0.58125095899E+03  0.00000000000E+00 0. -1.
          2   -1    0    0  501    0  0.00000000000E+00 -0.00000000000E+00 -0.78374263911E+03  0.78374263911E+03  0.00000000000E+00 0.  1.
         23    2    1    2    0    0 -0.38757931357E+03  0.45476667768E+03  0.20916273228E+03  0.63939742206E+03  0.89719336437E+02 0.  0.
         11    1    3    3    0    0 -0.14249809977E+03  0.23580591989E+03  0.91131774245E+02  0.29019845032E+03  0.00000000000E+00 0. -1.
        -11    1    3    3    0    0 -0.24508121380E+03  0.21896075779E+03  0.11803095804E+03  0.34919897174E+03  0.00000000000E+00 0.  1.
         22    1    1    2    0    0  0.38757931357E+03 -0.45476667768E+03 -0.41165441241E+03  0.72559617604E+03  0.00000000000E+00 0.  1.
<mgrwt>
<rscale>  0 0.13498906E+04</rscale>
<asrwt>0</asrwt>
<pdfrwt beam="1">  1        2 0.12057579E+00 0.13498906E+04</pdfrwt>
<pdfrwt beam="2">  1       -2 0.89423225E-01 0.13498906E+04</pdfrwt>
<totfact> 0.37099834E+01</totfact>
</mgrwt>
</event>
<event>
 6    1  0.5026615E-004  0.1454503E+04  0.7818608E-02  0.8915285E-01
          2   -1    0    0  501    0  0.00000000000E+00  0.00000000000E+00  0.10631521707E+04  0.10631521707E+04  0.00000000000E+00 0.  1.
         -2   -1    0    0    0  501 -0.00000000000E+00 -0.00000000000E+00 -0.49747800163E+03  0.49747800163E+03  0.00000000000E+00 0. -1.
         23    2    1    2    0    0 -0.27007368960E+03  0.59319910324E+03  0.62346094738E+03  0.90628753602E+03  0.88479212982E+02 0.  0.
         13    1    3    3    0    0 -0.25947910356E+03  0.55052670621E+03  0.60634351774E+03  0.85910506979E+03  0.00000000000E+00 0. -1.
        -13    1    3    3    0    0 -0.10594586039E+02  0.42672397026E+02  0.17117429640E+02  0.47182466221E+02  0.00000000000E+00 0.  1.
         22    1    1    2    0    0  0.27007368960E+03 -0.59319910324E+03 -0.57786778362E+02  0.65434263628E+03  0.00000000000E+00 0.  1.
<mgrwt>
<rscale>  0 0.14545031E+04</rscale>
<asrwt>0</asrwt>
<pdfrwt beam="1">  1        2 0.16356187E+00 0.14545031E+04</pdfrwt>
<pdfrwt beam="2">  1       -2 0.76535077E-01 0.14545031E+04</pdfrwt>
<totfact> 0.33994404E+01</totfact>
</mgrwt>
</event>
<event>
 6    1  0.5026615E-004  0.3826487E+04  0.7818608E-02  0.8040495E-01
         -2   -1    0    0    0  501 -0.00000000000E+00  0.00000000000E+00  0.26926961157E+04  0.26926961157E+04  0.00000000000E+00 0. -1.
          2   -1    0    0  501    0  0.00000000000E+00 -0.00000000000E+00 -0.13594185823E+04  0.13594185823E+04  0.00000000000E+00 0.  1.
         23    2    1    2    0    0 -0.39565031039E+03 -0.14133905270E+04 -0.63086853842E+03  0.16001600203E+04  0.91131925637E+02 0.  0.
         11    1    3    3    0    0 -0.22576541287E+03 -0.71951995749E+03 -0.36643876943E+03  0.83842492963E+03  0.00000000000E+00 0.  1.
        -11    1    3    3    0    0 -0.16988489752E+03 -0.69387056948E+03 -0.26442976899E+03  0.76173509064E+03  0.00000000000E+00 0. -1.
         22    1    1    2    0    0  0.39565031039E+03  0.14133905270E+04  0.19641460719E+04  0.24519546777E+04  0.00000000000E+00 0. -1.
<mgrwt>
<rscale>  0 0.38264872E+04</rscale>
<asrwt>0</asrwt>
<pdfrwt beam="1">  1        2 0.20914132E+00 0.38264872E+04</pdfrwt>
<pdfrwt beam="2">  1       -2 0.41426094E+00 0.38264872E+04</pdfrwt>
<totfact> 0.73039218E-02</totfact>
</mgrwt>
</event>
<event>
 6    1  0.5026615E-004  0.5031962E+04  0.7818608E-02  0.7823596E-01
         -2   -1    0    0    0  501 -0.00000000000E+00  0.00000000000E+00  0.49088484477E+04  0.49088484477E+04  0.00000000000E+00 0. -1.
          2   -1    0    0  501    0  0.00000000000E+00 -0.00000000000E+00 -0.12895406900E+04  0.12895406900E+04  0.00000000000E+00 0.  1.
         23    2    1    2    0    0 -0.25014894690E+04  0.26041486491E+03  0.17760479022E+04  0.30802370631E+04  0.90822623150E+02 0.  0.
         13    1    3    3    0    0 -0.68349896127E+03  0.31253402722E+02  0.47362302209E+03  0.83214564368E+03  0.00000000000E+00 0.  1.
        -13    1    3    3    0    0 -0.18179905077E+04  0.22916146219E+03  0.13024248801E+04  0.22480914194E+04  0.00000000000E+00 0. -1.
         22    1    1    2    0    0  0.25014894690E+04 -0.26041486491E+03  0.18432598555E+04  0.31181520746E+04  0.00000000000E+00 0. -1.
<mgrwt>
<rscale>  0 0.50319618E+04</rscale>
<asrwt>0</asrwt>
<pdfrwt beam="1">  1        2 0.19839088E+00 0.50319618E+04</pdfrwt>
<pdfrwt beam="2">  1       -2 0.75520744E+00 0.50319618E+04</pdfrwt>
<totfact> 0.16614937E-03</totfact>
</mgrwt>
</event>
<event>
 6    1  0.5026615E-004  0.2457512E+04  0.7818608E-02  0.8418280E-01
          2   -1    0    0  501    0  0.00000000000E+00  0.00000000000E+00  0.24044487771E+04  0.24044487771E+04  0.00000000000E+00 0.  1.
         -2   -1    0    0    0  501 -0.00000000000E+00 -0.00000000000E+00 -0.62793646575E+03  0.62793646575E+03  0.00000000000E+00 0. -1.
         23    2    1    2    0    0  0.71386551278E+03  0.69438591757E+03  0.47668859499E+01  0.99993410561E+03  0.89831617540E+02 0.  0.
         11    1    3    3    0    0  0.32113253439E+03  0.25117515984E+03  0.68462987079E+01  0.40775229904E+03  0.00000000000E+00 0.  1.
        -11    1    3    3    0    0  0.39273297840E+03  0.44321075772E+03 -0.20794127580E+01  0.59218180658E+03  0.00000000000E+00 0. -1.
         22    1    1    2    0    0 -0.71386551278E+03 -0.69438591757E+03  0.17717454254E+04  0.20324511372E+04  0.00000000000E+00 0.  1.
<mgrwt>
<rscale>  0 0.24575118E+04</rscale>
<asrwt>0</asrwt>
<pdfrwt beam="1">  1        2 0.36991519E+00 0.24575118E+04</pdfrwt>
<pdfrwt beam="2">  1       -2 0.96605611E-01 0.24575118E+04</pdfrwt>
<totfact> 0.31692139E+00</totfact>
</mgrwt>
</event>
<event>
 6    1  0.5026615E-004  0.5125683E+04  0.7818608E-02  0.7809407E-01
         -2   -1    0    0    0  501 -0.00000000000E+00  0.00000000000E+00  0.52427677373E+04  0.52427677373E+04  0.00000000000E+00 0. -1.
          2   -1    0    0  501    0  0.00000000000E+00 -0.00000000000E+00 -0.12528033585E+04  0.12528033585E+04  0.00000000000E+00 0.  1.
         23    2    1    2    0    0 -0.12087276018E+04  0.13153698506E+04  0.43229620994E+04  0.46784008393E+04  0.90624727675E+02 0.  0.
         13    1    3    3    0    0 -0.43154255074E+03  0.49447795118E+03  0.14837011140E+04  0.16223767790E+04  0.00000000000E+00 0. -1.
        -13    1    3    3    0    0 -0.77718505106E+03  0.82089189940E+03  0.28392609854E+04  0.30560240603E+04  0.00000000000E+00 0.  1.
         22    1    1    2    0    0  0.12087276018E+04 -0.13153698506E+04 -0.33299772061E+03  0.18171702565E+04  0.00000000000E+00 0.  1.
<mgrwt>
<rscale>  0 0.51256832E+04</rscale>
<asrwt>0</asrwt>
<pdfrwt beam="1">  1        2 0.19273898E+00 0.51256832E+04</pdfrwt>
<pdfrwt beam="2">  1       -2 0.80657964E+00 0.51256832E+04</pdfrwt>
<totfact> 0.90229695E-04</totfact>
</mgrwt>
</event>
<event>
 6    1  0.5026615E-004  0.2661430E+04  0.7818608E-02  0.8347629E-01
          2   -1    0    0  501    0  0.00000000000E+00  0.00000000000E+00  0.72877149873E+03  0.72877149873E+03  0.00000000000E+00 0.  1.
         -2   -1    0    0    0  501 -0.00000000000E+00 -0.00000000000E+00 -0.24298457510E+04  0.24298457510E+04  0.00000000000E+00 0. -1.
         23    2    1    2    0    0 -0.12859633703E+04  0.32470498055E+03 -0.74900909368E+03  0.15259619951E+04  0.91707545554E+02 0.  0.
         11    1    3    3    0    0 -0.43369069971E+03  0.14199074249E+03 -0.29218018215E+03  0.54186553019E+03  0.00000000000E+00 0. -1.
        -11    1    3    3    0    0 -0.85227267062E+03  0.18271423806E+03 -0.45682891152E+03  0.98409646492E+03  0.00000000000E+00 0.  1.
         22    1    1    2    0    0  0.12859633703E+04 -0.32470498055E+03 -0.95206515862E+03  0.16326552546E+04  0.00000000000E+00 0. -1.
<mgrwt>
<rscale>  0 0.26614299E+04</rscale>
<asrwt>0</asrwt>
<pdfrwt beam="1">  1        2 0.11211869E+00 0.26614299E+04</pdfrwt>
<pdfrwt beam="2">  1       -2 0.37382243E+00 0.26614299E+04</pdfrwt>
<totfact> 0.37585694E-01</totfact>
</mgrwt>
</event>
<event>
 6    1  0.5026615E-004  0.3273080E+04  0.7818608E-02  0.8169779E-01
         -2   -1    0    0    0  501 -0.00000000000E+00  0.00000000000E+00  0.20514600489E+04  0.20514600489E+04  0.00000000000E+00 0. -1.
          2   -1    0    0  501    0  0.00000000000E+00 -0.00000000000E+00 -0.13055401593E+04  0.13055401593E+04  0.00000000000E+00 0.  1.
         23    2    1    2    0    0 -0.10273896054E+04 -0.12645313500E+04  0.23506927006E+03  0.16495057596E+04  0.10508450242E+03 0.  0.
         11    1    3    3    0    0 -0.52736985244E+03 -0.65845300871E+03  0.68979091160E+02  0.84642627615E+03  0.00000000000E+00 0. -1.
        -11    1    3    3    0    0 -0.50001975301E+03 -0.60607834127E+03  0.16609017890E+03  0.80307948342E+03  0.00000000000E+00 0.  1.
         22    1    1    2    0    0  0.10273896054E+04  0.12645313500E+04  0.51085061959E+03  0.17074944486E+04  0.00000000000E+00 0. -1.
<mgrwt>
<rscale>  0 0.32730802E+04</rscale>
<asrwt>0</asrwt>
<pdfrwt beam="1">  1        2 0.20085233E+00 0.32730802E+04</pdfrwt>
<pdfrwt beam="2">  1       -2 0.31560924E+00 0.32730802E+04</pdfrwt>
<totfact> 0.34997564E-01</totfact>
</mgrwt>
</event>
<event>
 6    1  0.5026615E-004  0.1644634E+04  0.7818608E-02  0.8793587E-01
         -2   -1    0    0    0  501 -0.00000000000E+00  0.00000000000E+00  0.23761697897E+03  0.23761697897E+03  0.00000000000E+00 0. -1.
          2   -1    0    0  501    0  0.00000000000E+00 -0.00000000000E+00 -0.28457784591E+04  0.28457784591E+04  0.00000000000E+00 0.  1.
         23    2    1    2    0    0  0.48964076660E+03 -0.29935478840E+02 -0.25393254381E+04  0.25880343437E+04  0.95414202645E+02 0.  0.
         11    1    3    3    0    0  0.36978532909E+03 -0.55246028747E+02 -0.17745882826E+04  0.18135481483E+04  0.00000000000E+00 0. -1.
        -11    1    3    3    0    0  0.11985543751E+03  0.25310549907E+02 -0.76473715549E+03  0.77448619537E+03  0.00000000000E+00 0.  1.
         22    1    1    2    0    0 -0.48964076660E+03  0.29935478840E+02 -0.68836042047E+02  0.49536109445E+03  0.00000000000E+00 0. -1.
<mgrwt>
<rscale>  0 0.16446340E+04</rscale>
<asrwt>0</asrwt>
<pdfrwt beam="1">  1        2 0.43781204E+00 0.16446340E+04</pdfrwt>
<pdfrwt beam="2">  1       -2 0.36556461E-01 0.16446340E+04</pdfrwt>
<totfact> 0.14665090E+01</totfact>
</mgrwt>
</event>
<event>
 6    1  0.5026615E-004  0.8456725E+03  0.7818608E-02  0.9496164E-01
          2   -1    0    0  501    0  0.00000000000E+00  0.00000000000E+00  0.22078177184E+04  0.22078177184E+04  0.00000000000E+00 0.  1.
         -2   -1    0    0    0  501 -0.00000000000E+00 -0.00000000000E+00 -0.80980640052E+02  0.80980640052E+02  0.00000000000E+00 0. -1.
         23    2    1    2    0    0  0.15598526599E+03  0.31646477452E+03  0.46960520954E+03  0.59442566518E+03  0.91276841938E+02 0.  0.
         11    1    3    3    0    0  0.12650299962E+03  0.15788527168E+03  0.24131438394E+03  0.31490220676E+03  0.00000000000E+00 0.  1.
        -11    1    3    3    0    0  0.29482266372E+02  0.15857950285E+03  0.22829082560E+03  0.27952345842E+03  0.00000000000E+00 0. -1.
         22    1    1    2    0    0 -0.15598526599E+03 -0.31646477452E+03  0.16572318688E+04  0.16943726933E+04  0.00000000000E+00 0.  1.
<mgrwt>
<rscale>  0 0.84567249E+03</rscale>
<asrwt>0</asrwt>
<pdfrwt beam="1">  1        2 0.33966422E+00 0.84567249E+03</pdfrwt>
<pdfrwt beam="2">  1       -2 0.12458562E-01 0.84567249E+03</pdfrwt>
<totfact> 0.24958156E+02</totfact>
</mgrwt>
</event>
<event>
 6    1  0.5026615E-004  0.1540951E+04  0.7818608E-02  0.8857668E-01
          2   -1    0    0  501    0  0.00000000000E+00  0.00000000000E+00  0.11533572420E+04  0.11533572420E+04  0.00000000000E+00 0.  1.
         -2   -1    0    0    0  501 -0.00000000000E+00 -0.00000000000E+00 -0.51469976316E+03  0.51469976316E+03  0.00000000000E+00 0. -1.
         23    2    1    2    0    0 -0.73559042134E+03 -0.23222609983E+02  0.84263854040E+02  0.74665326696E+03  0.93584968781E+02 0.  0.
         11    1    3    3    0    0 -0.25610078652E+03 -0.37547486557E+02  0.63431209747E+02  0.26649755153E+03  0.00000000000E+00 0.  1.
        -11    1    3    3    0    0 -0.47948963482E+03  0.14324876574E+02  0.20832644293E+02  0.48015571543E+03  0.00000000000E+00 0. -1.
         22    1    1    2    0    0  0.73559042134E+03  0.23222609983E+02  0.55439362482E+03  0.92140373823E+03  0.00000000000E+00 0. -1.
<mgrwt>
<rscale>  0 0.15409513E+04</rscale>
<asrwt>0</asrwt>
<pdfrwt beam="1">  1        2 0.17743958E+00 0.15409513E+04</pdfrwt>
<pdfrwt beam="2">  1       -2 0.79184579E-01 0.15409513E+04</pdfrwt>
<totfact> 0.27536775E+01</totfact>
</mgrwt>
</event>
<event>
 6    1  0.5026615E-004  0.2673879E+04  0.7818608E-02  0.8343530E-01
         -2   -1    0    0    0  501 -0.00000000000E+00  0.00000000000E+00  0.92681470396E+03  0.92681470396E+03  0.00000000000E+00 0. -1.
          2   -1    0    0  501    0  0.00000000000E+00 -0.00000000000E+00 -0.19285493062E+04  0.19285493062E+04  0.00000000000E+00 0.  1.
         23    2    1    2    0    0 -0.82865249632E+03 -0.32674393744E+03 -0.15638901691E+04  0.18020618494E+04  0.90817882699E+02 0.  0.
         11    1    3    3    0    0 -0.19507753149E+03 -0.11822558411E+03 -0.41731534361E+03  0.47558871732E+03  0.00000000000E+00 0. -1.
        -11    1    3    3    0    0 -0.63357496484E+03 -0.20851835333E+03 -0.11465748255E+04  0.13264731321E+04  0.00000000000E+00 0.  1.
         22    1    1    2    0    0  0.82865249632E+03  0.32674393744E+03  0.56215556691E+03  0.10533021607E+04  0.00000000000E+00 0. -1.
<mgrwt>
<rscale>  0 0.26738795E+04</rscale>
<asrwt>0</asrwt>
<pdfrwt beam="1">  1        2 0.29669989E+00 0.26738795E+04</pdfrwt>
<pdfrwt beam="2">  1       -2 0.14258688E+00 0.26738795E+04</pdfrwt>
<totfact> 0.22041973E+00</totfact>
</mgrwt>
</event>
<event>
 6    1  0.5026615E-004  0.4018823E+04  0.7818608E-02  0.8000760E-01
         -2   -1    0    0    0  501 -0.00000000000E+00  0.00000000000E+00  0.93364502886E+03  0.93364502886E+03  0.00000000000E+00 0. -1.
          2   -1    0    0  501    0  0.00000000000E+00 -0.00000000000E+00 -0.43246999641E+04  0.43246999641E+04  0.00000000000E+00 0.  1.
         23    2    1    2    0    0 -0.13358147053E+04 -0.75520994335E+01  0.26575992835E+03  0.13651775283E+04  0.92862172555E+02 0.  0.
         11    1    3    3    0    0 -0.23088299802E+03  0.19894235056E+02  0.74936210533E+02  0.24355322830E+03  0.00000000000E+00 0. -1.
        -11    1    3    3    0    0 -0.11049317073E+04 -0.27446334489E+02  0.19082371782E+03  0.11216243000E+04  0.00000000000E+00 0.  1.
         22    1    1    2    0    0  0.13358147053E+04  0.75520994335E+01 -0.36568148635E+04  0.38931674646E+04  0.00000000000E+00 0.  1.
<mgrwt>
<rscale>  0 0.40188230E+04</rscale>
<asrwt>0</asrwt>
<pdfrwt beam="1">  1        2 0.66533846E+00 0.40188230E+04</pdfrwt>
<pdfrwt beam="2">  1       -2 0.14363769E+00 0.40188230E+04</pdfrwt>
<totfact> 0.47390864E-02</totfact>
</mgrwt>
</event>
<event>
 6    1  0.5026615E-004  0.2825124E+04  0.7818608E-02  0.8295511E-01
         -2   -1    0    0    0  501 -0.00000000000E+00  0.00000000000E+00  0.10359005824E+04  0.10359005824E+04  0.00000000000E+00 0. -1.
          2   -1    0    0  501    0  0.00000000000E+00 -0.00000000000E+00 -0.19261798960E+04  0.19261798960E+04  0.00000000000E+00 0.  1.
         23    2    1    2    0    0  0.72327240185E+03 -0.75337492019E+03  0.54933446194E+03  0.11835460928E+04  0.91193558714E+02 0.  0.
         13    1    3    3    0    0  0.59593620227E+03 -0.63762535485E+03  0.42170596314E+03  0.96929973159E+03  0.00000000000E+00 0. -1.
        -13    1    3    3    0    0  0.12733619958E+03 -0.11574956534E+03  0.12762849880E+03  0.21424636124E+03  0.00000000000E+00 0.  1.
         22    1    1    2    0    0 -0.72327240185E+03  0.75337492019E+03 -0.14396137755E+04  0.17785343855E+04  0.00000000000E+00 0.  1.
<mgrwt>
<rscale>  0 0.28251236E+04</rscale>
<asrwt>0</asrwt>
<pdfrwt beam="1">  1        2 0.29633537E+00 0.28251236E+04</pdfrwt>
<pdfrwt beam="2">  1       -2 0.15936932E+00 0.28251236E+04</pdfrwt>
<totfact> 0.16238178E+00</totfact>
</mgrwt>
</event>
<event>
 6    1  0.5026615E-004  0.2413381E+04  0.7818608E-02  0.8434511E-01
         -2   -1    0    0    0  501 -0.00000000000E+00  0.00000000000E+00  0.51952670263E+03  0.51952670263E+03  0.00000000000E+00 0. -1.
          2   -1    0    0  501    0  0.00000000000E+00 -0.00000000000E+00 -0.28027470594E+04  0.28027470594E+04  0.00000000000E+00 0.  1.
         23    2    1    2    0    0  0.61148593718E+03  0.93287797051E+02 -0.25667684444E+04  0.26418201027E+04  0.91079873350E+02 0.  0.
         11    1    3    3    0    0  0.33431911780E+03  0.51119325812E+01 -0.13825872930E+04  0.14224426270E+04  0.00000000000E+00 0.  1.
        -11    1    3    3    0    0  0.27716681938E+03  0.88175864470E+02 -0.11841811514E+04  0.12193774757E+04  0.00000000000E+00 0. -1.
         22    1    1    2    0    0 -0.61148593718E+03 -0.93287797051E+02  0.28354808766E+03  0.68045365931E+03  0.00000000000E+00 0. -1.
<mgrwt>
<rscale>  0 0.24133810E+04</rscale>
<asrwt>0</asrwt>
<pdfrwt beam="1">  1        2 0.43119186E+00 0.24133810E+04</pdfrwt>
<pdfrwt beam="2">  1       -2 0.79927185E-01 0.24133810E+04</pdfrwt>
<totfact> 0.28664067E+00</totfact>
</mgrwt>
</event>
<event>
 6    1  0.5026615E-004  0.3839308E+04  0.7818608E-02  0.8037772E-01
         -2   -1    0    0    0  501 -0.00000000000E+00  0.00000000000E+00  0.17040120237E+04  0.17040120237E+04  0.00000000000E+00 0. -1.
          2   -1    0    0  501    0  0.00000000000E+00 -0.00000000000E+00 -0.21625849459E+04  0.21625849459E+04  0.00000000000E+00 0.  1.
         23    2    1    2    0    0 -0.14789684373E+04  0.11997357938E+04 -0.46464533389E+03  0.19621940480E+04  0.87158374501E+02 0.  0.
         11    1    3    3    0    0 -0.61965241014E+03  0.53872004332E+03 -0.23409041858E+03  0.85380719049E+03  0.00000000000E+00 0.  1.
        -11    1    3    3    0    0 -0.85931602720E+03  0.66101575045E+03 -0.23055491531E+03  0.11083868575E+04  0.00000000000E+00 0. -1.
         22    1    1    2    0    0  0.14789684373E+04 -0.11997357938E+04  0.60724117142E+01  0.19044029216E+04  0.00000000000E+00 0.  1.
<mgrwt>
<rscale>  0 0.38393076E+04</rscale>
<asrwt>0</asrwt>
<pdfrwt beam="1">  1        2 0.33270537E+00 0.38393076E+04</pdfrwt>
<pdfrwt beam="2">  1       -2 0.26215570E+00 0.38393076E+04</pdfrwt>
<totfact> 0.23447869E-01</totfact>
</mgrwt>
</event>
<event>
 6    1  0.5026615E-004  0.1822717E+04  0.7818608E-02  0.8694311E-01
          2   -1    0    0  501    0  0.00000000000E+00  0.00000000000E+00  0.13056955437E+04  0.13056955437E+04  0.00000000000E+00 0.  1.
         -2   -1    0    0    0  501 -0.00000000000E+00 -0.00000000000E+00 -0.63611632308E+03  0.63611632308E+03  0.00000000000E+00 0. -1.
         23    2    1    2    0    0 -0.84372782522E+02  0.65160049143E+03 -0.33360753168E+03  0.74260978755E+03  0.92050771307E+02 0.  0.
         13    1    3    3    0    0  0.50054962585E+01  0.25135710962E+03 -0.99410887702E+02  0.27034787986E+03  0.00000000000E+00 0.  1.
        -13    1    3    3    0    0 -0.89378278781E+02  0.40024338181E+03 -0.23419664398E+03  0.47226190769E+03  0.00000000000E+00 0. -1.
         22    1    1    2    0    0  0.84372782522E+02 -0.65160049143E+03  0.10031867523E+04  0.11992020793E+04  0.00000000000E+00 0.  1.
<mgrwt>
<rscale>  0 0.18227169E+04</rscale>
<asrwt>0</asrwt>
<pdfrwt beam="1">  1        2 0.20087624E+00 0.18227169E+04</pdfrwt>
<pdfrwt beam="2">  1       -2 0.97864050E-01 0.18227169E+04</pdfrwt>
<totfact> 0.13440204E+01</totfact>
</mgrwt>
</event>
<event>
 6    1  0.5026615E-004  0.2198548E+04  0.7818608E-02  0.8519033E-01
          2   -1    0    0  501    0  0.00000000000E+00  0.00000000000E+00  0.24010834483E+04  0.24010834483E+04  0.00000000000E+00 0.  1.
         -2   -1    0    0    0  501 -0.00000000000E+00 -0.00000000000E+00 -0.50327420177E+03  0.50327420177E+03  0.00000000000E+00 0. -1.
         23    2    1    2    0    0 -0.46763490466E+03  0.10212554000E+03  0.22549593047E+04  0.23071406091E+04  0.94574281240E+02 0.  0.
         11    1    3    3    0    0 -0.37838723423E+03  0.10064538693E+03  0.16618471869E+04  0.17073495440E+04  0.00000000000E+00 0. -1.
        -11    1    3    3    0    0 -0.89247670435E+02  0.14801530732E+01  0.59311211778E+03  0.59979106511E+03  0.00000000000E+00 0.  1.
         22    1    1    2    0    0  0.46763490466E+03 -0.10212554000E+03 -0.35715005812E+03  0.59721704094E+03  0.00000000000E+00 0. -1.
<mgrwt>
<rscale>  0 0.21985480E+04</rscale>
<asrwt>0</asrwt>
<pdfrwt beam="1">  1        2 0.36939745E+00 0.21985480E+04</pdfrwt>
<pdfrwt beam="2">  1       -2 0.77426802E-01 0.21985480E+04</pdfrwt>
<totfact> 0.53980234E+00</totfact>
</mgrwt>
</event>
<event>
 6    1  0.5026615E-004  0.5820864E+04  0.7818608E-02  0.7713018E-01
          2   -1    0    0  501    0  0.00000000000E+00  0.00000000000E+00  0.39883569106E+04  0.39883569106E+04  0.00000000000E+00 0.  1.
         -2   -1    0    0    0  501 -0.00000000000E+00 -0.00000000000E+00 -0.21238359623E+04  0.21238359623E+04  0.00000000000E+00 0. -1.
         23    2    1    2    0    0  0.64406421695E+03  0.21770273517E+04  0.28433961511E+04  0.36398531980E+04  0.96761692043E+02 0.  0.
         13    1    3    3    0    0  0.40353500588E+03  0.14253774185E+04  0.17860948639E+04  0.23204904975E+04  0.00000000000E+00 0.  1.
        -13    1    3    3    0    0  0.24052921108E+03  0.75164993317E+03  0.10573012872E+04  0.13193627005E+04  0.00000000000E+00 0. -1.
         22    1    1    2    0    0 -0.64406421695E+03 -0.21770273517E+04 -0.97887520280E+03  0.24723396749E+04  0.00000000000E+00 0. -1.
<mgrwt>
<rscale>  0 0.58208645E+04</rscale>
<asrwt>0</asrwt>
<pdfrwt beam="1">  1        2 0.61359337E+00 0.58208645E+04</pdfrwt>
<pdfrwt beam="2">  1       -2 0.32674399E+00 0.58208645E+04</pdfrwt>
<totfact> 0.51622561E-03</totfact>
</mgrwt>
</event>
<event>
 6    1  0.5026615E-004  0.4528632E+04  0.7818608E-02  0.7905643E-01
          2   -1    0    0  501    0  0.00000000000E+00  0.00000000000E+00  0.44266743062E+04  0.44266743062E+04  0.00000000000E+00 0.  1.
         -2   -1    0    0    0  501 -0.00000000000E+00 -0.00000000000E+00 -0.11582346329E+04  0.11582346329E+04  0.00000000000E+00 0. -1.
         23    2    1    2    0    0 -0.17928302969E+04 -0.13733988391E+04  0.18194886907E+04  0.29016415661E+04  0.92302967035E+02 0.  0.
         11    1    3    3    0    0 -0.20378846662E+03 -0.19001861810E+03  0.20663553318E+03  0.34689343886E+03  0.00000000000E+00 0.  1.
        -11    1    3    3    0    0 -0.15890418303E+04 -0.11833802210E+04  0.16128531575E+04  0.25547481272E+04  0.00000000000E+00 0. -1.
         22    1    1    2    0    0  0.17928302969E+04  0.13733988391E+04  0.14489509826E+04  0.26832673730E+04  0.00000000000E+00 0. -1.
<mgrwt>
<rscale>  0 0.45286322E+04</rscale>
<asrwt>0</asrwt>
<pdfrwt beam="1">  1        2 0.68102681E+00 0.45286322E+04</pdfrwt>
<pdfrwt beam="2">  1       -2 0.17818995E+00 0.45286322E+04</pdfrwt>
<totfact> 0.20274443E-02</totfact>
</mgrwt>
</event>
<event>
 6    1  0.5026615E-004  0.1742498E+04  0.7818608E-02  0.8737491E-01
         -2   -1    0    0    0  501 -0.00000000000E+00  0.00000000000E+00  0.21790205397E+04  0.21790205397E+04  0.00000000000E+00 0. -1.
          2   -1    0    0  501    0  0.00000000000E+00 -0.00000000000E+00 -0.34835589107E+03  0.34835589107E+03  0.00000000000E+00 0.  1.
         23    2    1    2    0    0  0.31658995351E+03  0.72614657295E+03  0.40001621909E+03  0.89205598112E+03  0.90735075127E+02 0.  0.
         13    1    3    3    0    0  0.57023354813E+02  0.61815897881E+02  0.42469045606E+02  0.94215115876E+02  0.00000000000E+00 0. -1.
        -13    1    3    3    0    0  0.25956659869E+03  0.66433067506E+03  0.35754717349E+03  0.79784086525E+03  0.00000000000E+00 0.  1.
         22    1    1    2    0    0 -0.31658995351E+03 -0.72614657295E+03  0.14306484295E+04  0.16353204496E+04  0.00000000000E+00 0.  1.
<mgrwt>
<rscale>  0 0.17424978E+04</rscale>
<asrwt>0</asrwt>
<pdfrwt beam="1">  1        2 0.53593215E-01 0.17424978E+04</pdfrwt>
<pdfrwt beam="2">  1       -2 0.33523392E+00 0.17424978E+04</pdfrwt>
<totfact> 0.17027957E+00</totfact>
</mgrwt>
</event>
<event>
 6    1  0.5026615E-004  0.3168955E+04  0.7818608E-02  0.8197065E-01
          1   -1    0    0  501    0  0.00000000000E+00  0.00000000000E+00  0.30879247461E+04  0.30879247461E+04  0.00000000000E+00 0.  1.
         -1   -1    0    0    0  501 -0.00000000000E+00 -0.00000000000E+00 -0.81302785867E+03  0.81302785867E+03  0.00000000000E+00 0. -1.
         23    2    1    2    0    0  0.95523019809E+03 -0.93917231779E+02  0.26882511543E+04  0.28558942677E+04  0.90291870795E+02 0.  0.
         11    1    3    3    0    0  0.46444282528E+03 -0.18087866394E+02  0.11937913897E+04  0.12810824294E+04  0.00000000000E+00 0. -1.
        -11    1    3    3    0    0  0.49078737282E+03 -0.75829365385E+02  0.14944597646E+04  0.15748118383E+04  0.00000000000E+00 0.  1.
         22    1    1    2    0    0 -0.95523019809E+03  0.93917231779E+02 -0.41335426693E+03  0.10450583370E+04  0.00000000000E+00 0. -1.
<mgrwt>
<rscale>  0 0.31689549E+04</rscale>
<asrwt>0</asrwt>
<pdfrwt beam="1">  1        1 0.47506534E+00 0.31689549E+04</pdfrwt>
<pdfrwt beam="2">  1       -1 0.12508121E+00 0.31689549E+04</pdfrwt>
<totfact> 0.24122738E-01</totfact>
</mgrwt>
</event>
<event>
 6    1  0.5026615E-004  0.1824260E+04  0.7818608E-02  0.8693504E-01
         -2   -1    0    0    0  501 -0.00000000000E+00  0.00000000000E+00  0.32122262510E+03  0.32122262510E+03  0.00000000000E+00 0. -1.
          2   -1    0    0  501    0  0.00000000000E+00 -0.00000000000E+00 -0.25900445678E+04  0.25900445678E+04  0.00000000000E+00 0.  1.
         23    2    1    2    0    0 -0.38531613698E+03 -0.53102471992E+03 -0.21431493541E+04  0.22432481976E+04  0.92830724429E+02 0.  0.
         11    1    3    3    0    0 -0.21028092291E+02 -0.80709837379E+02 -0.26622934824E+03  0.27898803627E+03  0.00000000000E+00 0. -1.
        -11    1    3    3    0    0 -0.36428804469E+03 -0.45031488254E+03 -0.18769200059E+04  0.19642601613E+04  0.00000000000E+00 0.  1.
         22    1    1    2    0    0  0.38531613698E+03  0.53102471992E+03 -0.12567258861E+03  0.66801899532E+03  0.00000000000E+00 0. -1.
<mgrwt>
<rscale>  0 0.18242598E+04</rscale>
<asrwt>0</asrwt>
<pdfrwt beam="1">  1        2 0.39846839E+00 0.18242598E+04</pdfrwt>
<pdfrwt beam="2">  1       -2 0.49418866E-01 0.18242598E+04</pdfrwt>
<totfact> 0.11279958E+01</totfact>
</mgrwt>
</event>
<event>
 6    1  0.5026615E-004  0.2183689E+04  0.7818608E-02  0.8525248E-01
          2   -1    0    0  501    0  0.00000000000E+00  0.00000000000E+00  0.16169382303E+04  0.16169382303E+04  0.00000000000E+00 0.  1.
         -2   -1    0    0    0  501 -0.00000000000E+00 -0.00000000000E+00 -0.73727249583E+03  0.73727249583E+03  0.00000000000E+00 0. -1.
         23    2    1    2    0    0  0.47179989210E+03 -0.69687795633E+03 -0.30605397098E+03  0.90019379222E+03  0.91901067469E+02 0.  0.
         11    1    3    3    0    0  0.99722334996E+02 -0.15850544073E+03 -0.28872968778E+02  0.18947867206E+03  0.00000000000E+00 0.  1.
        -11    1    3    3    0    0  0.37207755710E+03 -0.53837251560E+03 -0.27718100220E+03  0.71071512017E+03  0.00000000000E+00 0. -1.
         22    1    1    2    0    0 -0.47179989210E+03  0.69687795633E+03  0.11857197055E+04  0.14540169339E+04  0.00000000000E+00 0.  1.
<mgrwt>
<rscale>  0 0.21836887E+04</rscale>
<asrwt>0</asrwt>
<pdfrwt beam="1">  1        2 0.24875973E+00 0.21836887E+04</pdfrwt>
<pdfrwt beam="2">  1       -2 0.11342654E+00 0.21836887E+04</pdfrwt>
<totfact> 0.60906827E+00</totfact>
</mgrwt>
</event>
<event>
 6    1  0.5026615E-004  0.3797710E+04  0.7818608E-02  0.8046646E-01
         -2   -1    0    0    0  501 -0.00000000000E+00  0.00000000000E+00  0.15194687165E+04  0.15194687165E+04  0.00000000000E+00 0. -1.
          2   -1    0    0  501    0  0.00000000000E+00 -0.00000000000E+00 -0.23729684029E+04  0.23729684029E+04  0.00000000000E+00 0.  1.
         23    2    1    2    0    0  0.90470448661E+02  0.18856560104E+04 -0.62568794942E+03  0.19909162336E+04  0.91534407258E+02 0.  0.
         11    1    3    3    0    0  0.22487200391E+02  0.13096261711E+04 -0.42040488103E+03  0.13756331801E+04  0.00000000000E+00 0. -1.
        -11    1    3    3    0    0  0.67983248270E+02  0.57602983932E+03 -0.20528306839E+03  0.61528305356E+03  0.00000000000E+00 0.  1.
         22    1    1    2    0    0 -0.90470448661E+02 -0.18856560104E+04 -0.22781173700E+03  0.19015208858E+04  0.00000000000E+00 0. -1.
<mgrwt>
<rscale>  0 0.37977105E+04</rscale>
<asrwt>0</asrwt>
<pdfrwt beam="1">  1        2 0.36507206E+00 0.37977105E+04</pdfrwt>
<pdfrwt beam="2">  1       -2 0.23376442E+00 0.37977105E+04</pdfrwt>
<totfact> 0.26759031E-01</totfact>
</mgrwt>
</event>
<event>
 6    1  0.5026615E-004  0.1558266E+04  0.7818608E-02  0.8846605E-01
          2   -1    0    0  501    0  0.00000000000E+00  0.00000000000E+00  0.21090693811E+04  0.21090693811E+04  0.00000000000E+00 0.  1.
         -2   -1    0    0    0  501 -0.00000000000E+00 -0.00000000000E+00 -0.28782755066E+03  0.28782755066E+03  0.00000000000E+00 0. -1.
         23    2    1    2    0    0  0.11437172942E+02  0.11058381814E+03  0.20958261509E+04  0.21006603055E+04  0.89032997843E+02 0.  0.
         13    1    3    3    0    0  0.39333119744E+02  0.10700619170E+03  0.16240985402E+04  0.16280950487E+04  0.00000000000E+00 0. -1.
        -13    1    3    3    0    0 -0.27895946802E+02  0.35776264427E+01  0.47172761066E+03  0.47256525678E+03  0.00000000000E+00 0.  1.
         22    1    1    2    0    0 -0.11437172942E+02 -0.11058381814E+03 -0.27458432038E+03  0.29623662630E+03  0.00000000000E+00 0. -1.
<mgrwt>
<rscale>  0 0.15582661E+04</rscale>
<asrwt>0</asrwt>
<pdfrwt beam="1">  1        2 0.32447220E+00 0.15582661E+04</pdfrwt>
<pdfrwt beam="2">  1       -2 0.44281163E-01 0.15582661E+04</pdfrwt>
<totfact> 0.27035799E+01</totfact>
</mgrwt>
</event>
<event>
 6    1  0.5026615E-004  0.3187875E+04  0.7818608E-02  0.8192027E-01
         -2   -1    0    0    0  501 -0.00000000000E+00  0.00000000000E+00  0.20831703281E+04  0.20831703281E+04  0.00000000000E+00 0. -1.
          2   -1    0    0  501    0  0.00000000000E+00 -0.00000000000E+00 -0.12196009484E+04  0.12196009484E+04  0.00000000000E+00 0.  1.
         23    2    1    2    0    0  0.82405887521E+03  0.98006083381E+03 -0.54916555638E+03  0.13960955653E+04  0.88925538214E+02 0.  0.
         11    1    3    3    0    0  0.40978730145E+03  0.46340060294E+03 -0.21993792623E+03  0.65653518004E+03  0.00000000000E+00 0.  1.
        -11    1    3    3    0    0  0.41427157377E+03  0.51666023087E+03 -0.32922763015E+03  0.73956038526E+03  0.00000000000E+00 0. -1.
         22    1    1    2    0    0 -0.82405887521E+03 -0.98006083381E+03  0.14127349361E+04  0.19066757112E+04  0.00000000000E+00 0. -1.
<mgrwt>
<rscale>  0 0.31878748E+04</rscale>
<asrwt>0</asrwt>
<pdfrwt beam="1">  1        2 0.18763092E+00 0.31878748E+04</pdfrwt>
<pdfrwt beam="2">  1       -2 0.32048774E+00 0.31878748E+04</pdfrwt>
<totfact> 0.36946648E-01</totfact>
</mgrwt>
</event>
<event>
 6    1  0.7024304E-004  0.3353107E+04  0.7818608E-02  0.8149512E-01
          2   -1    0    0  501    0  0.00000000000E+00  0.00000000000E+00  0.15315497880E+04  0.15315497880E+04  0.00000000000E+00 0.  1.
         -2   -1    0    0    0  501 -0.00000000000E+00 -0.00000000000E+00 -0.18352853301E+04  0.18352853301E+04  0.00000000000E+00 0. -1.
         23    2    1    2    0    0 -0.19286114306E+03  0.13902009559E+04 -0.10705225051E+04  0.17675176495E+04  0.90807979248E+02 0.  0.
         11    1    3    3    0    0 -0.64517096965E+02  0.74136871858E+03 -0.53563203580E+03  0.91689242033E+03  0.00000000000E+00 0. -1.
        -11    1    3    3    0    0 -0.12834404610E+03  0.64883223735E+03 -0.53489046933E+03  0.85062522921E+03  0.00000000000E+00 0.  1.
         22    1    1    2    0    0  0.19286114306E+03 -0.13902009559E+04  0.76678696304E+03  0.15993174685E+04  0.00000000000E+00 0.  1.
<mgrwt>
<rscale>  0 0.33531065E+04</rscale>
<asrwt>0</asrwt>
<pdfrwt beam="1">  1        2 0.23562305E+00 0.33531065E+04</pdfrwt>
<pdfrwt beam="2">  1       -2 0.28235159E+00 0.33531065E+04</pdfrwt>
<totfact> 0.41281423E-01</totfact>
</mgrwt>
</event>
<event>
 6    1  0.5026615E-004  0.2518369E+04  0.7818608E-02  0.8396471E-01
         -2   -1    0    0    0  501 -0.00000000000E+00  0.00000000000E+00  0.11048083151E+04  0.11048083151E+04  0.00000000000E+00 0. -1.
          2   -1    0    0  501    0  0.00000000000E+00 -0.00000000000E+00 -0.14351317550E+04  0.14351317550E+04  0.00000000000E+00 0.  1.
         23    2    1    2    0    0 -0.54616220343E+03  0.17209056487E+03  0.96375956521E+03  0.11248220047E+04  0.92107153259E+02 0.  0.
         13    1    3    3    0    0 -0.45610551730E+03  0.12127127982E+03  0.73084366934E+03  0.86998358332E+03  0.00000000000E+00 0. -1.
        -13    1    3    3    0    0 -0.90056686127E+02  0.50819285058E+02  0.23291589587E+03  0.25483842135E+03  0.00000000000E+00 0.  1.
         22    1    1    2    0    0  0.54616220343E+03 -0.17209056487E+03 -0.12940830052E+04  0.14151180655E+04  0.00000000000E+00 0.  1.
<mgrwt>
<rscale>  0 0.25183689E+04</rscale>
<asrwt>0</asrwt>
<pdfrwt beam="1">  1        2 0.22078950E+00 0.25183689E+04</pdfrwt>
<pdfrwt beam="2">  1       -2 0.16997051E+00 0.25183689E+04</pdfrwt>
<totfact> 0.26240954E+00</totfact>
</mgrwt>
</event>
<event>
 6    1  0.5026615E-004  0.2941887E+04  0.7818608E-02  0.8260523E-01
          2   -1    0    0  501    0  0.00000000000E+00  0.00000000000E+00  0.17682129727E+04  0.17682129727E+04  0.00000000000E+00 0.  1.
         -2   -1    0    0    0  501 -0.00000000000E+00 -0.00000000000E+00 -0.12236501818E+04  0.12236501818E+04  0.00000000000E+00 0. -1.
         23    2    1    2    0    0  0.11353008749E+04  0.83498233247E+03  0.69583483288E+03  0.15744758387E+04  0.93190556889E+02 0.  0.
         11    1    3    3    0    0  0.13032160584E+03  0.99154299679E+02  0.48744038956E+02  0.17085455051E+03  0.00000000000E+00 0. -1.
        -11    1    3    3    0    0  0.10049792691E+04  0.73582803279E+03  0.64709079393E+03  0.14036212882E+04  0.00000000000E+00 0.  1.
         22    1    1    2    0    0 -0.11353008749E+04 -0.83498233247E+03 -0.15127204195E+03  0.14173873158E+04  0.00000000000E+00 0. -1.
<mgrwt>
<rscale>  0 0.29418866E+04</rscale>
<asrwt>0</asrwt>
<pdfrwt beam="1">  1        2 0.27203276E+00 0.29418866E+04</pdfrwt>
<pdfrwt beam="2">  1       -2 0.18825388E+00 0.29418866E+04</pdfrwt>
<totfact> 0.12311195E+00</totfact>
</mgrwt>
</event>
<event>
 6    1  0.5026615E-004  0.1165946E+04  0.7818608E-02  0.9143198E-01
         -2   -1    0    0    0  501 -0.00000000000E+00  0.00000000000E+00  0.15346850106E+03  0.15346850106E+03  0.00000000000E+00 0. -1.
          2   -1    0    0  501    0  0.00000000000E+00 -0.00000000000E+00 -0.22145086106E+04  0.22145086106E+04  0.00000000000E+00 0.  1.
         23    2    1    2    0    0  0.13760678356E+03  0.43627693421E+03 -0.31400649049E+03  0.56204254576E+03  0.89546395620E+02 0.  0.
         11    1    3    3    0    0  0.12005081797E+03  0.42489101369E+03 -0.31276851848E+03  0.54108106469E+03  0.00000000000E+00 0. -1.
        -11    1    3    3    0    0  0.17555965591E+02  0.11385920519E+02 -0.12379720026E+01  0.20961481068E+02  0.00000000000E+00 0.  1.
         22    1    1    2    0    0 -0.13760678356E+03 -0.43627693421E+03 -0.17470336190E+04  0.18059345659E+04  0.00000000000E+00 0.  1.
<mgrwt>
<rscale>  0 0.11659457E+04</rscale>
<asrwt>0</asrwt>
<pdfrwt beam="1">  1        2 0.34069365E+00 0.11659457E+04</pdfrwt>
<pdfrwt beam="2">  1       -2 0.23610538E-01 0.11659457E+04</pdfrwt>
<totfact> 0.80006728E+01</totfact>
</mgrwt>
</event>
<event>
 6    1  0.5026615E-004  0.5867657E+04  0.7818608E-02  0.7707031E-01
         -2   -1    0    0    0  501 -0.00000000000E+00  0.00000000000E+00  0.26330525916E+04  0.26330525916E+04  0.00000000000E+00 0. -1.
          2   -1    0    0  501    0  0.00000000000E+00 -0.00000000000E+00 -0.32689620565E+04  0.32689620565E+04  0.00000000000E+00 0.  1.
         23    2    1    2    0    0 -0.31461381436E+03  0.23833368870E+04  0.13723996253E+04  0.27695105427E+04  0.86205250424E+02 0.  0.
         11    1    3    3    0    0 -0.28940440832E+03  0.19907577792E+04  0.11271348999E+04  0.23059281276E+04  0.00000000000E+00 0. -1.
        -11    1    3    3    0    0 -0.25209406044E+02  0.39257910776E+03  0.24526472540E+03  0.46358241504E+03  0.00000000000E+00 0.  1.
         22    1    1    2    0    0  0.31461381436E+03 -0.23833368870E+04 -0.20083090902E+04  0.31325041054E+04  0.00000000000E+00 0.  1.
<mgrwt>
<rscale>  0 0.58676568E+04</rscale>
<asrwt>0</asrwt>
<pdfrwt beam="1">  1        2 0.50291724E+00 0.58676568E+04</pdfrwt>
<pdfrwt beam="2">  1       -2 0.40508502E+00 0.58676568E+04</pdfrwt>
<totfact> 0.54618464E-03</totfact>
</mgrwt>
</event>
<event>
 6    1  0.5026615E-004  0.1112391E+04  0.7818608E-02  0.9193198E-01
          1   -1    0    0  501    0  0.00000000000E+00  0.00000000000E+00  0.13903085833E+03  0.13903085833E+03  0.00000000000E+00 0.  1.
         -1   -1    0    0    0  501 -0.00000000000E+00 -0.00000000000E+00 -0.22250721661E+04  0.22250721661E+04  0.00000000000E+00 0. -1.
         23    2    1    2    0    0 -0.51649617683E+03  0.17744526398E+03 -0.87364372849E+03  0.10343801162E+04  0.91835385876E+02 0.  0.
         13    1    3    3    0    0 -0.91454594118E+02  0.20909304425E+01 -0.11079751448E+03  0.14368160631E+03  0.00000000000E+00 0. -1.
        -13    1    3    3    0    0 -0.42504158271E+03  0.17535433354E+03 -0.76284621400E+03  0.89069850990E+03  0.00000000000E+00 0.  1.
         22    1    1    2    0    0  0.51649617683E+03 -0.17744526398E+03 -0.12123975793E+04  0.13297229082E+04  0.00000000000E+00 0. -1.
<mgrwt>
<rscale>  0 0.11123915E+04</rscale>
<asrwt>0</asrwt>
<pdfrwt beam="1">  1        1 0.21389363E-01 0.11123915E+04</pdfrwt>
<pdfrwt beam="2">  1       -1 0.34231879E+00 0.11123915E+04</pdfrwt>
<totfact> 0.42315665E+00</totfact>
</mgrwt>
</event>
<event>
 6    1  0.5026615E-004  0.8791950E+03  0.7818608E-02  0.9451969E-01
         -2   -1    0    0    0  501 -0.00000000000E+00  0.00000000000E+00  0.18719963931E+03  0.18719963931E+03  0.00000000000E+00 0. -1.
          2   -1    0    0  501    0  0.00000000000E+00 -0.00000000000E+00 -0.10322988995E+04  0.10322988995E+04  0.00000000000E+00 0.  1.
         23    2    1    2    0    0 -0.92124513503E+02 -0.29189012406E+03 -0.85580195598E+03  0.91322853016E+03  0.88896512402E+02 0.  0.
         11    1    3    3    0    0 -0.48193545838E+02 -0.25482479769E+03 -0.65865069708E+03  0.70786936375E+03  0.00000000000E+00 0. -1.
        -11    1    3    3    0    0 -0.43930967665E+02 -0.37065326373E+02 -0.19715125891E+03  0.20535916641E+03  0.00000000000E+00 0.  1.
         22    1    1    2    0    0  0.92124513503E+02  0.29189012406E+03  0.10702695771E+02  0.30627000867E+03  0.00000000000E+00 0. -1.
<mgrwt>
<rscale>  0 0.87919504E+03</rscale>
<asrwt>0</asrwt>
<pdfrwt beam="1">  1        2 0.15881521E+00 0.87919504E+03</pdfrwt>
<pdfrwt beam="2">  1       -2 0.28799945E-01 0.87919504E+03</pdfrwt>
<totfact> 0.26623338E+02</totfact>
</mgrwt>
</event>
<event>
 6    1  0.5026615E-004  0.2767596E+04  0.7818608E-02  0.8313400E-01
         -2   -1    0    0    0  501 -0.00000000000E+00  0.00000000000E+00  0.78376812725E+03  0.78376812725E+03  0.00000000000E+00 0. -1.
          2   -1    0    0  501    0  0.00000000000E+00 -0.00000000000E+00 -0.24431926361E+04  0.24431926361E+04  0.00000000000E+00 0.  1.
         23    2    1    2    0    0  0.94083866336E+03 -0.53509210524E+03  0.17166656973E+03  0.10998981198E+04  0.93837685396E+02 0.  0.
         13    1    3    3    0    0  0.76026672825E+03 -0.46472823699E+03  0.16348964935E+03  0.90592863835E+03  0.00000000000E+00 0.  1.
        -13    1    3    3    0    0  0.18057193511E+03 -0.70363868251E+02  0.81769203782E+01  0.19396948144E+03  0.00000000000E+00 0. -1.
         22    1    1    2    0    0 -0.94083866336E+03  0.53509210524E+03 -0.18310910785E+04  0.21270626435E+04  0.00000000000E+00 0.  1.
<mgrwt>
<rscale>  0 0.27675957E+04</rscale>
<asrwt>0</asrwt>
<pdfrwt beam="1">  1        2 0.37587580E+00 0.27675957E+04</pdfrwt>
<pdfrwt beam="2">  1       -2 0.12057971E+00 0.27675957E+04</pdfrwt>
<totfact> 0.17183401E+00</totfact>
</mgrwt>
</event>
<event>
 6    1  0.5026615E-004  0.1688457E+04  0.7818608E-02  0.8767975E-01
          2   -1    0    0  501    0  0.00000000000E+00  0.00000000000E+00  0.18218695832E+04  0.18218695832E+04  0.00000000000E+00 0.  1.
         -2   -1    0    0    0  501 -0.00000000000E+00 -0.00000000000E+00 -0.39120359100E+03  0.39120359100E+03  0.00000000000E+00 0. -1.
         23    2    1    2    0    0 -0.48557050549E+03  0.68550866764E+03  0.78729036854E+03  0.11549460352E+04  0.91506123267E+02 0.  0.
         11    1    3    3    0    0 -0.20021268165E+03  0.23908989965E+03  0.34215148914E+03  0.46294355976E+03  0.00000000000E+00 0. -1.
        -11    1    3    3    0    0 -0.28535782384E+03  0.44641876799E+03  0.44513887940E+03  0.69200247543E+03  0.00000000000E+00 0.  1.
         22    1    1    2    0    0  0.48557050549E+03 -0.68550866764E+03  0.64337562366E+03  0.10581271390E+04  0.00000000000E+00 0. -1.
<mgrwt>
<rscale>  0 0.16884572E+04</rscale>
<asrwt>0</asrwt>
<pdfrwt beam="1">  1        2 0.28028762E+00 0.16884572E+04</pdfrwt>
<pdfrwt beam="2">  1       -2 0.60185169E-01 0.16884572E+04</pdfrwt>
<totfact> 0.20561600E+01</totfact>
</mgrwt>
</event>
<event>
 6    1  0.5026615E-004  0.1534073E+04  0.7818608E-02  0.8862106E-01
          2   -1    0    0  501    0  0.00000000000E+00  0.00000000000E+00  0.32956901499E+04  0.32956901499E+04  0.00000000000E+00 0.  1.
         -2   -1    0    0    0  501 -0.00000000000E+00 -0.00000000000E+00 -0.17851949786E+03  0.17851949786E+03  0.00000000000E+00 0. -1.
         23    2    1    2    0    0  0.26929986213E+03 -0.45331522935E+03  0.30458288653E+03  0.61262493793E+03  0.67241853783E+02 0.  0.
         13    1    3    3    0    0  0.96580055370E+02 -0.15683150269E+03  0.70294957883E+02  0.19714260939E+03  0.00000000000E+00 0.  1.
        -13    1    3    3    0    0  0.17271980676E+03 -0.29648372666E+03  0.23428792865E+03  0.41548232854E+03  0.00000000000E+00 0. -1.
         22    1    1    2    0    0 -0.26929986213E+03  0.45331522935E+03  0.28125877655E+04  0.28615847099E+04  0.00000000000E+00 0.  1.
<mgrwt>
<rscale>  0 0.15340729E+04</rscale>
<asrwt>0</asrwt>
<pdfrwt beam="1">  1        2 0.50702921E+00 0.15340729E+04</pdfrwt>
<pdfrwt beam="2">  1       -2 0.27464541E-01 0.15340729E+04</pdfrwt>
<totfact> 0.13189528E+01</totfact>
</mgrwt>
</event>
<event>
 6    1  0.5026615E-004  0.3457712E+04  0.7818608E-02  0.8123885E-01
          2   -1    0    0  501    0  0.00000000000E+00  0.00000000000E+00  0.19800120008E+04  0.19800120008E+04  0.00000000000E+00 0.  1.
         -2   -1    0    0    0  501 -0.00000000000E+00 -0.00000000000E+00 -0.15095577885E+04  0.15095577885E+04  0.00000000000E+00 0. -1.
         23    2    1    2    0    0  0.52566460231E+03  0.46883506171E+03 -0.13567592290E+04  0.15312954088E+04  0.89109114920E+02 0.  0.
         11    1    3    3    0    0  0.69212956938E+02  0.28115953942E+02 -0.12202330692E+03  0.14307560137E+03  0.00000000000E+00 0. -1.
        -11    1    3    3    0    0  0.45645164538E+03  0.44071910777E+03 -0.12347359221E+04  0.13882198075E+04  0.00000000000E+00 0.  1.
         22    1    1    2    0    0 -0.52566460231E+03 -0.46883506171E+03  0.18272134413E+04  0.19582743805E+04  0.00000000000E+00 0.  1.
<mgrwt>
<rscale>  0 0.34577117E+04</rscale>
<asrwt>0</asrwt>
<pdfrwt beam="1">  1        2 0.30461723E+00 0.34577117E+04</pdfrwt>
<pdfrwt beam="2">  1       -2 0.23223966E+00 0.34577117E+04</pdfrwt>
<totfact> 0.46792286E-01</totfact>
</mgrwt>
</event>
<event>
 6    1  0.5026615E-004  0.1187882E+04  0.7818608E-02  0.9123530E-01
          1   -1    0    0  501    0  0.00000000000E+00  0.00000000000E+00  0.92588679805E+03  0.92588679805E+03  0.00000000000E+00 0. -1.
         -1   -1    0    0    0  501 -0.00000000000E+00 -0.00000000000E+00 -0.38100332859E+03  0.38100332859E+03  0.00000000000E+00 0.  1.
         23    2    1    2    0    0  0.54847982673E+02 -0.53719442073E+03  0.11619780837E+02  0.54797227307E+03  0.92479434896E+02 0.  0.
         13    1    3    3    0    0  0.33345457102E+02 -0.20031334635E+03 -0.38553969696E+02  0.20669727820E+03  0.00000000000E+00 0. -1.
        -13    1    3    3    0    0  0.21502525571E+02 -0.33688107438E+03  0.50173750533E+02  0.34127499487E+03  0.00000000000E+00 0.  1.
         22    1    1    2    0    0 -0.54847982673E+02  0.53719442073E+03  0.53326368863E+03  0.75891785358E+03  0.00000000000E+00 0. -1.
<mgrwt>
<rscale>  0 0.11878821E+04</rscale>
<asrwt>0</asrwt>
<pdfrwt beam="1">  1        1 0.14244412E+00 0.11878821E+04</pdfrwt>
<pdfrwt beam="2">  1       -1 0.58615897E-01 0.11878821E+04</pdfrwt>
<totfact> 0.50641596E+01</totfact>
</mgrwt>
</event>
<event>
 6    1  0.5026615E-004  0.1550722E+04  0.7818608E-02  0.8851407E-01
          2   -1    0    0  501    0  0.00000000000E+00  0.00000000000E+00  0.17869014631E+04  0.17869014631E+04  0.00000000000E+00 0.  1.
         -2   -1    0    0    0  501 -0.00000000000E+00 -0.00000000000E+00 -0.33643956147E+03  0.33643956147E+03  0.00000000000E+00 0. -1.
         23    2    1    2    0    0  0.37565401709E+03 -0.41502628409E+03 -0.22675772114E+01  0.56648981276E+03  0.86849346639E+02 0.  0.
         11    1    3    3    0    0  0.30240739861E+03 -0.37665076828E+03 -0.12356093389E+02  0.48318599837E+03  0.00000000000E+00 0. -1.
        -11    1    3    3    0    0  0.73246618481E+02 -0.38375515809E+02  0.10088516178E+02  0.83303814385E+02  0.00000000000E+00 0.  1.
         22    1    1    2    0    0 -0.37565401709E+03  0.41502628409E+03  0.14527294789E+04  0.15568512118E+04  0.00000000000E+00 0.  1.
<mgrwt>
<rscale>  0 0.15507216E+04</rscale>
<asrwt>0</asrwt>
<pdfrwt beam="1">  1        2 0.27490791E+00 0.15507216E+04</pdfrwt>
<pdfrwt beam="2">  1       -2 0.51759933E-01 0.15507216E+04</pdfrwt>
<totfact> 0.29770643E+01</totfact>
</mgrwt>
</event>
<event>
 6    1  0.5026615E-004  0.1857783E+04  0.7818608E-02  0.8676160E-01
         -2   -1    0    0    0  501 -0.00000000000E+00  0.00000000000E+00  0.33017015699E+03  0.33017015699E+03  0.00000000000E+00 0. -1.
          2   -1    0    0  501    0  0.00000000000E+00 -0.00000000000E+00 -0.26133186541E+04  0.26133186541E+04  0.00000000000E+00 0.  1.
         23    2    1    2    0    0  0.54189677112E+03  0.42372657284E+03 -0.21281752932E+04  0.22383554812E+04  0.88931784125E+02 0.  0.
         13    1    3    3    0    0  0.40173923163E+03  0.26234189524E+03 -0.14854944138E+04  0.15610609641E+04  0.00000000000E+00 0. -1.
        -13    1    3    3    0    0  0.14015753949E+03  0.16138467760E+03 -0.64268087942E+03  0.67729451704E+03  0.00000000000E+00 0.  1.
         22    1    1    2    0    0 -0.54189677112E+03 -0.42372657284E+03 -0.15497320392E+03  0.70513332996E+03  0.00000000000E+00 0. -1.
<mgrwt>
<rscale>  0 0.18577834E+04</rscale>
<asrwt>0</asrwt>
<pdfrwt beam="1">  1        2 0.40204904E+00 0.18577834E+04</pdfrwt>
<pdfrwt beam="2">  1       -2 0.50795407E-01 0.18577834E+04</pdfrwt>
<totfact> 0.10305109E+01</totfact>
</mgrwt>
</event>
<event>
 6    1  0.5026615E-004  0.5794535E+04  0.7818608E-02  0.7716412E-01
         -2   -1    0    0    0  501 -0.00000000000E+00  0.00000000000E+00  0.29812073143E+04  0.29812073143E+04  0.00000000000E+00 0. -1.
          2   -1    0    0  501    0  0.00000000000E+00 -0.00000000000E+00 -0.28156913607E+04  0.28156913607E+04  0.00000000000E+00 0.  1.
         23    2    1    2    0    0 -0.84603350402E+03  0.49180522046E+03  0.28101018805E+04  0.29770618376E+04  0.92625814361E+02 0.  0.
         13    1    3    3    0    0 -0.48203511779E+03  0.32695883235E+03  0.16029166679E+04  0.17054623353E+04  0.00000000000E+00 0. -1.
        -13    1    3    3    0    0 -0.36399838623E+03  0.16484638812E+03  0.12071852126E+04  0.12715995024E+04  0.00000000000E+00 0.  1.
         22    1    1    2    0    0  0.84603350402E+03 -0.49180522046E+03 -0.26445859269E+04  0.28198368374E+04  0.00000000000E+00 0.  1.
<mgrwt>
<rscale>  0 0.57945352E+04</rscale>
<asrwt>0</asrwt>
<pdfrwt beam="1">  1        2 0.43318329E+00 0.57945352E+04</pdfrwt>
<pdfrwt beam="2">  1       -2 0.45864728E+00 0.57945352E+04</pdfrwt>
<totfact> 0.47327778E-03</totfact>
</mgrwt>
</event>
<event>
 6    1  0.5026615E-004  0.1756804E+04  0.7818608E-02  0.8729614E-01
          2   -1    0    0  501    0  0.00000000000E+00  0.00000000000E+00  0.93923246139E+03  0.93923246139E+03  0.00000000000E+00 0.  1.
         -2   -1    0    0    0  501 -0.00000000000E+00 -0.00000000000E+00 -0.82151145848E+03  0.82151145848E+03  0.00000000000E+00 0. -1.
         23    2    1    2    0    0 -0.26652667385E+03  0.69481047879E+03  0.52220084292E+03  0.91374804604E+03  0.91889618561E+02 0.  0.
         11    1    3    3    0    0 -0.86266715533E+02  0.22251539080E+03  0.11655929077E+03  0.26559577108E+03  0.00000000000E+00 0.  1.
        -11    1    3    3    0    0 -0.18025995832E+03  0.47229508799E+03  0.40564155215E+03  0.64815227496E+03  0.00000000000E+00 0. -1.
         22    1    1    2    0    0  0.26652667385E+03 -0.69481047879E+03 -0.40447984001E+03  0.84699587382E+03  0.00000000000E+00 0. -1.
<mgrwt>
<rscale>  0 0.17568042E+04</rscale>
<asrwt>0</asrwt>
<pdfrwt beam="1">  1        2 0.14449730E+00 0.17568042E+04</pdfrwt>
<pdfrwt beam="2">  1       -2 0.12638638E+00 0.17568042E+04</pdfrwt>
<totfact> 0.12192567E+01</totfact>
</mgrwt>
</event>
<event>
 6    1  0.5026615E-004  0.2871865E+04  0.7818608E-02  0.8281298E-01
          2   -1    0    0  501    0  0.00000000000E+00  0.00000000000E+00  0.12482683964E+04  0.12482683964E+04  0.00000000000E+00 0.  1.
         -2   -1    0    0    0  501 -0.00000000000E+00 -0.00000000000E+00 -0.16518095407E+04  0.16518095407E+04  0.00000000000E+00 0. -1.
         23    2    1    2    0    0  0.70086447205E+02 -0.14157918244E+04 -0.42439914184E+03  0.14823989691E+04  0.89517996528E+02 0.  0.
         11    1    3    3    0    0  0.18977031785E+02 -0.46965083882E+03 -0.97234231930E+02  0.47998597271E+03  0.00000000000E+00 0.  1.
        -11    1    3    3    0    0  0.51109415420E+02 -0.94614098561E+03 -0.32716490991E+03  0.10024129964E+04  0.00000000000E+00 0. -1.
         22    1    1    2    0    0 -0.70086447205E+02  0.14157918244E+04  0.20857997528E+02  0.14176789680E+04  0.00000000000E+00 0.  1.
<mgrwt>
<rscale>  0 0.28718647E+04</rscale>
<asrwt>0</asrwt>
<pdfrwt beam="1">  1        2 0.19204129E+00 0.28718647E+04</pdfrwt>
<pdfrwt beam="2">  1       -2 0.25412454E+00 0.28718647E+04</pdfrwt>
<totfact> 0.92967152E-01</totfact>
</mgrwt>
</event>
<event>
 6    1  0.5026615E-004  0.5384326E+04  0.7818608E-02  0.7771810E-01
         -2   -1    0    0    0  501 -0.00000000000E+00  0.00000000000E+00  0.20737982804E+04  0.20737982804E+04  0.00000000000E+00 0. -1.
          2   -1    0    0  501    0  0.00000000000E+00 -0.00000000000E+00 -0.34949109716E+04  0.34949109716E+04  0.00000000000E+00 0.  1.
         23    2    1    2    0    0 -0.61771067241E+03 -0.63214364511E+03  0.19181635734E+04  0.21144455050E+04  0.10176559656E+03 0.  0.
         13    1    3    3    0    0 -0.16352904617E+03 -0.23408121047E+03  0.59492831005E+03  0.65990564184E+03  0.00000000000E+00 0.  1.
        -13    1    3    3    0    0 -0.45418162624E+03 -0.39806243464E+03  0.13232352633E+04  0.14545398632E+04  0.00000000000E+00 0. -1.
         22    1    1    2    0    0  0.61771067241E+03  0.63214364511E+03 -0.33392762646E+04  0.34542637470E+04  0.00000000000E+00 0.  1.
<mgrwt>
<rscale>  0 0.53843255E+04</rscale>
<asrwt>0</asrwt>
<pdfrwt beam="1">  1        2 0.53767861E+00 0.53843255E+04</pdfrwt>
<pdfrwt beam="2">  1       -2 0.31904589E+00 0.53843255E+04</pdfrwt>
<totfact> 0.14021682E-02</totfact>
</mgrwt>
</event>
<event>
 6    1  0.5026615E-004  0.1409022E+04  0.7818608E-02  0.8947314E-01
         -2   -1    0    0    0  501 -0.00000000000E+00  0.00000000000E+00  0.39734280385E+03  0.39734280385E+03  0.00000000000E+00 0. -1.
          2   -1    0    0  501    0  0.00000000000E+00 -0.00000000000E+00 -0.12491369384E+04  0.12491369384E+04  0.00000000000E+00 0.  1.
         23    2    1    2    0    0 -0.44240145548E+03  0.39947837864E+03 -0.85766551360E+03  0.10503786637E+04  0.11136956974E+03 0.  0.
         11    1    3    3    0    0 -0.28889321286E+03  0.32696220175E+03 -0.60224819042E+03  0.74368437706E+03  0.00000000000E+00 0.  1.
        -11    1    3    3    0    0 -0.15350824262E+03  0.72516176887E+02 -0.25541732317E+03  0.30669428661E+03  0.00000000000E+00 0. -1.
         22    1    1    2    0    0  0.44240145548E+03 -0.39947837864E+03  0.58713790465E+01  0.59610107859E+03  0.00000000000E+00 0. -1.
<mgrwt>
<rscale>  0 0.14090218E+04</rscale>
<asrwt>0</asrwt>
<pdfrwt beam="1">  1        2 0.19217492E+00 0.14090218E+04</pdfrwt>
<pdfrwt beam="2">  1       -2 0.61129661E-01 0.14090218E+04</pdfrwt>
<totfact> 0.42879002E+01</totfact>
</mgrwt>
</event>
<event>
 6    1  0.5026615E-004  0.4662488E+04  0.7818608E-02  0.7882792E-01
         -2   -1    0    0    0  501 -0.00000000000E+00  0.00000000000E+00  0.96400430477E+03  0.96400430477E+03  0.00000000000E+00 0. -1.
          2   -1    0    0  501    0  0.00000000000E+00 -0.00000000000E+00 -0.56376279756E+04  0.56376279756E+04  0.00000000000E+00 0.  1.
         23    2    1    2    0    0 -0.28734690647E+03 -0.20506007508E+04 -0.38513108469E+04  0.43736892685E+04  0.95031015717E+02 0.  0.
         13    1    3    3    0    0 -0.10675060233E+03 -0.60463997550E+03 -0.12221117952E+04  0.13676777512E+04  0.00000000000E+00 0. -1.
        -13    1    3    3    0    0 -0.18059630414E+03 -0.14459607753E+04 -0.26291990518E+04  0.30060115174E+04  0.00000000000E+00 0.  1.
         22    1    1    2    0    0  0.28734690647E+03  0.20506007508E+04 -0.82231282388E+03  0.22279430119E+04  0.00000000000E+00 0. -1.
<mgrwt>
<rscale>  0 0.46624876E+04</rscale>
<asrwt>0</asrwt>
<pdfrwt beam="1">  1        2 0.86732737E+00 0.46624876E+04</pdfrwt>
<pdfrwt beam="2">  1       -2 0.14830836E+00 0.46624876E+04</pdfrwt>
<totfact> 0.71711506E-04</totfact>
</mgrwt>
</event>
<event>
 6    1  0.5026615E-004  0.1512661E+04  0.7818608E-02  0.8876077E-01
          2   -1    0    0  501    0  0.00000000000E+00  0.00000000000E+00  0.13436395994E+04  0.13436395994E+04  0.00000000000E+00 0.  1.
         -2   -1    0    0    0  501 -0.00000000000E+00 -0.00000000000E+00 -0.42573600695E+03  0.42573600695E+03  0.00000000000E+00 0. -1.
         23    2    1    2    0    0 -0.59564299694E+01  0.37488624818E+03  0.12253069318E+04  0.12845333731E+04  0.89853944070E+02 0.  0.
         13    1    3    3    0    0 -0.41222003435E+02  0.29021693321E+03  0.89912630031E+03  0.94570250386E+03  0.00000000000E+00 0. -1.
        -13    1    3    3    0    0  0.35265573466E+02  0.84669314971E+02  0.32618063149E+03  0.33883086921E+03  0.00000000000E+00 0.  1.
         22    1    1    2    0    0  0.59564299694E+01 -0.37488624818E+03 -0.30740333935E+03  0.48484223329E+03  0.00000000000E+00 0. -1.
<mgrwt>
<rscale>  0 0.15126609E+04</rscale>
<asrwt>0</asrwt>
<pdfrwt beam="1">  1        2 0.20671378E+00 0.15126609E+04</pdfrwt>
<pdfrwt beam="2">  1       -2 0.65497848E-01 0.15126609E+04</pdfrwt>
<totfact> 0.32323955E+01</totfact>
</mgrwt>
</event>
<event>
 6    1  0.5026615E-004  0.8609691E+03  0.7818608E-02  0.9475732E-01
         -2   -1    0    0    0  501 -0.00000000000E+00  0.00000000000E+00  0.14264555766E+03  0.14264555766E+03  0.00000000000E+00 0. -1.
          2   -1    0    0  501    0  0.00000000000E+00 -0.00000000000E+00 -0.12991427653E+04  0.12991427653E+04  0.00000000000E+00 0.  1.
         23    2    1    2    0    0 -0.30051616960E+03 -0.30028254642E+03 -0.53864358280E+03  0.69197322736E+03  0.90611600895E+02 0.  0.
         11    1    3    3    0    0 -0.65655185557E+02 -0.58823170901E+02 -0.59798826076E+02  0.10652074176E+03  0.00000000000E+00 0. -1.
        -11    1    3    3    0    0 -0.23486098404E+03 -0.24145937551E+03 -0.47884475673E+03  0.58545248560E+03  0.00000000000E+00 0.  1.
         22    1    1    2    0    0  0.30051616960E+03  0.30028254642E+03 -0.61785362487E+03  0.74981509563E+03  0.00000000000E+00 0.  1.
<mgrwt>
<rscale>  0 0.86096909E+03</rscale>
<asrwt>0</asrwt>
<pdfrwt beam="1">  1        2 0.19986811E+00 0.86096909E+03</pdfrwt>
<pdfrwt beam="2">  1       -2 0.21945471E-01 0.86096909E+03</pdfrwt>
<totfact> 0.30102181E+02</totfact>
</mgrwt>
</event>
<event>
 6    1  0.5026615E-004  0.5667653E+03  0.7818608E-02  0.9976862E-01
          2   -1    0    0  501    0  0.00000000000E+00  0.00000000000E+00  0.44085417047E+03  0.44085417047E+03  0.00000000000E+00 0.  1.
         -2   -1    0    0    0  501 -0.00000000000E+00 -0.00000000000E+00 -0.18215936871E+03  0.18215936871E+03  0.00000000000E+00 0. -1.
         23    2    1    2    0    0  0.22158684169E+03 -0.16402782873E+03  0.15285864926E+03  0.32770497482E+03  0.89548460938E+02 0.  0.
         11    1    3    3    0    0  0.34124573566E+02 -0.44348247405E+02 -0.31339087445E+01  0.56045293763E+02  0.00000000000E+00 0. -1.
        -11    1    3    3    0    0  0.18746226813E+03 -0.11967958133E+03  0.15599255800E+03  0.27165968105E+03  0.00000000000E+00 0.  1.
         22    1    1    2    0    0 -0.22158684169E+03  0.16402782873E+03  0.10583615250E+03  0.29530856436E+03  0.00000000000E+00 0. -1.
<mgrwt>
<rscale>  0 0.56676527E+03</rscale>
<asrwt>0</asrwt>
<pdfrwt beam="1">  1        2 0.67823719E-01 0.56676527E+03</pdfrwt>
<pdfrwt beam="2">  1       -2 0.28024518E-01 0.56676527E+03</pdfrwt>
<totfact> 0.83176671E+02</totfact>
</mgrwt>
</event>
<event>
 6    1  0.5026615E-004  0.3711639E+04  0.7818608E-02  0.8065387E-01
          2   -1    0    0  501    0  0.00000000000E+00  0.00000000000E+00  0.38349311327E+04  0.38349311327E+04  0.00000000000E+00 0.  1.
         -2   -1    0    0    0  501 -0.00000000000E+00 -0.00000000000E+00 -0.89807750992E+03  0.89807750992E+03  0.00000000000E+00 0. -1.
         23    2    1    2    0    0  0.17530775929E+04 -0.46808135688E+03  0.19589670764E+04  0.26717849039E+04  0.92202835605E+02 0.  0.
         13    1    3    3    0    0  0.11940500314E+04 -0.31750033707E+03  0.13961906791E+04  0.18643793481E+04  0.00000000000E+00 0.  1.
        -13    1    3    3    0    0  0.55902756153E+03 -0.15058101981E+03  0.56277639735E+03  0.80740555577E+03  0.00000000000E+00 0. -1.
         22    1    1    2    0    0 -0.17530775929E+04  0.46808135688E+03  0.97788654638E+03  0.20612237387E+04  0.00000000000E+00 0. -1.
<mgrwt>
<rscale>  0 0.37116387E+04</rscale>
<asrwt>0</asrwt>
<pdfrwt beam="1">  1        2 0.58998940E+00 0.37116387E+04</pdfrwt>
<pdfrwt beam="2">  1       -2 0.13816577E+00 0.37116387E+04</pdfrwt>
<totfact> 0.13825688E-01</totfact>
</mgrwt>
</event>
<event>
 6    1  0.5026615E-004  0.2034801E+04  0.7818608E-02  0.8590521E-01
         -2   -1    0    0    0  501 -0.00000000000E+00  0.00000000000E+00  0.93285638380E+03  0.93285638380E+03  0.00000000000E+00 0. -1.
          2   -1    0    0  501    0  0.00000000000E+00 -0.00000000000E+00 -0.11096070592E+04  0.11096070592E+04  0.00000000000E+00 0.  1.
         23    2    1    2    0    0 -0.21308386056E+03 -0.50495655774E+03  0.76707088570E+03  0.95104922465E+03  0.12534363640E+03 0.  0.
         11    1    3    3    0    0 -0.60554015946E+02 -0.26867051425E+03  0.44638809978E+03  0.52451212540E+03  0.00000000000E+00 0.  1.
        -11    1    3    3    0    0 -0.15252984461E+03 -0.23628604349E+03  0.32068278592E+03  0.42653709924E+03  0.00000000000E+00 0. -1.
         22    1    1    2    0    0  0.21308386056E+03  0.50495655774E+03 -0.94382156106E+03  0.10914142183E+04  0.00000000000E+00 0.  1.
<mgrwt>
<rscale>  0 0.20348012E+04</rscale>
<asrwt>0</asrwt>
<pdfrwt beam="1">  1        2 0.17070878E+00 0.20348012E+04</pdfrwt>
<pdfrwt beam="2">  1       -2 0.14351637E+00 0.20348012E+04</pdfrwt>
<totfact> 0.67027703E+00</totfact>
</mgrwt>
</event>
<event>
 6    1  0.5026615E-004  0.1595396E+04  0.7818608E-02  0.8823382E-01
          2   -1    0    0  501    0  0.00000000000E+00  0.00000000000E+00  0.15726178470E+04  0.15726178470E+04  0.00000000000E+00 0.  1.
         -2   -1    0    0    0  501 -0.00000000000E+00 -0.00000000000E+00 -0.40462582411E+03  0.40462582411E+03  0.00000000000E+00 0. -1.
         23    2    1    2    0    0 -0.26329303850E+03 -0.70826042692E+03  0.27967766121E+03  0.81102822718E+03  0.92688373814E+02 0.  0.
         11    1    3    3    0    0 -0.23107097576E+03 -0.58635804329E+03  0.26642206358E+03  0.68424430340E+03  0.00000000000E+00 0.  1.
        -11    1    3    3    0    0 -0.32222062738E+02 -0.12190238363E+03  0.13255597638E+02  0.12678392378E+03  0.00000000000E+00 0. -1.
         22    1    1    2    0    0  0.26329303850E+03  0.70826042692E+03  0.88831436164E+03  0.11662154439E+04  0.00000000000E+00 0.  1.
<mgrwt>
<rscale>  0 0.15953956E+04</rscale>
<asrwt>0</asrwt>
<pdfrwt beam="1">  1        2 0.24194120E+00 0.15953956E+04</pdfrwt>
<pdfrwt beam="2">  1       -2 0.62250128E-01 0.15953956E+04</pdfrwt>
<totfact> 0.26539774E+01</totfact>
</mgrwt>
</event>
<event>
 6    1  0.5026615E-004  0.8705279E+03  0.7818608E-02  0.9463192E-01
         -2   -1    0    0    0  501 -0.00000000000E+00  0.00000000000E+00  0.15457140703E+03  0.15457140703E+03  0.00000000000E+00 0.  1.
          2   -1    0    0  501    0  0.00000000000E+00 -0.00000000000E+00 -0.12256775920E+04  0.12256775920E+04  0.00000000000E+00 0. -1.
         23    2    1    2    0    0  0.44316714751E+02 -0.33076544707E+03 -0.97255055248E+03  0.10322792232E+04  0.91520846399E+02 0.  0.
         13    1    3    3    0    0  0.61144942285E+02 -0.21722042052E+03 -0.55199481900E+03  0.59634025125E+03  0.00000000000E+00 0.  1.
        -13    1    3    3    0    0 -0.16828227534E+02 -0.11354502655E+03 -0.42055573348E+03  0.43593897194E+03  0.00000000000E+00 0. -1.
         22    1    1    2    0    0 -0.44316714751E+02  0.33076544707E+03 -0.98555632460E+02  0.34796977580E+03  0.00000000000E+00 0.  1.
<mgrwt>
<rscale>  0 0.87052791E+03</rscale>
<asrwt>0</asrwt>
<pdfrwt beam="1">  1        2 0.18856578E+00 0.87052791E+03</pdfrwt>
<pdfrwt beam="2">  1       -2 0.23780217E-01 0.87052791E+03</pdfrwt>
<totfact> 0.28779206E+02</totfact>
</mgrwt>
</event>
<event>
 6    1  0.5026615E-004  0.1560781E+04  0.7818608E-02  0.8845011E-01
         -2   -1    0    0    0  501 -0.00000000000E+00  0.00000000000E+00  0.10665810819E+04  0.10665810819E+04  0.00000000000E+00 0. -1.
          2   -1    0    0  501    0  0.00000000000E+00 -0.00000000000E+00 -0.57099220574E+03  0.57099220574E+03  0.00000000000E+00 0.  1.
         23    2    1    2    0    0  0.32187604486E+03 -0.11930878714E+03  0.98084978679E+03  0.10431686053E+04  0.91080513101E+02 0.  0.
         11    1    3    3    0    0  0.44124455663E+02 -0.54098165389E+02  0.19903820144E+03  0.21092601717E+03  0.00000000000E+00 0.  1.
        -11    1    3    3    0    0  0.27775158920E+03 -0.65210621747E+02  0.78181158535E+03  0.83224258812E+03  0.00000000000E+00 0. -1.
         22    1    1    2    0    0 -0.32187604486E+03  0.11930878714E+03 -0.48526091067E+03  0.59440468232E+03  0.00000000000E+00 0.  1.
<mgrwt>
<rscale>  0 0.15607812E+04</rscale>
<asrwt>0</asrwt>
<pdfrwt beam="1">  1        2 0.87844955E-01 0.15607812E+04</pdfrwt>
<pdfrwt beam="2">  1       -2 0.16408940E+00 0.15607812E+04</pdfrwt>
<totfact> 0.11892218E+01</totfact>
</mgrwt>
</event>
<event>
 6    1  0.5026615E-004  0.4991139E+04  0.7818608E-02  0.7829876E-01
          2   -1    0    0  501    0  0.00000000000E+00  0.00000000000E+00  0.46689998964E+04  0.46689998964E+04  0.00000000000E+00 0.  1.
         -2   -1    0    0    0  501 -0.00000000000E+00 -0.00000000000E+00 -0.13338760575E+04  0.13338760575E+04  0.00000000000E+00 0. -1.
         23    2    1    2    0    0 -0.14040334940E+04  0.11035696080E+04 -0.42700458577E+03  0.18384088553E+04  0.90764923138E+02 0.  0.
         11    1    3    3    0    0 -0.71364136642E+03  0.50992451125E+03 -0.18767207140E+03  0.89695474436E+03  0.00000000000E+00 0.  1.
        -11    1    3    3    0    0 -0.69039212758E+03  0.59364509671E+03 -0.23933251437E+03  0.94145411099E+03  0.00000000000E+00 0. -1.
         22    1    1    2    0    0  0.14040334940E+04 -0.11035696080E+04  0.37621284246E+04  0.41644670986E+04  0.00000000000E+00 0.  1.
<mgrwt>
<rscale>  0 0.49911390E+04</rscale>
<asrwt>0</asrwt>
<pdfrwt beam="1">  1        2 0.71830767E+00 0.49911390E+04</pdfrwt>
<pdfrwt beam="2">  1       -2 0.20521170E+00 0.49911390E+04</pdfrwt>
<totfact> 0.73306187E-03</totfact>
</mgrwt>
</event>
<event>
 6    1  0.5026615E-004  0.2401843E+04  0.7818608E-02  0.8438814E-01
         -2   -1    0    0    0  501 -0.00000000000E+00  0.00000000000E+00  0.35079549454E+03  0.35079549454E+03  0.00000000000E+00 0. -1.
          2   -1    0    0  501    0  0.00000000000E+00 -0.00000000000E+00 -0.41112614404E+04  0.41112614404E+04  0.00000000000E+00 0.  1.
         23    2    1    2    0    0 -0.15503918759E+03  0.13455102230E+03 -0.40778480021E+04  0.40840721511E+04  0.93058474341E+02 0.  0.
         11    1    3    3    0    0 -0.14554634913E+03  0.91155952206E+02 -0.26660741082E+04  0.26715995766E+04  0.00000000000E+00 0. -1.
        -11    1    3    3    0    0 -0.94928384535E+01  0.43395070092E+02 -0.14117738939E+04  0.14124725744E+04  0.00000000000E+00 0.  1.
         22    1    1    2    0    0  0.15503918759E+03 -0.13455102230E+03  0.31738205619E+03  0.37798478393E+03  0.00000000000E+00 0. -1.
<mgrwt>
<rscale>  0 0.24018426E+04</rscale>
<asrwt>0</asrwt>
<pdfrwt beam="1">  1        2 0.63250180E+00 0.24018426E+04</pdfrwt>
<pdfrwt beam="2">  1       -2 0.53968535E-01 0.24018426E+04</pdfrwt>
<totfact> 0.80929152E-01</totfact>
</mgrwt>
</event>
<event>
 6    1  0.5026615E-004  0.4251277E+04  0.7818608E-02  0.7955689E-01
         -2   -1    0    0    0  501 -0.00000000000E+00  0.00000000000E+00  0.12485507479E+04  0.12485507479E+04  0.00000000000E+00 0. -1.
          2   -1    0    0  501    0  0.00000000000E+00 -0.00000000000E+00 -0.36188666955E+04  0.36188666955E+04  0.00000000000E+00 0.  1.
         23    2    1    2    0    0 -0.12618979021E+04 -0.12659477638E+04 -0.24999701555E+04  0.30752622409E+04  0.11125203713E+03 0.  0.
         13    1    3    3    0    0 -0.53102564297E+03 -0.52034248531E+03 -0.94760858891E+03  0.12044528107E+04  0.00000000000E+00 0. -1.
        -13    1    3    3    0    0 -0.73087225914E+03 -0.74560527854E+03 -0.15523615666E+04  0.18708094302E+04  0.00000000000E+00 0.  1.
         22    1    1    2    0    0  0.12618979021E+04  0.12659477638E+04  0.12965420798E+03  0.17921552025E+04  0.00000000000E+00 0. -1.
<mgrwt>
<rscale>  0 0.42512769E+04</rscale>
<asrwt>0</asrwt>
<pdfrwt beam="1">  1        2 0.55674872E+00 0.42512769E+04</pdfrwt>
<pdfrwt beam="2">  1       -2 0.19208473E+00 0.42512769E+04</pdfrwt>
<totfact> 0.77461527E-02</totfact>
</mgrwt>
</event>
<event>
 6    1  0.5026615E-004  0.3900670E+04  0.7818608E-02  0.8024890E-01
         -2   -1    0    0    0  501 -0.00000000000E+00  0.00000000000E+00  0.10310127829E+04  0.10310127829E+04  0.00000000000E+00 0. -1.
          2   -1    0    0  501    0  0.00000000000E+00 -0.00000000000E+00 -0.36893892067E+04  0.36893892067E+04  0.00000000000E+00 0.  1.
         23    2    1    2    0    0 -0.10886258791E+04 -0.55891429768E+03  0.50626185599E+03  0.13274052406E+04  0.90620688036E+02 0.  0.
         13    1    3    3    0    0 -0.62809863832E+03 -0.29818379387E+03  0.32988591074E+03  0.76957532996E+03  0.00000000000E+00 0.  1.
        -13    1    3    3    0    0 -0.46052724080E+03 -0.26073050381E+03  0.17637594525E+03  0.55782991063E+03  0.00000000000E+00 0. -1.
         22    1    1    2    0    0  0.10886258791E+04  0.55891429768E+03 -0.31646382798E+04  0.33929967490E+04  0.00000000000E+00 0.  1.
<mgrwt>
<rscale>  0 0.39006704E+04</rscale>
<asrwt>0</asrwt>
<pdfrwt beam="1">  1        2 0.56759834E+00 0.39006704E+04</pdfrwt>
<pdfrwt beam="2">  1       -2 0.15861735E+00 0.39006704E+04</pdfrwt>
<totfact> 0.12160356E-01</totfact>
</mgrwt>
</event>
<event>
 6    1  0.5026615E-004  0.2141144E+04  0.7818608E-02  0.8543333E-01
         -2   -1    0    0    0  501 -0.00000000000E+00  0.00000000000E+00  0.73071400523E+03  0.73071400523E+03  0.00000000000E+00 0. -1.
          2   -1    0    0  501    0  0.00000000000E+00 -0.00000000000E+00 -0.15684990341E+04  0.15684990341E+04  0.00000000000E+00 0.  1.
         23    2    1    2    0    0 -0.83349684865E+03  0.39994015637E+03  0.15607635394E+03  0.94185178541E+03  0.89754286948E+02 0.  0.
         11    1    3    3    0    0 -0.24400464388E+03  0.88249714711E+02  0.12663170968E+02  0.25978189753E+03  0.00000000000E+00 0. -1.
        -11    1    3    3    0    0 -0.58949220477E+03  0.31169044165E+03  0.14341318297E+03  0.68206988788E+03  0.00000000000E+00 0.  1.
         22    1    1    2    0    0  0.83349684865E+03 -0.39994015637E+03 -0.99386138278E+03  0.13573612539E+04  0.00000000000E+00 0.  1.
<mgrwt>
<rscale>  0 0.21411438E+04</rscale>
<asrwt>0</asrwt>
<pdfrwt beam="1">  1        2 0.24130754E+00 0.21411438E+04</pdfrwt>
<pdfrwt beam="2">  1       -2 0.11241754E+00 0.21411438E+04</pdfrwt>
<totfact> 0.66492939E+00</totfact>
</mgrwt>
</event>
<event>
 6    1  0.5026615E-004  0.2350773E+04  0.7818608E-02  0.8458167E-01
          2   -1    0    0  501    0  0.00000000000E+00  0.00000000000E+00  0.96079572440E+03  0.96079572440E+03  0.00000000000E+00 0.  1.
         -2   -1    0    0    0  501 -0.00000000000E+00 -0.00000000000E+00 -0.14379053994E+04  0.14379053994E+04  0.00000000000E+00 0. -1.
         23    2    1    2    0    0 -0.70693541946E+03 -0.27273833665E+03  0.67561908715E+03  0.10192347463E+04  0.90743757768E+02 0.  0.
         13    1    3    3    0    0 -0.41768741161E+03 -0.11746106462E+03  0.35923659246E+03  0.56330347494E+03  0.00000000000E+00 0. -1.
        -13    1    3    3    0    0 -0.28924800785E+03 -0.15527727203E+03  0.31638249469E+03  0.45593127136E+03  0.00000000000E+00 0.  1.
         22    1    1    2    0    0  0.70693541946E+03  0.27273833665E+03 -0.11527287622E+04  0.13794663775E+04  0.00000000000E+00 0. -1.
<mgrwt>
<rscale>  0 0.23507729E+04</rscale>
<asrwt>0</asrwt>
<pdfrwt beam="1">  1        2 0.14781473E+00 0.23507729E+04</pdfrwt>
<pdfrwt beam="2">  1       -2 0.22121621E+00 0.23507729E+04</pdfrwt>
<totfact> 0.23409733E+00</totfact>
</mgrwt>
</event>
<event>
 6    1  0.5026615E-004  0.2917244E+04  0.7818608E-02  0.8267765E-01
         -2   -1    0    0    0  501 -0.00000000000E+00  0.00000000000E+00  0.22082948246E+04  0.22082948246E+04  0.00000000000E+00 0. -1.
          2   -1    0    0  501    0  0.00000000000E+00 -0.00000000000E+00 -0.96344849524E+03  0.96344849524E+03  0.00000000000E+00 0.  1.
         23    2    1    2    0    0  0.54705767802E+03  0.31386746073E+03 -0.80484645753E+03  0.10272094762E+04  0.97962246575E+02 0.  0.
         11    1    3    3    0    0  0.41429701706E+03  0.23301343335E+03 -0.66963957033E+03  0.82119086248E+03  0.00000000000E+00 0.  1.
        -11    1    3    3    0    0  0.13276066096E+03  0.80854027381E+02 -0.13520688720E+03  0.20601861369E+03  0.00000000000E+00 0. -1.
         22    1    1    2    0    0 -0.54705767802E+03 -0.31386746073E+03  0.20496927869E+04  0.21445338437E+04  0.00000000000E+00 0. -1.
<mgrwt>
<rscale>  0 0.29172441E+04</rscale>
<asrwt>0</asrwt>
<pdfrwt beam="1">  1        2 0.14822285E+00 0.29172441E+04</pdfrwt>
<pdfrwt beam="2">  1       -2 0.33973766E+00 0.29172441E+04</pdfrwt>
<totfact> 0.41376497E-01</totfact>
</mgrwt>
</event>
<event>
 6    1  0.5026615E-004  0.1198653E+04  0.7818608E-02  0.9114036E-01
         -2   -1    0    0    0  501 -0.00000000000E+00  0.00000000000E+00  0.77872603149E+02  0.77872603149E+02  0.00000000000E+00 0. -1.
          2   -1    0    0  501    0  0.00000000000E+00 -0.00000000000E+00 -0.46125635034E+04  0.46125635034E+04  0.00000000000E+00 0.  1.
         23    2    1    2    0    0 -0.34782775626E+03  0.38799294642E+03 -0.34132639742E+04  0.34538597745E+04  0.85168714354E+02 0.  0.
         13    1    3    3    0    0 -0.18644522611E+03  0.15431791386E+03 -0.14224945833E+04  0.14429368248E+04  0.00000000000E+00 0.  1.
        -13    1    3    3    0    0 -0.16138253015E+03  0.23367503257E+03 -0.19907693909E+04  0.20109229497E+04  0.00000000000E+00 0. -1.
         22    1    1    2    0    0  0.34782775626E+03 -0.38799294642E+03 -0.11214269261E+04  0.12365763321E+04  0.00000000000E+00 0. -1.
<mgrwt>
<rscale>  0 0.11986531E+04</rscale>
<asrwt>0</asrwt>
<pdfrwt beam="1">  1        2 0.70962524E+00 0.11986531E+04</pdfrwt>
<pdfrwt beam="2">  1       -2 0.11980399E-01 0.11986531E+04</pdfrwt>
<totfact> 0.50962708E+00</totfact>
</mgrwt>
</event>
<event>
 6    1  0.5026615E-004  0.1341492E+04  0.7818608E-02  0.8997294E-01
         -2   -1    0    0    0  501 -0.00000000000E+00  0.00000000000E+00  0.10778832116E+03  0.10778832116E+03  0.00000000000E+00 0. -1.
          2   -1    0    0  501    0  0.00000000000E+00 -0.00000000000E+00 -0.41739209790E+04  0.41739209790E+04  0.00000000000E+00 0.  1.
         23    2    1    2    0    0 -0.59597085660E+03 -0.28875981396E+03 -0.23142314936E+04  0.24088181711E+04  0.90410637461E+02 0.  0.
         13    1    3    3    0    0 -0.14475007725E+03 -0.10079205043E+03 -0.51488629423E+03  0.54426052427E+03  0.00000000000E+00 0. -1.
        -13    1    3    3    0    0 -0.45122077935E+03 -0.18796776353E+03 -0.17993451994E+04  0.18645576469E+04  0.00000000000E+00 0.  1.
         22    1    1    2    0    0  0.59597085660E+03  0.28875981396E+03 -0.17519011642E+04  0.18728911290E+04  0.00000000000E+00 0. -1.
<mgrwt>
<rscale>  0 0.13414916E+04</rscale>
<asrwt>0</asrwt>
<pdfrwt beam="1">  1        2 0.64214168E+00 0.13414916E+04</pdfrwt>
<pdfrwt beam="2">  1       -2 0.16582819E-01 0.13414916E+04</pdfrwt>
<totfact> 0.73439543E+00</totfact>
</mgrwt>
</event>
<event>
 6    1  0.5026615E-004  0.1170353E+04  0.7818608E-02  0.9139209E-01
          2   -1    0    0  501    0  0.00000000000E+00  0.00000000000E+00  0.19954164904E+04  0.19954164904E+04  0.00000000000E+00 0.  1.
         -2   -1    0    0    0  501 -0.00000000000E+00 -0.00000000000E+00 -0.17160916338E+03  0.17160916338E+03  0.00000000000E+00 0. -1.
         23    2    1    2    0    0  0.31511703115E+03 -0.31184846460E+03  0.16137423867E+04  0.16764387732E+04  0.98662362436E+02 0.  0.
         11    1    3    3    0    0  0.13216907726E+03 -0.94970801013E+02  0.44747952875E+03  0.47615758597E+03  0.00000000000E+00 0.  1.
        -11    1    3    3    0    0  0.18294795390E+03 -0.21687766359E+03  0.11662628579E+04  0.12002811873E+04  0.00000000000E+00 0. -1.
         22    1    1    2    0    0 -0.31511703115E+03  0.31184846460E+03  0.21006494040E+03  0.49058688056E+03  0.00000000000E+00 0. -1.
<mgrwt>
<rscale>  0 0.11703534E+04</rscale>
<asrwt>0</asrwt>
<pdfrwt beam="1">  1        2 0.30698714E+00 0.11703534E+04</pdfrwt>
<pdfrwt beam="2">  1       -2 0.26401411E-01 0.11703534E+04</pdfrwt>
<totfact> 0.86425880E+01</totfact>
</mgrwt>
</event>
<event>
 6    1  0.5026615E-004  0.7906859E+04  0.7818608E-02  0.7490516E-01
          2   -1    0    0  501    0  0.00000000000E+00  0.00000000000E+00  0.37469179364E+04  0.37469179364E+04  0.00000000000E+00 0.  1.
         -2   -1    0    0    0  501 -0.00000000000E+00 -0.00000000000E+00 -0.41713232041E+04  0.41713232041E+04  0.00000000000E+00 0. -1.
         23    2    1    2    0    0 -0.24667831072E+04 -0.66532728299E+03 -0.32328483717E+04  0.41215278304E+04  0.89463798581E+02 0.  0.
         13    1    3    3    0    0 -0.15567420107E+04 -0.41254577215E+03 -0.21059449742E+04  0.26511589798E+04  0.00000000000E+00 0. -1.
        -13    1    3    3    0    0 -0.91004109648E+03 -0.25278151084E+03 -0.11269033974E+04  0.14703688506E+04  0.00000000000E+00 0.  1.
         22    1    1    2    0    0  0.24667831072E+04  0.66532728299E+03  0.28084431040E+04  0.37967133101E+04  0.00000000000E+00 0.  1.
<mgrwt>
<rscale>  0 0.79068592E+04</rscale>
<asrwt>0</asrwt>
<pdfrwt beam="1">  1        2 0.57644892E+00 0.79068592E+04</pdfrwt>
<pdfrwt beam="2">  1       -2 0.64174202E+00 0.79068592E+04</pdfrwt>
<totfact> 0.11619561E-04</totfact>
</mgrwt>
</event>
<event>
 6    1  0.5026615E-004  0.1364490E+04  0.7818608E-02  0.8979931E-01
          2   -1    0    0  501    0  0.00000000000E+00  0.00000000000E+00  0.27049724518E+04  0.27049724518E+04  0.00000000000E+00 0.  1.
         -2   -1    0    0    0  501 -0.00000000000E+00 -0.00000000000E+00 -0.17207513572E+03  0.17207513572E+03  0.00000000000E+00 0. -1.
         23    2    1    2    0    0  0.46663909226E+03 -0.93866896653E+02  0.25042159486E+03  0.54546905470E+03  0.90898172460E+02 0.  0.
         11    1    3    3    0    0  0.13089417669E+03  0.14026875861E+02  0.59755117351E+02  0.14457078815E+03  0.00000000000E+00 0. -1.
        -11    1    3    3    0    0  0.33574491557E+03 -0.10789377251E+03  0.19066647751E+03  0.40089826655E+03  0.00000000000E+00 0.  1.
         22    1    1    2    0    0 -0.46663909226E+03  0.93866896653E+02  0.22824757212E+04  0.23315785328E+04  0.00000000000E+00 0.  1.
<mgrwt>
<rscale>  0 0.13644904E+04</rscale>
<asrwt>0</asrwt>
<pdfrwt beam="1">  1        2 0.41614958E+00 0.13644904E+04</pdfrwt>
<pdfrwt beam="2">  1       -2 0.26473100E-01 0.13644904E+04</pdfrwt>
<totfact> 0.33464764E+01</totfact>
</mgrwt>
</event>
<event>
 6    1  0.5026615E-004  0.3418452E+04  0.7818608E-02  0.8133392E-01
         -2   -1    0    0    0  501 -0.00000000000E+00  0.00000000000E+00  0.16127700337E+04  0.16127700337E+04  0.00000000000E+00 0. -1.
          2   -1    0    0  501    0  0.00000000000E+00 -0.00000000000E+00 -0.18114508338E+04  0.18114508338E+04  0.00000000000E+00 0.  1.
         23    2    1    2    0    0  0.83175151369E+03 -0.87628508269E+03  0.11097505664E+04  0.16433001035E+04  0.95931140995E+02 0.  0.
         13    1    3    3    0    0  0.38188233245E+03 -0.39480286570E+03  0.44043489691E+03  0.70404993929E+03  0.00000000000E+00 0.  1.
        -13    1    3    3    0    0  0.44986918124E+03 -0.48148221699E+03  0.66931566948E+03  0.93925016418E+03  0.00000000000E+00 0. -1.
         22    1    1    2    0    0 -0.83175151369E+03  0.87628508269E+03 -0.13084313665E+04  0.17809207640E+04  0.00000000000E+00 0.  1.
<mgrwt>
<rscale>  0 0.34184521E+04</rscale>
<asrwt>0</asrwt>
<pdfrwt beam="1">  1        2 0.27868474E+00 0.34184521E+04</pdfrwt>
<pdfrwt beam="2">  1       -2 0.24811847E+00 0.34184521E+04</pdfrwt>
<totfact> 0.46426381E-01</totfact>
</mgrwt>
</event>
<event>
 6    1  0.5026615E-004  0.3655821E+04  0.7818608E-02  0.8077823E-01
          2   -1    0    0  501    0  0.00000000000E+00  0.00000000000E+00  0.17898443028E+04  0.17898443028E+04  0.00000000000E+00 0.  1.
         -2   -1    0    0    0  501 -0.00000000000E+00 -0.00000000000E+00 -0.18667867298E+04  0.18667867298E+04  0.00000000000E+00 0. -1.
         23    2    1    2    0    0  0.88311816448E+03  0.15861382533E+03  0.15530955733E+04  0.17959645067E+04  0.91250269753E+02 0.  0.
         13    1    3    3    0    0  0.72157319087E+03  0.13683802825E+03  0.13349807531E+04  0.15236686408E+04  0.00000000000E+00 0.  1.
        -13    1    3    3    0    0  0.16154497361E+03  0.21775797073E+02  0.21811482015E+03  0.27229586594E+03  0.00000000000E+00 0. -1.
         22    1    1    2    0    0 -0.88311816448E+03 -0.15861382533E+03 -0.16300380003E+04  0.18606665259E+04  0.00000000000E+00 0. -1.
<mgrwt>
<rscale>  0 0.36558214E+04</rscale>
<asrwt>0</asrwt>
<pdfrwt beam="1">  1        2 0.27536066E+00 0.36558214E+04</pdfrwt>
<pdfrwt beam="2">  1       -2 0.28719796E+00 0.36558214E+04</pdfrwt>
<totfact> 0.26993490E-01</totfact>
</mgrwt>
</event>
<event>
 6    1  0.5026615E-004  0.1340410E+04  0.7818608E-02  0.8998120E-01
         -2   -1    0    0    0  501 -0.00000000000E+00  0.00000000000E+00  0.33672617932E+03  0.33672617932E+03  0.00000000000E+00 0. -1.
          2   -1    0    0  501    0  0.00000000000E+00 -0.00000000000E+00 -0.13339460168E+04  0.13339460168E+04  0.00000000000E+00 0.  1.
         23    2    1    2    0    0 -0.18836026115E+03 -0.51328900629E+03 -0.24467478137E+02  0.55479032756E+03  0.90821022376E+02 0.  0.
         11    1    3    3    0    0 -0.15168175994E+02 -0.15421969887E+03 -0.18747255015E+02  0.15609371754E+03  0.00000000000E+00 0. -1.
        -11    1    3    3    0    0 -0.17319208516E+03 -0.35906930742E+03 -0.57202231211E+01  0.39869661002E+03  0.00000000000E+00 0.  1.
         22    1    1    2    0    0  0.18836026115E+03  0.51328900629E+03 -0.97275235933E+03  0.11158818685E+04  0.00000000000E+00 0.  1.
<mgrwt>
<rscale>  0 0.13404097E+04</rscale>
<asrwt>0</asrwt>
<pdfrwt beam="1">  1        2 0.20522246E+00 0.13404097E+04</pdfrwt>
<pdfrwt beam="2">  1       -2 0.51804028E-01 0.13404097E+04</pdfrwt>
<totfact> 0.54321246E+01</totfact>
</mgrwt>
</event>
<event>
 6    1  0.5026615E-004  0.1359690E+04  0.7818608E-02  0.8983525E-01
         -2   -1    0    0    0  501 -0.00000000000E+00  0.00000000000E+00  0.22946138861E+03  0.22946138861E+03  0.00000000000E+00 0. -1.
          2   -1    0    0  501    0  0.00000000000E+00 -0.00000000000E+00 -0.20142357522E+04  0.20142357522E+04  0.00000000000E+00 0.  1.
         23    2    1    2    0    0 -0.56964026158E+03 -0.35020117343E+03 -0.72564949870E+03  0.99114919006E+03  0.93159178342E+02 0.  0.
         13    1    3    3    0    0 -0.51081086942E+03 -0.28015046216E+03 -0.64546573407E+03  0.86950447936E+03  0.00000000000E+00 0.  1.
        -13    1    3    3    0    0 -0.58829392159E+02 -0.70050711273E+02 -0.80183764633E+02  0.12164471070E+03  0.00000000000E+00 0. -1.
         22    1    1    2    0    0  0.56964026158E+03  0.35020117343E+03 -0.10591248649E+04  0.12525479507E+04  0.00000000000E+00 0. -1.
<mgrwt>
<rscale>  0 0.13596902E+04</rscale>
<asrwt>0</asrwt>
<pdfrwt beam="1">  1        2 0.30988241E+00 0.13596902E+04</pdfrwt>
<pdfrwt beam="2">  1       -2 0.35301754E-01 0.13596902E+04</pdfrwt>
<totfact> 0.48293924E+01</totfact>
</mgrwt>
</event>
<event>
 6    1  0.5026615E-004  0.1989602E+04  0.7818608E-02  0.8611498E-01
          2   -1    0    0  501    0  0.00000000000E+00  0.00000000000E+00  0.19548659540E+04  0.19548659540E+04  0.00000000000E+00 0.  1.
         -2   -1    0    0    0  501 -0.00000000000E+00 -0.00000000000E+00 -0.50623879012E+03  0.50623879012E+03  0.00000000000E+00 0. -1.
         23    2    1    2    0    0 -0.73669558552E+03 -0.64581823180E+03  0.53049140627E+03  0.11184302327E+04  0.98302996081E+02 0.  0.
         13    1    3    3    0    0 -0.22483096120E+03 -0.15017763229E+03  0.11671088401E+03  0.29448890098E+03  0.00000000000E+00 0. -1.
        -13    1    3    3    0    0 -0.51186462432E+03 -0.49564059950E+03  0.41378052226E+03  0.82394133172E+03  0.00000000000E+00 0.  1.
         22    1    1    2    0    0  0.73669558552E+03  0.64581823180E+03  0.91813575765E+03  0.13426745115E+04  0.00000000000E+00 0.  1.
<mgrwt>
<rscale>  0 0.19896019E+04</rscale>
<asrwt>0</asrwt>
<pdfrwt beam="1">  1        2 0.30074860E+00 0.19896019E+04</pdfrwt>
<pdfrwt beam="2">  1       -2 0.77882892E-01 0.19896019E+04</pdfrwt>
<totfact> 0.96622019E+00</totfact>
</mgrwt>
</event>
<event>
 6    1  0.5026615E-004  0.1939546E+04  0.7818608E-02  0.8635418E-01
          1   -1    0    0  501    0  0.00000000000E+00  0.00000000000E+00  0.11096981234E+04  0.11096981234E+04  0.00000000000E+00 0.  1.
         -1   -1    0    0    0  501 -0.00000000000E+00 -0.00000000000E+00 -0.84749152422E+03  0.84749152422E+03  0.00000000000E+00 0. -1.
         23    2    1    2    0    0 -0.65962890918E+02 -0.75574750034E+03  0.73759116937E+03  0.10619266266E+04  0.90233252940E+02 0.  0.
         13    1    3    3    0    0 -0.23835822808E+02 -0.26808413757E+03  0.20313002294E+03  0.33719290841E+03  0.00000000000E+00 0. -1.
        -13    1    3    3    0    0 -0.42127068110E+02 -0.48766336278E+03  0.53446114643E+03  0.72473371821E+03  0.00000000000E+00 0.  1.
         22    1    1    2    0    0  0.65962890918E+02  0.75574750034E+03 -0.47538457017E+03  0.89526302102E+03  0.00000000000E+00 0. -1.
<mgrwt>
<rscale>  0 0.19395461E+04</rscale>
<asrwt>0</asrwt>
<pdfrwt beam="1">  1        1 0.17072279E+00 0.19395461E+04</pdfrwt>
<pdfrwt beam="2">  1       -1 0.13038331E+00 0.19395461E+04</pdfrwt>
<totfact> 0.58526452E+00</totfact>
</mgrwt>
</event>
<event>
 6    1  0.5026615E-004  0.1654813E+04  0.7818608E-02  0.8787564E-01
         -2   -1    0    0    0  501 -0.00000000000E+00  0.00000000000E+00  0.27413173052E+03  0.27413173052E+03  0.00000000000E+00 0.  1.
          2   -1    0    0  501    0  0.00000000000E+00 -0.00000000000E+00 -0.24973450128E+04  0.24973450128E+04  0.00000000000E+00 0. -1.
         23    2    1    2    0    0 -0.67069188283E+02 -0.45786261795E+03 -0.22587605214E+04  0.23073646241E+04  0.88294748535E+02 0.  0.
         13    1    3    3    0    0 -0.71268126722E+02 -0.38579987802E+03 -0.20271565179E+04  0.20647722005E+04  0.00000000000E+00 0. -1.
        -13    1    3    3    0    0  0.41989384389E+01 -0.72062739933E+02 -0.23160400355E+03  0.24259242368E+03  0.00000000000E+00 0.  1.
         22    1    1    2    0    0  0.67069188283E+02  0.45786261795E+03  0.35547239181E+02  0.46411211915E+03  0.00000000000E+00 0.  1.
<mgrwt>
<rscale>  0 0.16548130E+04</rscale>
<asrwt>0</asrwt>
<pdfrwt beam="1">  1        2 0.38420693E+00 0.16548130E+04</pdfrwt>
<pdfrwt beam="2">  1       -2 0.42174112E-01 0.16548130E+04</pdfrwt>
<totfact> 0.17808995E+01</totfact>
</mgrwt>
</event>
<event>
 6    1  0.5026615E-004  0.3093815E+04  0.7818608E-02  0.8217437E-01
         -2   -1    0    0    0  501 -0.00000000000E+00  0.00000000000E+00  0.97446046513E+03  0.97446046513E+03  0.00000000000E+00 0. -1.
          2   -1    0    0  501    0  0.00000000000E+00 -0.00000000000E+00 -0.24556390832E+04  0.24556390832E+04  0.00000000000E+00 0.  1.
         23    2    1    2    0    0  0.87966081118E+03  0.12691636926E+04 -0.66749469416E+03  0.16846308006E+04  0.88612337171E+02 0.  0.
         13    1    3    3    0    0  0.62508277718E+03  0.96842163384E+03 -0.48959388622E+03  0.12523063174E+04  0.00000000000E+00 0.  1.
        -13    1    3    3    0    0  0.25457803401E+03  0.30074205872E+03 -0.17790080794E+03  0.43232448317E+03  0.00000000000E+00 0. -1.
         22    1    1    2    0    0 -0.87966081118E+03 -0.12691636926E+04 -0.81368392386E+03  0.17454687477E+04  0.00000000000E+00 0. -1.
<mgrwt>
<rscale>  0 0.30938153E+04</rscale>
<asrwt>0</asrwt>
<pdfrwt beam="1">  1        2 0.37779063E+00 0.30938153E+04</pdfrwt>
<pdfrwt beam="2">  1       -2 0.14991699E+00 0.30938153E+04</pdfrwt>
<totfact> 0.94113761E-01</totfact>
</mgrwt>
</event>
<event>
 6    1  0.5026615E-004  0.2612221E+04  0.7818608E-02  0.8364062E-01
         -2   -1    0    0    0  501 -0.00000000000E+00  0.00000000000E+00  0.90486145216E+03  0.90486145216E+03  0.00000000000E+00 0. -1.
          2   -1    0    0  501    0  0.00000000000E+00 -0.00000000000E+00 -0.18852887757E+04  0.18852887757E+04  0.00000000000E+00 0.  1.
         23    2    1    2    0    0  0.58773478359E+03 -0.47929365566E+03  0.64304761954E+03  0.99827258835E+03  0.88788149287E+02 0.  0.
         13    1    3    3    0    0  0.19385591467E+03 -0.11578885926E+03  0.22238028818E+03  0.31692296880E+03  0.00000000000E+00 0. -1.
        -13    1    3    3    0    0  0.39387886892E+03 -0.36350479639E+03  0.42066733136E+03  0.68134961955E+03  0.00000000000E+00 0.  1.
         22    1    1    2    0    0 -0.58773478359E+03  0.47929365566E+03 -0.16234749431E+04  0.17918776396E+04  0.00000000000E+00 0. -1.
<mgrwt>
<rscale>  0 0.26122214E+04</rscale>
<asrwt>0</asrwt>
<pdfrwt beam="1">  1        2 0.29004443E+00 0.26122214E+04</pdfrwt>
<pdfrwt beam="2">  1       -2 0.13920946E+00 0.26122214E+04</pdfrwt>
<totfact> 0.24924132E+00</totfact>
</mgrwt>
</event>
<event>
 6    1  0.5026615E-004  0.3054413E+04  0.7818608E-02  0.8228361E-01
          2   -1    0    0  501    0  0.00000000000E+00  0.00000000000E+00  0.12266766363E+04  0.12266766363E+04  0.00000000000E+00 0.  1.
         -2   -1    0    0    0  501 -0.00000000000E+00 -0.00000000000E+00 -0.19013647482E+04  0.19013647482E+04  0.00000000000E+00 0. -1.
         23    2    1    2    0    0 -0.14279985854E+04 -0.32872564220E+03  0.97539752491E+02  0.14716669153E+04  0.95126224392E+02 0.  0.
         11    1    3    3    0    0 -0.66304657538E+03 -0.10476963491E+03  0.36211851864E+02  0.67224901320E+03  0.00000000000E+00 0.  1.
        -11    1    3    3    0    0 -0.76495200998E+03 -0.22395600729E+03  0.61327900627E+02  0.79941790208E+03  0.00000000000E+00 0. -1.
         22    1    1    2    0    0  0.14279985854E+04  0.32872564220E+03 -0.77222786438E+03  0.16563744692E+04  0.00000000000E+00 0. -1.
<mgrwt>
<rscale>  0 0.30544130E+04</rscale>
<asrwt>0</asrwt>
<pdfrwt beam="1">  1        2 0.18871948E+00 0.30544130E+04</pdfrwt>
<pdfrwt beam="2">  1       -2 0.29251765E+00 0.30544130E+04</pdfrwt>
<totfact> 0.54951292E-01</totfact>
</mgrwt>
</event>
<event>
 6    1  0.5026615E-004  0.1671350E+04  0.7818608E-02  0.8777876E-01
          2   -1    0    0  501    0  0.00000000000E+00  0.00000000000E+00  0.12448798252E+04  0.12448798252E+04  0.00000000000E+00 0.  1.
         -2   -1    0    0    0  501 -0.00000000000E+00 -0.00000000000E+00 -0.56097973642E+03  0.56097973642E+03  0.00000000000E+00 0. -1.
         23    2    1    2    0    0 -0.33406920965E+03  0.76124073893E+03  0.40432107023E+03  0.92878822643E+03  0.89901848061E+02 0.  0.
         13    1    3    3    0    0 -0.18625917209E+03  0.43017533308E+03  0.27714858413E+03  0.54456830065E+03  0.00000000000E+00 0. -1.
        -13    1    3    3    0    0 -0.14781003755E+03  0.33106540584E+03  0.12717248609E+03  0.38421992578E+03  0.00000000000E+00 0.  1.
         22    1    1    2    0    0  0.33406920965E+03 -0.76124073893E+03  0.27957901858E+03  0.87707133522E+03  0.00000000000E+00 0. -1.
<mgrwt>
<rscale>  0 0.16713496E+04</rscale>
<asrwt>0</asrwt>
<pdfrwt beam="1">  1        2 0.19151997E+00 0.16713496E+04</pdfrwt>
<pdfrwt beam="2">  1       -2 0.86304575E-01 0.16713496E+04</pdfrwt>
<totfact> 0.19769922E+01</totfact>
</mgrwt>
</event>
<event>
 6    1  0.5026615E-004  0.1619024E+04  0.7818608E-02  0.8808945E-01
          2   -1    0    0  501    0  0.00000000000E+00  0.00000000000E+00  0.56198551985E+03  0.56198551985E+03  0.00000000000E+00 0.  1.
         -2   -1    0    0    0  501 -0.00000000000E+00 -0.00000000000E+00 -0.11660618836E+04  0.11660618836E+04  0.00000000000E+00 0. -1.
         23    2    1    2    0    0  0.47766433930E+03  0.36228246048E+03  0.27352380111E+03  0.66522387549E+03  0.91080912063E+02 0.  0.
         13    1    3    3    0    0  0.24851042114E+03  0.13861295431E+03  0.15297138839E+03  0.32306535900E+03  0.00000000000E+00 0. -1.
        -13    1    3    3    0    0  0.22915391816E+03  0.22366950617E+03  0.12055241271E+03  0.34215851650E+03  0.00000000000E+00 0.  1.
         22    1    1    2    0    0 -0.47766433930E+03 -0.36228246048E+03 -0.87760016482E+03  0.10628235279E+04  0.00000000000E+00 0. -1.
<mgrwt>
<rscale>  0 0.16190243E+04</rscale>
<asrwt>0</asrwt>
<pdfrwt beam="1">  1        2 0.86459312E-01 0.16190243E+04</pdfrwt>
<pdfrwt beam="2">  1       -2 0.17939413E+00 0.16190243E+04</pdfrwt>
<totfact> 0.93975346E+00</totfact>
</mgrwt>
</event>
<event>
 6    1  0.5026615E-004  0.1298119E+04  0.7818608E-02  0.9031058E-01
         -2   -1    0    0    0  501 -0.00000000000E+00  0.00000000000E+00  0.22387831159E+03  0.22387831159E+03  0.00000000000E+00 0. -1.
          2   -1    0    0  501    0  0.00000000000E+00 -0.00000000000E+00 -0.18817292885E+04  0.18817292885E+04  0.00000000000E+00 0.  1.
         23    2    1    2    0    0 -0.13068795888E+03  0.34834695937E+03  0.24314955344E+02  0.38278805923E+03  0.86663340213E+02 0.  0.
         11    1    3    3    0    0 -0.10244204621E+03  0.15298213029E+03  0.19031188458E+01  0.18412367279E+03  0.00000000000E+00 0. -1.
        -11    1    3    3    0    0 -0.28245912662E+02  0.19536482908E+03  0.22411836498E+02  0.19866438644E+03  0.00000000000E+00 0.  1.
         22    1    1    2    0    0  0.13068795888E+03 -0.34834695937E+03 -0.16821659322E+04  0.17228195408E+04  0.00000000000E+00 0.  1.
<mgrwt>
<rscale>  0 0.12981192E+04</rscale>
<asrwt>0</asrwt>
<pdfrwt beam="1">  1        2 0.28949680E+00 0.12981192E+04</pdfrwt>
<pdfrwt beam="2">  1       -2 0.34442818E-01 0.12981192E+04</pdfrwt>
<totfact> 0.60216030E+01</totfact>
</mgrwt>
</event>
<event>
 6    1  0.7419956E-004  0.2982790E+04  0.7818608E-02  0.8248662E-01
         -1   -1    0    0    0  501 -0.00000000000E+00  0.00000000000E+00  0.10770359375E+04  0.10770359375E+04  0.00000000000E+00 0.  1.
          1   -1    0    0  501    0  0.00000000000E+00 -0.00000000000E+00 -0.20651666493E+04  0.20651666493E+04  0.00000000000E+00 0. -1.
         23    2    1    2    0    0 -0.30655575200E+02  0.14370448741E+04 -0.90820379925E+03  0.17026102675E+04  0.89497752411E+02 0.  0.
         13    1    3    3    0    0  0.18759508926E+02  0.99334174440E+03 -0.61378044919E+03  0.11678211251E+04  0.00000000000E+00 0. -1.
        -13    1    3    3    0    0 -0.49415084126E+02  0.44370312966E+03 -0.29442335007E+03  0.53478914244E+03  0.00000000000E+00 0.  1.
         22    1    1    2    0    0  0.30655575200E+02 -0.14370448741E+04 -0.79926912512E+02  0.14395923193E+04  0.00000000000E+00 0.  1.
<mgrwt>
<rscale>  0 0.29827898E+04</rscale>
<asrwt>0</asrwt>
<pdfrwt beam="1">  1        1 0.31771795E+00 0.29827898E+04</pdfrwt>
<pdfrwt beam="2">  1       -1 0.16569784E+00 0.29827898E+04</pdfrwt>
<totfact> 0.60734039E-01</totfact>
</mgrwt>
</event>
<event>
 6    1  0.5026615E-004  0.2187759E+04  0.7818608E-02  0.8523540E-01
         -2   -1    0    0    0  501 -0.00000000000E+00  0.00000000000E+00  0.45199419579E+03  0.45199419579E+03  0.00000000000E+00 0. -1.
          2   -1    0    0  501    0  0.00000000000E+00 -0.00000000000E+00 -0.26473174962E+04  0.26473174962E+04  0.00000000000E+00 0.  1.
         23    2    1    2    0    0  0.10338863209E+04 -0.31515721165E+03 -0.13200587644E+04  0.17085086863E+04  0.90563773140E+02 0.  0.
         13    1    3    3    0    0  0.61824863328E+03 -0.22362568283E+03 -0.75567012379E+03  0.10016372370E+04  0.00000000000E+00 0.  1.
        -13    1    3    3    0    0  0.41563768766E+03 -0.91531528813E+02 -0.56438864058E+03  0.70687144926E+03  0.00000000000E+00 0. -1.
         22    1    1    2    0    0 -0.10338863209E+04  0.31515721165E+03 -0.87526453606E+03  0.13908030057E+04  0.00000000000E+00 0. -1.
<mgrwt>
<rscale>  0 0.21877588E+04</rscale>
<asrwt>0</asrwt>
<pdfrwt beam="1">  1        2 0.40727961E+00 0.21877588E+04</pdfrwt>
<pdfrwt beam="2">  1       -2 0.69537570E-01 0.21877588E+04</pdfrwt>
<totfact> 0.49265672E+00</totfact>
</mgrwt>
</event>
<event>
 6    1  0.5026615E-004  0.1982869E+04  0.7818608E-02  0.8614672E-01
         -2   -1    0    0    0  501 -0.00000000000E+00  0.00000000000E+00  0.67314383203E+03  0.67314383203E+03  0.00000000000E+00 0. -1.
          2   -1    0    0  501    0  0.00000000000E+00 -0.00000000000E+00 -0.14602260154E+04  0.14602260154E+04  0.00000000000E+00 0.  1.
         23    2    1    2    0    0 -0.51192010686E+03  0.27942691528E+03  0.46531911533E+03  0.75183062983E+03  0.92659700379E+02 0.  0.
         13    1    3    3    0    0 -0.26569597319E+03  0.13474004461E+03  0.17961540095E+03  0.34786624161E+03  0.00000000000E+00 0.  1.
        -13    1    3    3    0    0 -0.24622413367E+03  0.14468687068E+03  0.28570371438E+03  0.40396438823E+03  0.00000000000E+00 0. -1.
         22    1    1    2    0    0  0.51192010686E+03 -0.27942691528E+03 -0.12524012987E+04  0.13815392176E+04  0.00000000000E+00 0.  1.
<mgrwt>
<rscale>  0 0.19828688E+04</rscale>
<asrwt>0</asrwt>
<pdfrwt beam="1">  1        2 0.22465016E+00 0.19828688E+04</pdfrwt>
<pdfrwt beam="2">  1       -2 0.10356059E+00 0.19828688E+04</pdfrwt>
<totfact> 0.94526324E+00</totfact>
</mgrwt>
</event>
<event>
 6    1  0.5026615E-004  0.3671354E+04  0.7818608E-02  0.8074340E-01
         -2   -1    0    0    0  501 -0.00000000000E+00  0.00000000000E+00  0.12240494851E+04  0.12240494851E+04  0.00000000000E+00 0. -1.
          2   -1    0    0  501    0  0.00000000000E+00 -0.00000000000E+00 -0.27529202410E+04  0.27529202410E+04  0.00000000000E+00 0.  1.
         23    2    1    2    0    0 -0.14513880104E+04 -0.98907968499E+03 -0.19075865884E+03  0.17689503049E+04  0.89389795419E+02 0.  0.
         11    1    3    3    0    0 -0.84832589638E+03 -0.56079420437E+03 -0.15239584854E+03  0.10282856903E+04  0.00000000000E+00 0.  1.
        -11    1    3    3    0    0 -0.60306211397E+03 -0.42828548061E+03 -0.38362810298E+02  0.74066461467E+03  0.00000000000E+00 0. -1.
         22    1    1    2    0    0  0.14513880104E+04  0.98907968499E+03 -0.13381120971E+04  0.22080194211E+04  0.00000000000E+00 0.  1.
<mgrwt>
<rscale>  0 0.36713543E+04</rscale>
<asrwt>0</asrwt>
<pdfrwt beam="1">  1        2 0.42352619E+00 0.36713543E+04</pdfrwt>
<pdfrwt beam="2">  1       -2 0.18831531E+00 0.36713543E+04</pdfrwt>
<totfact> 0.31816448E-01</totfact>
</mgrwt>
</event>
<event>
 6    1  0.5026615E-004  0.1693982E+04  0.7818608E-02  0.8764804E-01
          2   -1    0    0  501    0  0.00000000000E+00  0.00000000000E+00  0.14732909084E+04  0.14732909084E+04  0.00000000000E+00 0.  1.
         -2   -1    0    0    0  501 -0.00000000000E+00 -0.00000000000E+00 -0.48693290115E+03  0.48693290115E+03  0.00000000000E+00 0. -1.
         23    2    1    2    0    0  0.23285576405E+03 -0.61940957286E+03 -0.11273756749E+03  0.67729703525E+03  0.90174769373E+02 0.  0.
         13    1    3    3    0    0  0.22231774590E+03 -0.56297252578E+03 -0.78234537715E+02  0.61031458103E+03  0.00000000000E+00 0. -1.
        -13    1    3    3    0    0  0.10538018150E+02 -0.56437047082E+02 -0.34503029776E+02  0.66982454222E+02  0.00000000000E+00 0.  1.
         22    1    1    2    0    0 -0.23285576405E+03  0.61940957286E+03  0.10990955747E+04  0.12829267743E+04  0.00000000000E+00 0.  1.
<mgrwt>
<rscale>  0 0.16939821E+04</rscale>
<asrwt>0</asrwt>
<pdfrwt beam="1">  1        2 0.22666014E+00 0.16939821E+04</pdfrwt>
<pdfrwt beam="2">  1       -2 0.74912754E-01 0.16939821E+04</pdfrwt>
<totfact> 0.20031426E+01</totfact>
</mgrwt>
</event>
<event>
 6    1  0.5026615E-004  0.2259691E+04  0.7818608E-02  0.8493986E-01
         -2   -1    0    0    0  501 -0.00000000000E+00  0.00000000000E+00  0.11337508122E+04  0.11337508122E+04  0.00000000000E+00 0. -1.
          2   -1    0    0  501    0  0.00000000000E+00 -0.00000000000E+00 -0.11259536877E+04  0.11259536877E+04  0.00000000000E+00 0.  1.
         23    2    1    2    0    0 -0.35054590288E+03 -0.35961453645E+03  0.10141524907E+04  0.11350017979E+04  0.86710794524E+02 0.  0.
         11    1    3    3    0    0 -0.82174405193E+02 -0.39736021002E+02  0.15843945859E+03  0.18285143224E+03  0.00000000000E+00 0.  1.
        -11    1    3    3    0    0 -0.26837149769E+03 -0.31987851545E+03  0.85571303216E+03  0.95215036566E+03  0.00000000000E+00 0. -1.
         22    1    1    2    0    0  0.35054590288E+03  0.35961453645E+03 -0.10063553662E+04  0.11247027020E+04  0.00000000000E+00 0.  1.
<mgrwt>
<rscale>  0 0.22596910E+04</rscale>
<asrwt>0</asrwt>
<pdfrwt beam="1">  1        2 0.17322364E+00 0.22596910E+04</pdfrwt>
<pdfrwt beam="2">  1       -2 0.17442320E+00 0.22596910E+04</pdfrwt>
<totfact> 0.37880383E+00</totfact>
</mgrwt>
</event>
<event>
 6    1  0.5026615E-004  0.2148574E+04  0.7818608E-02  0.8540143E-01
         -2   -1    0    0    0  501 -0.00000000000E+00  0.00000000000E+00  0.41057977827E+03  0.41057977827E+03  0.00000000000E+00 0. -1.
          2   -1    0    0  501    0  0.00000000000E+00 -0.00000000000E+00 -0.28108837544E+04  0.28108837544E+04  0.00000000000E+00 0.  1.
         23    2    1    2    0    0 -0.52065719940E+03  0.85839965178E+03 -0.17672367602E+04  0.20345734867E+04  0.91812986652E+02 0.  0.
         13    1    3    3    0    0 -0.19793128936E+03  0.40706050390E+03 -0.75728132520E+03  0.88224149451E+03  0.00000000000E+00 0. -1.
        -13    1    3    3    0    0 -0.32272591004E+03  0.45133914788E+03 -0.10099554350E+04  0.11523319922E+04  0.00000000000E+00 0.  1.
         22    1    1    2    0    0  0.52065719940E+03 -0.85839965178E+03 -0.63306721594E+03  0.11868900460E+04  0.00000000000E+00 0. -1.
<mgrwt>
<rscale>  0 0.21485735E+04</rscale>
<asrwt>0</asrwt>
<pdfrwt beam="1">  1        2 0.43244365E+00 0.21485735E+04</pdfrwt>
<pdfrwt beam="2">  1       -2 0.63166121E-01 0.21485735E+04</pdfrwt>
<totfact> 0.48574218E+00</totfact>
</mgrwt>
</event>
<event>
 6    1  0.5026615E-004  0.3881036E+04  0.7818608E-02  0.8028985E-01
          2   -1    0    0  501    0  0.00000000000E+00  0.00000000000E+00  0.19711930380E+04  0.19711930380E+04  0.00000000000E+00 0.  1.
         -2   -1    0    0    0  501 -0.00000000000E+00 -0.00000000000E+00 -0.19103205961E+04  0.19103205961E+04  0.00000000000E+00 0. -1.
         23    2    1    2    0    0  0.45913733686E+03  0.18066101750E+04  0.56601232694E+03  0.19502410687E+04  0.91776103007E+02 0.  0.
         13    1    3    3    0    0  0.21818024247E+03  0.78829795011E+03  0.29242055678E+03  0.86863459427E+03  0.00000000000E+00 0.  1.
        -13    1    3    3    0    0  0.24095709439E+03  0.10183122249E+04  0.27359177016E+03  0.10816064744E+04  0.00000000000E+00 0. -1.
         22    1    1    2    0    0 -0.45913733686E+03 -0.18066101750E+04 -0.50513988502E+03  0.19312725654E+04  0.00000000000E+00 0. -1.
<mgrwt>
<rscale>  0 0.38810363E+04</rscale>
<asrwt>0</asrwt>
<pdfrwt beam="1">  1        2 0.30326047E+00 0.38810363E+04</pdfrwt>
<pdfrwt beam="2">  1       -2 0.29389548E+00 0.38810363E+04</pdfrwt>
<totfact> 0.19126546E-01</totfact>
</mgrwt>
</event>
<event>
 6    1  0.5026615E-004  0.2485680E+04  0.7818608E-02  0.8408105E-01
         -1   -1    0    0    0  501 -0.00000000000E+00  0.00000000000E+00  0.30918769925E+04  0.30918769925E+04  0.00000000000E+00 0. -1.
          1   -1    0    0  501    0  0.00000000000E+00 -0.00000000000E+00 -0.49958355451E+03  0.49958355451E+03  0.00000000000E+00 0.  1.
         23    2    1    2    0    0 -0.88946448385E+03  0.11351205923E+03  0.25377842171E+04  0.26931269170E+04  0.92475959262E+02 0.  0.
         11    1    3    3    0    0 -0.74228931075E+02  0.29400630438E+02  0.28161590894E+03  0.29271462459E+03  0.00000000000E+00 0.  1.
        -11    1    3    3    0    0 -0.81523555278E+03  0.84111428797E+02  0.22561683081E+04  0.24004122924E+04  0.00000000000E+00 0. -1.
         22    1    1    2    0    0  0.88946448385E+03 -0.11351205923E+03  0.54509220905E+02  0.89833363000E+03  0.00000000000E+00 0.  1.
<mgrwt>
<rscale>  0 0.24856797E+04</rscale>
<asrwt>0</asrwt>
<pdfrwt beam="1">  1        1 0.76859010E-01 0.24856797E+04</pdfrwt>
<pdfrwt beam="2">  1       -1 0.47567337E+00 0.24856797E+04</pdfrwt>
<totfact> 0.85069622E-02</totfact>
</mgrwt>
</event>
<event>
 6    1  0.5026615E-004  0.2145638E+04  0.7818608E-02  0.8541402E-01
          2   -1    0    0  501    0  0.00000000000E+00  0.00000000000E+00  0.15664837637E+04  0.15664837637E+04  0.00000000000E+00 0.  1.
         -2   -1    0    0    0  501 -0.00000000000E+00 -0.00000000000E+00 -0.73472901296E+03  0.73472901296E+03  0.00000000000E+00 0. -1.
         23    2    1    2    0    0  0.52302563973E+03 -0.15415509379E+03 -0.57189335828E+03  0.79537492792E+03  0.90772517728E+02 0.  0.
         13    1    3    3    0    0  0.18374540271E+03 -0.13511968088E+02 -0.21676891613E+03  0.28448850469E+03  0.00000000000E+00 0. -1.
        -13    1    3    3    0    0  0.33928023701E+03 -0.14064312570E+03 -0.35512444215E+03  0.51088642323E+03  0.00000000000E+00 0.  1.
         22    1    1    2    0    0 -0.52302563973E+03  0.15415509379E+03  0.14036481091E+04  0.15058378488E+04  0.00000000000E+00 0.  1.
<mgrwt>
<rscale>  0 0.21456384E+04</rscale>
<asrwt>0</asrwt>
<pdfrwt beam="1">  1        2 0.24099750E+00 0.21456384E+04</pdfrwt>
<pdfrwt beam="2">  1       -2 0.11303523E+00 0.21456384E+04</pdfrwt>
<totfact> 0.65758882E+00</totfact>
</mgrwt>
</event>
<event>
 6    1  0.5026615E-004  0.2827453E+04  0.7818608E-02  0.8294796E-01
         -2   -1    0    0    0  501 -0.00000000000E+00  0.00000000000E+00  0.14816081957E+04  0.14816081957E+04  0.00000000000E+00 0. -1.
          2   -1    0    0  501    0  0.00000000000E+00 -0.00000000000E+00 -0.13489545318E+04  0.13489545318E+04  0.00000000000E+00 0.  1.
         23    2    1    2    0    0 -0.89498935703E+03 -0.10843816472E+04 -0.66418219847E+02  0.14105207842E+04  0.90928525051E+02 0.  0.
         13    1    3    3    0    0 -0.42595657789E+03 -0.55868084186E+03 -0.69701859405E+02  0.70598982891E+03  0.00000000000E+00 0.  1.
        -13    1    3    3    0    0 -0.46903277914E+03 -0.52570080536E+03  0.32836395575E+01  0.70453095528E+03  0.00000000000E+00 0. -1.
         22    1    1    2    0    0  0.89498935703E+03  0.10843816472E+04  0.19907188370E+03  0.14200419434E+04  0.00000000000E+00 0.  1.
<mgrwt>
<rscale>  0 0.28274526E+04</rscale>
<asrwt>0</asrwt>
<pdfrwt beam="1">  1        2 0.20753146E+00 0.28274526E+04</pdfrwt>
<pdfrwt beam="2">  1       -2 0.22793972E+00 0.28274526E+04</pdfrwt>
<totfact> 0.11840683E+00</totfact>
</mgrwt>
</event>
<event>
 6    1  0.5026615E-004  0.2952359E+04  0.7818608E-02  0.8257467E-01
          2   -1    0    0  501    0  0.00000000000E+00  0.00000000000E+00  0.18891275638E+04  0.18891275638E+04  0.00000000000E+00 0.  1.
         -2   -1    0    0    0  501 -0.00000000000E+00 -0.00000000000E+00 -0.11534986510E+04  0.11534986510E+04  0.00000000000E+00 0. -1.
         23    2    1    2    0    0 -0.83686446352E+02  0.53738229255E+03  0.17809100797E+04  0.18643241027E+04  0.90997243261E+02 0.  0.
         11    1    3    3    0    0 -0.14481414833E+02  0.35311219170E+03  0.12010397918E+04  0.12519562743E+04  0.00000000000E+00 0.  1.
        -11    1    3    3    0    0 -0.69205031519E+02  0.18427010084E+03  0.57987028788E+03  0.61236782837E+03  0.00000000000E+00 0. -1.
         22    1    1    2    0    0  0.83686446352E+02 -0.53738229255E+03 -0.10452811669E+04  0.11783021121E+04  0.00000000000E+00 0. -1.
<mgrwt>
<rscale>  0 0.29523591E+04</rscale>
<asrwt>0</asrwt>
<pdfrwt beam="1">  1        2 0.29063501E+00 0.29523591E+04</pdfrwt>
<pdfrwt beam="2">  1       -2 0.17746133E+00 0.29523591E+04</pdfrwt>
<totfact> 0.12496708E+00</totfact>
</mgrwt>
</event>
<event>
 6    1  0.1167330E-003  0.4628262E+04  0.7818608E-02  0.7888559E-01
         -2   -1    0    0    0  501 -0.00000000000E+00  0.00000000000E+00  0.27264503616E+04  0.27264503616E+04  0.00000000000E+00 0. -1.
          2   -1    0    0  501    0  0.00000000000E+00 -0.00000000000E+00 -0.19641666074E+04  0.19641666074E+04  0.00000000000E+00 0.  1.
         23    2    1    2    0    0 -0.64221162844E+03  0.72184501570E+03  0.25114023373E+04  0.26923897997E+04  0.91242158223E+02 0.  0.
         11    1    3    3    0    0 -0.35460729103E+03  0.35170362413E+03  0.13876917572E+04  0.14748322559E+04  0.00000000000E+00 0.  1.
        -11    1    3    3    0    0 -0.28760433741E+03  0.37014139157E+03  0.11237105801E+04  0.12175575438E+04  0.00000000000E+00 0. -1.
         22    1    1    2    0    0  0.64221162844E+03 -0.72184501570E+03 -0.17491185831E+04  0.19982271693E+04  0.00000000000E+00 0.  1.
<mgrwt>
<rscale>  0 0.46282622E+04</rscale>
<asrwt>0</asrwt>
<pdfrwt beam="1">  1        2 0.30217948E+00 0.46282622E+04</pdfrwt>
<pdfrwt beam="2">  1       -2 0.41945390E+00 0.46282622E+04</pdfrwt>
<totfact> 0.29020078E-02</totfact>
</mgrwt>
</event>
<event>
 6    1  0.5026615E-004  0.8640352E+03  0.7818608E-02  0.9471691E-01
          2   -1    0    0  501    0  0.00000000000E+00  0.00000000000E+00  0.24624329722E+04  0.24624329722E+04  0.00000000000E+00 0.  1.
         -2   -1    0    0    0  501 -0.00000000000E+00 -0.00000000000E+00 -0.75794631704E+02  0.75794631704E+02  0.00000000000E+00 0. -1.
         23    2    1    2    0    0  0.38068018165E+03 -0.74073175618E+02  0.17310545033E+04  0.17765226718E+04  0.95283124692E+02 0.  0.
         11    1    3    3    0    0  0.64740666617E+02 -0.17325033818E+02  0.49289472469E+03  0.49743011604E+03  0.00000000000E+00 0.  1.
        -11    1    3    3    0    0  0.31593951503E+03 -0.56748141800E+02  0.12381597786E+04  0.12790925557E+04  0.00000000000E+00 0. -1.
         22    1    1    2    0    0 -0.38068018165E+03  0.74073175618E+02  0.65558383716E+03  0.76170493211E+03  0.00000000000E+00 0.  1.
<mgrwt>
<rscale>  0 0.86403518E+03</rscale>
<asrwt>0</asrwt>
<pdfrwt beam="1">  1        2 0.37883578E+00 0.86403518E+03</pdfrwt>
<pdfrwt beam="2">  1       -2 0.11660714E-01 0.86403518E+03</pdfrwt>
<totfact> 0.20030268E+02</totfact>
</mgrwt>
</event>
<event>
 6    1  0.5026615E-004  0.4904506E+04  0.7818608E-02  0.7843409E-01
         -2   -1    0    0    0  501 -0.00000000000E+00  0.00000000000E+00  0.16063618362E+04  0.16063618362E+04  0.00000000000E+00 0. -1.
          2   -1    0    0  501    0  0.00000000000E+00 -0.00000000000E+00 -0.37435808336E+04  0.37435808336E+04  0.00000000000E+00 0.  1.
         23    2    1    2    0    0 -0.20962740770E+03 -0.24347618945E+04 -0.12810656803E+04  0.27605397202E+04  0.86262020207E+02 0.  0.
         13    1    3    3    0    0 -0.79444283590E+02 -0.85454322322E+03 -0.49614097030E+03  0.99131799991E+03  0.00000000000E+00 0.  1.
        -13    1    3    3    0    0 -0.13018312411E+03 -0.15802186713E+04 -0.78492471005E+03  0.17692217202E+04  0.00000000000E+00 0. -1.
         22    1    1    2    0    0  0.20962740770E+03  0.24347618945E+04 -0.85615331703E+03  0.25894029496E+04  0.00000000000E+00 0.  1.
<mgrwt>
<rscale>  0 0.49045062E+04</rscale>
<asrwt>0</asrwt>
<pdfrwt beam="1">  1        2 0.57593551E+00 0.49045062E+04</pdfrwt>
<pdfrwt beam="2">  1       -2 0.24713259E+00 0.49045062E+04</pdfrwt>
<totfact> 0.26515017E-02</totfact>
</mgrwt>
</event>
<event>
 6    1  0.5026615E-004  0.2913117E+04  0.7818608E-02  0.8268985E-01
          2   -1    0    0  501    0  0.00000000000E+00  0.00000000000E+00  0.95318022696E+03  0.95318022696E+03  0.00000000000E+00 0.  1.
         -2   -1    0    0    0  501 -0.00000000000E+00 -0.00000000000E+00 -0.22257727194E+04  0.22257727194E+04  0.00000000000E+00 0. -1.
         23    2    1    2    0    0  0.19354521828E+03 -0.56671115570E+03 -0.20841386494E+04  0.21703755073E+04  0.90965088844E+02 0.  0.
         11    1    3    3    0    0  0.11588646434E+03 -0.39380994218E+03 -0.12807103673E+04  0.13448921846E+04  0.00000000000E+00 0.  1.
        -11    1    3    3    0    0  0.77658753947E+02 -0.17290121352E+03 -0.80342828205E+03  0.82548332272E+03  0.00000000000E+00 0. -1.
         22    1    1    2    0    0 -0.19354521828E+03  0.56671115570E+03  0.81154615700E+03  0.10085774390E+04  0.00000000000E+00 0.  1.
<mgrwt>
<rscale>  0 0.29131169E+04</rscale>
<asrwt>0</asrwt>
<pdfrwt beam="1">  1        2 0.14664311E+00 0.29131169E+04</pdfrwt>
<pdfrwt beam="2">  1       -2 0.34242657E+00 0.29131169E+04</pdfrwt>
<totfact> 0.40437726E-01</totfact>
</mgrwt>
</event>
<event>
 6    1  0.5026615E-004  0.3878848E+04  0.7818608E-02  0.8029443E-01
          2   -1    0    0  501    0  0.00000000000E+00  0.00000000000E+00  0.20787128358E+04  0.20787128358E+04  0.00000000000E+00 0.  1.
         -2   -1    0    0    0  501 -0.00000000000E+00 -0.00000000000E+00 -0.18094680675E+04  0.18094680675E+04  0.00000000000E+00 0. -1.
         23    2    1    2    0    0  0.25451205789E+03  0.21152784009E+03  0.20496954180E+04  0.20772350369E+04  0.64293678536E+02 0.  0.
         11    1    3    3    0    0  0.18133748745E+03  0.16757271817E+03  0.16630403825E+04  0.16812695245E+04  0.00000000000E+00 0. -1.
        -11    1    3    3    0    0  0.73174570444E+02  0.43955121912E+02  0.38665503558E+03  0.39596551244E+03  0.00000000000E+00 0.  1.
         22    1    1    2    0    0 -0.25451205789E+03 -0.21152784009E+03 -0.17804506497E+04  0.18109458664E+04  0.00000000000E+00 0. -1.
<mgrwt>
<rscale>  0 0.38788475E+04</rscale>
<asrwt>0</asrwt>
<pdfrwt beam="1">  1        2 0.31980197E+00 0.38788475E+04</pdfrwt>
<pdfrwt beam="2">  1       -2 0.27837970E+00 0.38788475E+04</pdfrwt>
<totfact> 0.20728232E-01</totfact>
</mgrwt>
</event>
<event>
 6    1  0.5026615E-004  0.2830427E+04  0.7818608E-02  0.8293884E-01
         -2   -1    0    0    0  501 -0.00000000000E+00  0.00000000000E+00  0.10151829643E+04  0.10151829643E+04  0.00000000000E+00 0.  1.
          2   -1    0    0  501    0  0.00000000000E+00 -0.00000000000E+00 -0.19728744620E+04  0.19728744620E+04  0.00000000000E+00 0. -1.
         23    2    1    2    0    0 -0.10234511626E+04  0.62777563662E+03 -0.12676013695E+04  0.17480579663E+04  0.85667317282E+02 0.  0.
         11    1    3    3    0    0 -0.18583211001E+03  0.15022981507E+03 -0.27323490276E+03  0.36298744129E+03  0.00000000000E+00 0. -1.
        -11    1    3    3    0    0 -0.83761905260E+03  0.47754582156E+03 -0.99436646678E+03  0.13850705250E+04  0.00000000000E+00 0.  1.
         22    1    1    2    0    0  0.10234511626E+04 -0.62777563662E+03  0.30990987176E+03  0.12399994600E+04  0.00000000000E+00 0.  1.
<mgrwt>
<rscale>  0 0.28304265E+04</rscale>
<asrwt>0</asrwt>
<pdfrwt beam="1">  1        2 0.30351914E+00 0.28304265E+04</pdfrwt>
<pdfrwt beam="2">  1       -2 0.15618200E+00 0.28304265E+04</pdfrwt>
<totfact> 0.16150401E+00</totfact>
</mgrwt>
</event>
<event>
 6    1  0.5026615E-004  0.2105762E+04  0.7818608E-02  0.8558709E-01
         -2   -1    0    0    0  501 -0.00000000000E+00  0.00000000000E+00  0.83606467740E+03  0.83606467740E+03  0.00000000000E+00 0.  1.
          2   -1    0    0  501    0  0.00000000000E+00 -0.00000000000E+00 -0.13259248376E+04  0.13259248376E+04  0.00000000000E+00 0. -1.
         23    2    1    2    0    0  0.60708027473E+03  0.43660052745E+02  0.63433261022E+03  0.88360692546E+03  0.89054355042E+02 0.  0.
         11    1    3    3    0    0  0.15600941484E+03  0.45624814345E+02  0.14144319344E+03  0.21546864778E+03  0.00000000000E+00 0. -1.
        -11    1    3    3    0    0  0.45107085989E+03 -0.19647616007E+01  0.49288941678E+03  0.66813827768E+03  0.00000000000E+00 0.  1.
         22    1    1    2    0    0 -0.60708027473E+03 -0.43660052745E+02 -0.11241927704E+04  0.12783825895E+04  0.00000000000E+00 0. -1.
<mgrwt>
<rscale>  0 0.21057625E+04</rscale>
<asrwt>0</asrwt>
<pdfrwt beam="1">  1        2 0.20398844E+00 0.21057625E+04</pdfrwt>
<pdfrwt beam="2">  1       -2 0.12862534E+00 0.21057625E+04</pdfrwt>
<totfact> 0.65627033E+00</totfact>
</mgrwt>
</event>
<event>
 6    1  0.5026615E-004  0.1356494E+04  0.7818608E-02  0.8985927E-01
         -2   -1    0    0    0  501 -0.00000000000E+00  0.00000000000E+00  0.18273911829E+03  0.18273911829E+03  0.00000000000E+00 0. -1.
          2   -1    0    0  501    0  0.00000000000E+00 -0.00000000000E+00 -0.25173528455E+04  0.25173528455E+04  0.00000000000E+00 0.  1.
         23    2    1    2    0    0  0.39492393532E+03  0.49942926756E+03 -0.16197503635E+04  0.17427915215E+04  0.91304652043E+02 0.  0.
         11    1    3    3    0    0  0.14345861235E+03  0.24942763116E+03 -0.77131048451E+03  0.82323409803E+03  0.00000000000E+00 0.  1.
        -11    1    3    3    0    0  0.25146532297E+03  0.25000163640E+03 -0.84843987898E+03  0.91955742349E+03  0.00000000000E+00 0. -1.
         22    1    1    2    0    0 -0.39492393532E+03 -0.49942926756E+03 -0.71486336372E+03  0.95730044227E+03  0.00000000000E+00 0.  1.
<mgrwt>
<rscale>  0 0.13564938E+04</rscale>
<asrwt>0</asrwt>
<pdfrwt beam="1">  1        2 0.38728501E+00 0.13564938E+04</pdfrwt>
<pdfrwt beam="2">  1       -2 0.28113714E-01 0.13564938E+04</pdfrwt>
<totfact> 0.38586330E+01</totfact>
</mgrwt>
</event>
<event>
 6    1  0.5026615E-004  0.3140260E+04  0.7818608E-02  0.8204775E-01
         -2   -1    0    0    0  501 -0.00000000000E+00  0.00000000000E+00  0.50994396497E+03  0.50994396497E+03  0.00000000000E+00 0. -1.
          2   -1    0    0  501    0  0.00000000000E+00 -0.00000000000E+00 -0.48344674765E+04  0.48344674765E+04  0.00000000000E+00 0.  1.
         23    2    1    2    0    0 -0.10492530127E+04 -0.11097546515E+04 -0.15534162267E+04  0.21803123824E+04  0.90403763071E+02 0.  0.
         13    1    3    3    0    0 -0.90446777168E+03 -0.92387027289E+03 -0.13466874141E+04  0.18668597222E+04  0.00000000000E+00 0.  1.
        -13    1    3    3    0    0 -0.14478524104E+03 -0.18588437862E+03 -0.20672881255E+03  0.31345266018E+03  0.00000000000E+00 0. -1.
         22    1    1    2    0    0  0.10492530127E+04  0.11097546515E+04 -0.27711072849E+04  0.31640990590E+04  0.00000000000E+00 0.  1.
<mgrwt>
<rscale>  0 0.31402596E+04</rscale>
<asrwt>0</asrwt>
<pdfrwt beam="1">  1        2 0.74376422E+00 0.31402596E+04</pdfrwt>
<pdfrwt beam="2">  1       -2 0.78452919E-01 0.31402596E+04</pdfrwt>
<totfact> 0.66271480E-02</totfact>
</mgrwt>
</event>
<event>
 6    1  0.5026615E-004  0.2684307E+04  0.7818608E-02  0.8340115E-01
          2   -1    0    0  501    0  0.00000000000E+00  0.00000000000E+00  0.12301731905E+04  0.12301731905E+04  0.00000000000E+00 0.  1.
         -2   -1    0    0    0  501 -0.00000000000E+00 -0.00000000000E+00 -0.14643267686E+04  0.14643267686E+04  0.00000000000E+00 0. -1.
         23    2    1    2    0    0 -0.60675050498E+03 -0.11691473694E+04 -0.36868220336E+03  0.13704343650E+04  0.84332882350E+02 0.  0.
         13    1    3    3    0    0 -0.14363024678E+03 -0.34628821784E+03 -0.83581182833E+02  0.38409763307E+03  0.00000000000E+00 0.  1.
        -13    1    3    3    0    0 -0.46312025820E+03 -0.82285915151E+03 -0.28510102053E+03  0.98633673190E+03  0.00000000000E+00 0. -1.
         22    1    1    2    0    0  0.60675050498E+03  0.11691473694E+04  0.13452862522E+03  0.13240655941E+04  0.00000000000E+00 0. -1.
<mgrwt>
<rscale>  0 0.26843066E+04</rscale>
<asrwt>0</asrwt>
<pdfrwt beam="1">  1        2 0.18925742E+00 0.26843066E+04</pdfrwt>
<pdfrwt beam="2">  1       -2 0.22528104E+00 0.26843066E+04</pdfrwt>
<totfact> 0.14610918E+00</totfact>
</mgrwt>
</event>
<event>
 6    1  0.5026615E-004  0.4090508E+04  0.7818608E-02  0.7986533E-01
          2   -1    0    0  501    0  0.00000000000E+00  0.00000000000E+00  0.17629524000E+04  0.17629524000E+04  0.00000000000E+00 0.  1.
         -2   -1    0    0    0  501 -0.00000000000E+00 -0.00000000000E+00 -0.23727607045E+04  0.23727607045E+04  0.00000000000E+00 0. -1.
         23    2    1    2    0    0 -0.80176920226E+03  0.59684083979E+03 -0.21080064605E+04  0.23346993466E+04  0.89871905864E+02 0.  0.
         11    1    3    3    0    0 -0.53482159875E+03  0.44538428165E+03 -0.15010505610E+04  0.16545555558E+04  0.00000000000E+00 0.  1.
        -11    1    3    3    0    0 -0.26694760350E+03  0.15145655814E+03 -0.60695589959E+03  0.68014379073E+03  0.00000000000E+00 0. -1.
         22    1    1    2    0    0  0.80176920226E+03 -0.59684083979E+03  0.14981981560E+04  0.18010137579E+04  0.00000000000E+00 0.  1.
<mgrwt>
<rscale>  0 0.40905081E+04</rscale>
<asrwt>0</asrwt>
<pdfrwt beam="1">  1        2 0.27122344E+00 0.40905081E+04</pdfrwt>
<pdfrwt beam="2">  1       -2 0.36504011E+00 0.40905081E+04</pdfrwt>
<totfact> 0.88466980E-02</totfact>
</mgrwt>
</event>
<event>
 6    1  0.5026615E-004  0.3354169E+04  0.7818608E-02  0.8149247E-01
          2   -1    0    0  501    0  0.00000000000E+00  0.00000000000E+00  0.18646237406E+04  0.18646237406E+04  0.00000000000E+00 0.  1.
         -2   -1    0    0    0  501 -0.00000000000E+00 -0.00000000000E+00 -0.15084077117E+04  0.15084077117E+04  0.00000000000E+00 0. -1.
         23    2    1    2    0    0  0.15003131890E+04 -0.25828432887E+03 -0.52627359756E+03  0.16133614831E+04  0.91219055184E+02 0.  0.
         13    1    3    3    0    0  0.10518825040E+04 -0.13885639275E+03 -0.36048600576E+03  0.11205748794E+04  0.00000000000E+00 0.  1.
        -13    1    3    3    0    0  0.44843068502E+03 -0.11942793611E+03 -0.16578759180E+03  0.49278660370E+03  0.00000000000E+00 0. -1.
         22    1    1    2    0    0 -0.15003131890E+04  0.25828432887E+03  0.88248962649E+03  0.17596699692E+04  0.00000000000E+00 0.  1.
<mgrwt>
<rscale>  0 0.33541692E+04</rscale>
<asrwt>0</asrwt>
<pdfrwt beam="1">  1        2 0.28686519E+00 0.33541692E+04</pdfrwt>
<pdfrwt beam="2">  1       -2 0.23206273E+00 0.33541692E+04</pdfrwt>
<totfact> 0.54833307E-01</totfact>
</mgrwt>
</event>
<event>
 6    1  0.5026615E-004  0.4901293E+04  0.7818608E-02  0.7843917E-01
          2   -1    0    0  501    0  0.00000000000E+00  0.00000000000E+00  0.33179825873E+04  0.33179825873E+04  0.00000000000E+00 0.  1.
         -2   -1    0    0    0  501 -0.00000000000E+00 -0.00000000000E+00 -0.18100360975E+04  0.18100360975E+04  0.00000000000E+00 0. -1.
         23    2    1    2    0    0  0.32012800585E+03  0.14361195726E+04  0.28035781323E+04  0.31675129541E+04  0.90369260143E+02 0.  0.
         11    1    3    3    0    0  0.14155785235E+03  0.78744723973E+03  0.15881220668E+04  0.17782697996E+04  0.00000000000E+00 0. -1.
        -11    1    3    3    0    0  0.17857015350E+03  0.64867233291E+03  0.12154560655E+04  0.13892431545E+04  0.00000000000E+00 0.  1.
         22    1    1    2    0    0 -0.32012800585E+03 -0.14361195726E+04 -0.12956316425E+04  0.19605057307E+04  0.00000000000E+00 0. -1.
<mgrwt>
<rscale>  0 0.49012930E+04</rscale>
<asrwt>0</asrwt>
<pdfrwt beam="1">  1        2 0.51045886E+00 0.49012930E+04</pdfrwt>
<pdfrwt beam="2">  1       -2 0.27846709E+00 0.49012930E+04</pdfrwt>
<totfact> 0.34161066E-02</totfact>
</mgrwt>
</event>
<event>
 6    1  0.5026615E-004  0.1197049E+04  0.7818608E-02  0.9115443E-01
         -1   -1    0    0    0  501 -0.00000000000E+00  0.00000000000E+00  0.17113840938E+03  0.17113840938E+03  0.00000000000E+00 0. -1.
          1   -1    0    0  501    0  0.00000000000E+00 -0.00000000000E+00 -0.20932289479E+04  0.20932289479E+04  0.00000000000E+00 0.  1.
         23    2    1    2    0    0 -0.29375359357E+03 -0.41703447588E+02 -0.19422794937E+04  0.19669821774E+04  0.92406186489E+02 0.  0.
         11    1    3    3    0    0 -0.20577035415E+03 -0.66782220309E+02 -0.14810500751E+04  0.14967667248E+04  0.00000000000E+00 0. -1.
        -11    1    3    3    0    0 -0.87983239416E+02  0.25078772721E+02 -0.46122941861E+03  0.47021545259E+03  0.00000000000E+00 0.  1.
         22    1    1    2    0    0  0.29375359357E+03  0.41703447588E+02  0.20188955225E+02  0.29738517984E+03  0.00000000000E+00 0. -1.
<mgrwt>
<rscale>  0 0.11970495E+04</rscale>
<asrwt>0</asrwt>
<pdfrwt beam="1">  1        1 0.32203523E+00 0.11970495E+04</pdfrwt>
<pdfrwt beam="2">  1       -1 0.26328985E-01 0.11970495E+04</pdfrwt>
<totfact> 0.32748710E+01</totfact>
</mgrwt>
</event>
<event>
 6    1  0.5070268E-004  0.3160587E+04  0.7818608E-02  0.8199304E-01
          2   -1    0    0  501    0  0.00000000000E+00  0.00000000000E+00  0.16762065302E+04  0.16762065302E+04  0.00000000000E+00 0.  1.
         -2   -1    0    0    0  501 -0.00000000000E+00 -0.00000000000E+00 -0.14898683372E+04  0.14898683372E+04  0.00000000000E+00 0. -1.
         23    2    1    2    0    0 -0.35251408027E+03 -0.80921210693E+03  0.14049755913E+04  0.16613597716E+04  0.84080128304E+02 0.  0.
         13    1    3    3    0    0 -0.32457527941E+03 -0.66806472243E+03  0.11716691002E+04  0.13872519835E+04  0.00000000000E+00 0.  1.
        -13    1    3    3    0    0 -0.27938800855E+02 -0.14114738449E+03  0.23330649112E+03  0.27410778818E+03  0.00000000000E+00 0. -1.
         22    1    1    2    0    0  0.35251408027E+03  0.80921210693E+03 -0.12186373983E+04  0.15047150957E+04  0.00000000000E+00 0. -1.
<mgrwt>
<rscale>  0 0.31605867E+04</rscale>
<asrwt>0</asrwt>
<pdfrwt beam="1">  1        2 0.25787793E+00 0.31605867E+04</pdfrwt>
<pdfrwt beam="2">  1       -2 0.22921051E+00 0.31605867E+04</pdfrwt>
<totfact> 0.73871464E-01</totfact>
</mgrwt>
</event>
<event>
 6    1  0.5026615E-004  0.2455428E+04  0.7818608E-02  0.8419039E-01
          2   -1    0    0  501    0  0.00000000000E+00  0.00000000000E+00  0.20616741422E+04  0.20616741422E+04  0.00000000000E+00 0.  1.
         -2   -1    0    0    0  501 -0.00000000000E+00 -0.00000000000E+00 -0.73109588052E+03  0.73109588052E+03  0.00000000000E+00 0. -1.
         23    2    1    2    0    0 -0.47204228713E+03  0.26422980299E+03  0.19175143557E+04  0.19945624757E+04  0.93684874138E+02 0.  0.
         11    1    3    3    0    0 -0.14654881316E+03  0.42274741923E+02  0.62484696494E+03  0.64319315764E+03  0.00000000000E+00 0.  1.
        -11    1    3    3    0    0 -0.32549347397E+03  0.22195506107E+03  0.12926673907E+04  0.13513693181E+04  0.00000000000E+00 0. -1.
         22    1    1    2    0    0  0.47204228713E+03 -0.26422980299E+03 -0.58693609401E+03  0.79820754700E+03  0.00000000000E+00 0. -1.
<mgrwt>
<rscale>  0 0.24554278E+04</rscale>
<asrwt>0</asrwt>
<pdfrwt beam="1">  1        2 0.31718064E+00 0.24554278E+04</pdfrwt>
<pdfrwt beam="2">  1       -2 0.11247629E+00 0.24554278E+04</pdfrwt>
<totfact> 0.34391590E+00</totfact>
</mgrwt>
</event>
<event>
 6    1  0.5026615E-004  0.2006880E+04  0.7818608E-02  0.8603411E-01
         -2   -1    0    0    0  501 -0.00000000000E+00  0.00000000000E+00  0.47992552530E+03  0.47992552530E+03  0.00000000000E+00 0. -1.
          2   -1    0    0  501    0  0.00000000000E+00 -0.00000000000E+00 -0.20980158388E+04  0.20980158388E+04  0.00000000000E+00 0.  1.
         23    2    1    2    0    0  0.40133935883E+03  0.15209750553E+03 -0.19729156308E+04  0.20210680051E+04  0.90071433124E+02 0.  0.
         11    1    3    3    0    0  0.10001311181E+03  0.72843733150E+01 -0.57914750130E+03  0.58776484489E+03  0.00000000000E+00 0. -1.
        -11    1    3    3    0    0  0.30132624702E+03  0.14481313222E+03 -0.13937681294E+04  0.14333031602E+04  0.00000000000E+00 0.  1.
         22    1    1    2    0    0 -0.40133935883E+03 -0.15209750553E+03  0.35482531729E+03  0.55687335896E+03  0.00000000000E+00 0. -1.
<mgrwt>
<rscale>  0 0.20068795E+04</rscale>
<asrwt>0</asrwt>
<pdfrwt beam="1">  1        2 0.32277167E+00 0.20068795E+04</pdfrwt>
<pdfrwt beam="2">  1       -2 0.73834696E-01 0.20068795E+04</pdfrwt>
<totfact> 0.90423647E+00</totfact>
</mgrwt>
</event>
<event>
 6    1  0.5026615E-004  0.2416868E+04  0.7818608E-02  0.8433215E-01
          2   -1    0    0  501    0  0.00000000000E+00  0.00000000000E+00  0.15466376698E+04  0.15466376698E+04  0.00000000000E+00 0.  1.
         -2   -1    0    0    0  501 -0.00000000000E+00 -0.00000000000E+00 -0.94418558314E+03  0.94418558314E+03  0.00000000000E+00 0. -1.
         23    2    1    2    0    0  0.47294948645E+03  0.42797401102E+03  0.13574459042E+04  0.15024616615E+04  0.88818301124E+02 0.  0.
         11    1    3    3    0    0  0.79577864203E+02  0.79673866850E+02  0.32609786060E+03  0.34499329880E+03  0.00000000000E+00 0.  1.
        -11    1    3    3    0    0  0.39337162225E+03  0.34830014417E+03  0.10313480436E+04  0.11574683627E+04  0.00000000000E+00 0. -1.
         22    1    1    2    0    0 -0.47294948645E+03 -0.42797401102E+03 -0.75499381756E+03  0.98836159142E+03  0.00000000000E+00 0. -1.
<mgrwt>
<rscale>  0 0.24168682E+04</rscale>
<asrwt>0</asrwt>
<pdfrwt beam="1">  1        2 0.23794426E+00 0.24168682E+04</pdfrwt>
<pdfrwt beam="2">  1       -2 0.14525932E+00 0.24168682E+04</pdfrwt>
<totfact> 0.34998383E+00</totfact>
</mgrwt>
</event>
<event>
 6    1  0.5026615E-004  0.3733708E+04  0.7818608E-02  0.8060533E-01
          2   -1    0    0  501    0  0.00000000000E+00  0.00000000000E+00  0.20098859264E+04  0.20098859264E+04  0.00000000000E+00 0.  1.
         -2   -1    0    0    0  501 -0.00000000000E+00 -0.00000000000E+00 -0.17340008244E+04  0.17340008244E+04  0.00000000000E+00 0. -1.
         23    2    1    2    0    0  0.15306093575E+04  0.10671391548E+04  0.14324988303E+03  0.18732870923E+04  0.84457211174E+02 0.  0.
         11    1    3    3    0    0  0.93287781740E+03  0.69980151593E+03  0.94984281086E+02  0.11700449554E+04  0.00000000000E+00 0. -1.
        -11    1    3    3    0    0  0.59773154006E+03  0.36733763886E+03  0.48265601942E+02  0.70324213699E+03  0.00000000000E+00 0.  1.
         22    1    1    2    0    0 -0.15306093575E+04 -0.10671391548E+04  0.13263521898E+03  0.18705996584E+04  0.00000000000E+00 0.  1.
<mgrwt>
<rscale>  0 0.37337080E+04</rscale>
<asrwt>0</asrwt>
<pdfrwt beam="1">  1        2 0.30921322E+00 0.37337080E+04</pdfrwt>
<pdfrwt beam="2">  1       -2 0.26676936E+00 0.37337080E+04</pdfrwt>
<totfact> 0.26977170E-01</totfact>
</mgrwt>
</event>
<event>
 6    1  0.5026615E-004  0.5768615E+04  0.7818608E-02  0.7719772E-01
         -2   -1    0    0    0  501 -0.00000000000E+00  0.00000000000E+00  0.26342450345E+04  0.26342450345E+04  0.00000000000E+00 0. -1.
          2   -1    0    0  501    0  0.00000000000E+00 -0.00000000000E+00 -0.31581078607E+04  0.31581078607E+04  0.00000000000E+00 0.  1.
         23    2    1    2    0    0 -0.84680492480E+03 -0.23717195520E+03  0.24955373047E+04  0.26474989609E+04  0.90637695569E+02 0.  0.
         13    1    3    3    0    0 -0.16694025940E+03 -0.10243864966E+02  0.48418745725E+03  0.51226114505E+03  0.00000000000E+00 0. -1.
        -13    1    3    3    0    0 -0.67986466540E+03 -0.22692809023E+03  0.20113498475E+04  0.21352378159E+04  0.00000000000E+00 0.  1.
         22    1    1    2    0    0  0.84680492480E+03  0.23717195520E+03 -0.30194001309E+04  0.31448539342E+04  0.00000000000E+00 0.  1.
<mgrwt>
<rscale>  0 0.57686151E+04</rscale>
<asrwt>0</asrwt>
<pdfrwt beam="1">  1        2 0.48586275E+00 0.57686151E+04</pdfrwt>
<pdfrwt beam="2">  1       -2 0.40526847E+00 0.57686151E+04</pdfrwt>
<totfact> 0.64894154E-03</totfact>
</mgrwt>
</event>
<event>
 6    1  0.5026615E-004  0.2986425E+04  0.7818608E-02  0.8247618E-01
          2   -1    0    0  501    0  0.00000000000E+00  0.00000000000E+00  0.16581473109E+04  0.16581473109E+04  0.00000000000E+00 0.  1.
         -2   -1    0    0    0  501 -0.00000000000E+00 -0.00000000000E+00 -0.13446834664E+04  0.13446834664E+04  0.00000000000E+00 0. -1.
         23    2    1    2    0    0  0.10808862587E+04  0.56696546582E+03  0.10194598107E+04  0.15927970019E+04  0.89101289863E+02 0.  0.
         11    1    3    3    0    0  0.10813943817E+03  0.72821402035E+02  0.14107673704E+03  0.19209305145E+03  0.00000000000E+00 0.  1.
        -11    1    3    3    0    0  0.97274682053E+03  0.49414406378E+03  0.87838307369E+03  0.14007039504E+04  0.00000000000E+00 0. -1.
         22    1    1    2    0    0 -0.10808862587E+04 -0.56696546582E+03 -0.70599596619E+03  0.14100337755E+04  0.00000000000E+00 0. -1.
<mgrwt>
<rscale>  0 0.29864248E+04</rscale>
<asrwt>0</asrwt>
<pdfrwt beam="1">  1        2 0.25509959E+00 0.29864248E+04</pdfrwt>
<pdfrwt beam="2">  1       -2 0.20687438E+00 0.29864248E+04</pdfrwt>
<totfact> 0.10638527E+00</totfact>
</mgrwt>
</event>
<event>
 6    1  0.5026615E-004  0.9717907E+03  0.7818608E-02  0.9340037E-01
         -2   -1    0    0    0  501 -0.00000000000E+00  0.00000000000E+00  0.74901998746E+02  0.74901998746E+02  0.00000000000E+00 0. -1.
          2   -1    0    0  501    0  0.00000000000E+00 -0.00000000000E+00 -0.31520426108E+04  0.31520426108E+04  0.00000000000E+00 0.  1.
         23    2    1    2    0    0 -0.29458417078E+03 -0.29859881008E+03 -0.76619921411E+03  0.87824470794E+03  0.91167144683E+02 0.  0.
         13    1    3    3    0    0 -0.95286906058E+02 -0.10017084828E+03 -0.17060364671E+03  0.21958915634E+03  0.00000000000E+00 0. -1.
        -13    1    3    3    0    0 -0.19929726472E+03 -0.19842796180E+03 -0.59559556740E+03  0.65865555160E+03  0.00000000000E+00 0.  1.
         22    1    1    2    0    0  0.29458417078E+03  0.29859881008E+03 -0.23109413980E+04  0.23486999016E+04  0.00000000000E+00 0.  1.
<mgrwt>
<rscale>  0 0.97179070E+03</rscale>
<asrwt>0</asrwt>
<pdfrwt beam="1">  1        2 0.48492945E+00 0.97179070E+03</pdfrwt>
<pdfrwt beam="2">  1       -2 0.11523389E-01 0.97179070E+03</pdfrwt>
<totfact> 0.78335859E+01</totfact>
</mgrwt>
</event>
<event>
 6    1  0.5026615E-004  0.1657067E+04  0.7818608E-02  0.8786236E-01
          2   -1    0    0  501    0  0.00000000000E+00  0.00000000000E+00  0.35118971381E+04  0.35118971381E+04  0.00000000000E+00 0.  1.
         -2   -1    0    0    0  501 -0.00000000000E+00 -0.00000000000E+00 -0.19546932003E+03  0.19546932003E+03  0.00000000000E+00 0. -1.
         23    2    1    2    0    0  0.71692431804E+03  0.58898924900E+02  0.75445432758E+03  0.10463219776E+04  0.90215227933E+02 0.  0.
         13    1    3    3    0    0  0.44219637077E+03 -0.46513982288E+01  0.48404730682E+03  0.65563790393E+03  0.00000000000E+00 0. -1.
        -13    1    3    3    0    0  0.27472794727E+03  0.63550323129E+02  0.27040702076E+03  0.39068407372E+03  0.00000000000E+00 0.  1.
         22    1    1    2    0    0 -0.71692431804E+03 -0.58898924900E+02  0.25619734905E+04  0.26610444805E+04  0.00000000000E+00 0.  1.
<mgrwt>
<rscale>  0 0.16570675E+04</rscale>
<asrwt>0</asrwt>
<pdfrwt beam="1">  1        2 0.54029182E+00 0.16570675E+04</pdfrwt>
<pdfrwt beam="2">  1       -2 0.30072206E-01 0.16570675E+04</pdfrwt>
<totfact> 0.78579945E+00</totfact>
</mgrwt>
</event>
<event>
 6    1  0.5026615E-004  0.1270847E+04  0.7818608E-02  0.9053009E-01
          2   -1    0    0  501    0  0.00000000000E+00  0.00000000000E+00  0.54570665529E+03  0.54570665529E+03  0.00000000000E+00 0.  1.
         -2   -1    0    0    0  501 -0.00000000000E+00 -0.00000000000E+00 -0.73988989870E+03  0.73988989870E+03  0.00000000000E+00 0. -1.
         23    2    1    2    0    0 -0.38478467272E+03  0.59945026182E+02  0.40629719357E+03  0.56989451703E+03  0.89720123206E+02 0.  0.
         13    1    3    3    0    0 -0.76922467275E+02  0.46826979115E+02  0.72489528259E+02  0.11560520599E+03  0.00000000000E+00 0.  1.
        -13    1    3    3    0    0 -0.30786220544E+03  0.13118047067E+02  0.33380766531E+03  0.45428931104E+03  0.00000000000E+00 0. -1.
         22    1    1    2    0    0  0.38478467272E+03 -0.59945026182E+02 -0.60048043698E+03  0.71570203697E+03  0.00000000000E+00 0. -1.
<mgrwt>
<rscale>  0 0.12708467E+04</rscale>
<asrwt>0</asrwt>
<pdfrwt beam="1">  1        2 0.83954871E-01 0.12708467E+04</pdfrwt>
<pdfrwt beam="2">  1       -2 0.11382921E+00 0.12708467E+04</pdfrwt>
<totfact> 0.32989484E+01</totfact>
</mgrwt>
</event>
<event>
 6    1  0.5026615E-004  0.2131585E+04  0.7818608E-02  0.8547456E-01
         -2   -1    0    0    0  501 -0.00000000000E+00  0.00000000000E+00  0.54450134548E+03  0.54450134548E+03  0.00000000000E+00 0. -1.
          2   -1    0    0  501    0  0.00000000000E+00 -0.00000000000E+00 -0.20861531953E+04  0.20861531953E+04  0.00000000000E+00 0.  1.
         23    2    1    2    0    0  0.28588990526E+03  0.89098794160E+03 -0.13971807208E+04  0.16838364711E+04  0.87170779470E+02 0.  0.
         13    1    3    3    0    0  0.18306379996E+03  0.58979809895E+03 -0.84686296862E+03  0.10481178560E+04  0.00000000000E+00 0.  1.
        -13    1    3    3    0    0  0.10282610530E+03  0.30118984265E+03 -0.55031775220E+03  0.63571861514E+03  0.00000000000E+00 0. -1.
         22    1    1    2    0    0 -0.28588990526E+03 -0.89098794160E+03 -0.14447112905E+03  0.94681806971E+03  0.00000000000E+00 0. -1.
<mgrwt>
<rscale>  0 0.21315846E+04</rscale>
<asrwt>0</asrwt>
<pdfrwt beam="1">  1        2 0.32094665E+00 0.21315846E+04</pdfrwt>
<pdfrwt beam="2">  1       -2 0.83769437E-01 0.21315846E+04</pdfrwt>
<totfact> 0.68475514E+00</totfact>
</mgrwt>
</event>
<event>
 6    1  0.5026615E-004  0.2290985E+04  0.7818608E-02  0.8481484E-01
          2   -1    0    0  501    0  0.00000000000E+00  0.00000000000E+00  0.22276835113E+04  0.22276835113E+04  0.00000000000E+00 0.  1.
         -2   -1    0    0    0  501 -0.00000000000E+00 -0.00000000000E+00 -0.58902137582E+03  0.58902137582E+03  0.00000000000E+00 0. -1.
         23    2    1    2    0    0 -0.25693217670E+03  0.39899433135E+03 -0.45837351327E+03  0.66664229920E+03  0.95368011058E+02 0.  0.
         13    1    3    3    0    0 -0.14414267743E+02  0.58216716513E+02 -0.26952197653E+02  0.65752400370E+02  0.00000000000E+00 0.  1.
        -13    1    3    3    0    0 -0.24251790896E+03  0.34077761484E+03 -0.43142131562E+03  0.60088989883E+03  0.00000000000E+00 0. -1.
         22    1    1    2    0    0  0.25693217670E+03 -0.39899433135E+03  0.20970356488E+04  0.21500625879E+04  0.00000000000E+00 0.  1.
<mgrwt>
<rscale>  0 0.22909851E+04</rscale>
<asrwt>0</asrwt>
<pdfrwt beam="1">  1        2 0.34272053E+00 0.22909851E+04</pdfrwt>
<pdfrwt beam="2">  1       -2 0.90618675E-01 0.22909851E+04</pdfrwt>
<totfact> 0.47008171E+00</totfact>
</mgrwt>
</event>
<event>
 6    1  0.5026615E-004  0.2216013E+04  0.7818608E-02  0.8511793E-01
          2   -1    0    0  501    0  0.00000000000E+00  0.00000000000E+00  0.23728353890E+04  0.23728353890E+04  0.00000000000E+00 0.  1.
         -2   -1    0    0    0  501 -0.00000000000E+00 -0.00000000000E+00 -0.51738874956E+03  0.51738874956E+03  0.00000000000E+00 0. -1.
         23    2    1    2    0    0  0.79972959765E+03  0.68497323630E+03  0.13715529763E+04  0.17313847015E+04  0.88202346121E+02 0.  0.
         11    1    3    3    0    0  0.63043772541E+03  0.54317470219E+03  0.11399568276E+04  0.14113794853E+04  0.00000000000E+00 0.  1.
        -11    1    3    3    0    0  0.16929187224E+03  0.14179853412E+03  0.23159614870E+03  0.32000521617E+03  0.00000000000E+00 0. -1.
         22    1    1    2    0    0 -0.79972959765E+03 -0.68497323630E+03  0.48389366319E+03  0.11588394371E+04  0.00000000000E+00 0. -1.
<mgrwt>
<rscale>  0 0.22160129E+04</rscale>
<asrwt>0</asrwt>
<pdfrwt beam="1">  1        2 0.36505159E+00 0.22160129E+04</pdfrwt>
<pdfrwt beam="2">  1       -2 0.79598271E-01 0.22160129E+04</pdfrwt>
<totfact> 0.52582354E+00</totfact>
</mgrwt>
</event>
<event>
 6    1  0.5026615E-004  0.1547333E+04  0.7818608E-02  0.8853573E-01
          2   -1    0    0  501    0  0.00000000000E+00  0.00000000000E+00  0.62858364876E+03  0.62858364876E+03  0.00000000000E+00 0.  1.
         -2   -1    0    0    0  501 -0.00000000000E+00 -0.00000000000E+00 -0.95223521001E+03  0.95223521001E+03  0.00000000000E+00 0. -1.
         23    2    1    2    0    0  0.39399110588E+03  0.66120238019E+03 -0.11728060481E+03  0.78394587596E+03  0.91645060342E+02 0.  0.
         11    1    3    3    0    0  0.30981829504E+02  0.22315375675E+02 -0.18807335082E+02  0.42562490573E+02  0.00000000000E+00 0. -1.
        -11    1    3    3    0    0  0.36300927638E+03  0.63888700451E+03 -0.98473269726E+02  0.74138338538E+03  0.00000000000E+00 0.  1.
         22    1    1    2    0    0 -0.39399110588E+03 -0.66120238019E+03 -0.20637095644E+03  0.79687298281E+03  0.00000000000E+00 0. -1.
<mgrwt>
<rscale>  0 0.15473325E+04</rscale>
<asrwt>0</asrwt>
<pdfrwt beam="1">  1        2 0.96705177E-01 0.15473325E+04</pdfrwt>
<pdfrwt beam="2">  1       -2 0.14649772E+00 0.15473325E+04</pdfrwt>
<totfact> 0.14379537E+01</totfact>
</mgrwt>
</event>
<event>
 6    1  0.5026615E-004  0.1428787E+04  0.7818608E-02  0.8933241E-01
         -2   -1    0    0    0  501 -0.00000000000E+00  0.00000000000E+00  0.87799361106E+03  0.87799361106E+03  0.00000000000E+00 0. -1.
          2   -1    0    0  501    0  0.00000000000E+00 -0.00000000000E+00 -0.58127726281E+03  0.58127726281E+03  0.00000000000E+00 0.  1.
         23    2    1    2    0    0 -0.30755924463E+03 -0.62884501147E+03  0.19360636610E+02  0.70630013859E+03  0.91903830787E+02 0.  0.
         13    1    3    3    0    0 -0.12223146223E+03 -0.21411739699E+03 -0.34162060750E+02  0.24890527605E+03  0.00000000000E+00 0. -1.
        -13    1    3    3    0    0 -0.18532778241E+03 -0.41472761448E+03  0.53522697360E+02  0.45739486254E+03  0.00000000000E+00 0.  1.
         22    1    1    2    0    0  0.30755924463E+03  0.62884501147E+03  0.27735571164E+03  0.75297073528E+03  0.00000000000E+00 0. -1.
<mgrwt>
<rscale>  0 0.14287865E+04</rscale>
<asrwt>0</asrwt>
<pdfrwt beam="1">  1        2 0.89427271E-01 0.14287865E+04</pdfrwt>
<pdfrwt beam="2">  1       -2 0.13507594E+00 0.14287865E+04</pdfrwt>
<totfact> 0.19707124E+01</totfact>
</mgrwt>
</event>
<event>
 6    1  0.5026615E-004  0.2762320E+04  0.7818608E-02  0.8315063E-01
         -2   -1    0    0    0  501 -0.00000000000E+00  0.00000000000E+00  0.11485124858E+04  0.11485124858E+04  0.00000000000E+00 0. -1.
          2   -1    0    0  501    0  0.00000000000E+00 -0.00000000000E+00 -0.16609331159E+04  0.16609331159E+04  0.00000000000E+00 0.  1.
         23    2    1    2    0    0 -0.12973455016E+04  0.16143396997E+03  0.19186562576E+03  0.13244589326E+04  0.90624326756E+02 0.  0.
         13    1    3    3    0    0 -0.89928658383E+03  0.14474188707E+03  0.10712850589E+03  0.91713853397E+03  0.00000000000E+00 0. -1.
        -13    1    3    3    0    0 -0.39805891775E+03  0.16692082901E+02  0.84737119862E+02  0.40732039860E+03  0.00000000000E+00 0.  1.
         22    1    1    2    0    0  0.12973455016E+04 -0.16143396997E+03 -0.70428625588E+03  0.14849866691E+04  0.00000000000E+00 0.  1.
<mgrwt>
<rscale>  0 0.27623196E+04</rscale>
<asrwt>0</asrwt>
<pdfrwt beam="1">  1        2 0.25552817E+00 0.27623196E+04</pdfrwt>
<pdfrwt beam="2">  1       -2 0.17669423E+00 0.27623196E+04</pdfrwt>
<totfact> 0.17208688E+00</totfact>
</mgrwt>
</event>
<event>
 6    1  0.5026615E-004  0.4114327E+04  0.7818608E-02  0.7981872E-01
         -2   -1    0    0    0  501 -0.00000000000E+00  0.00000000000E+00  0.20070039518E+04  0.20070039518E+04  0.00000000000E+00 0.  1.
          2   -1    0    0  501    0  0.00000000000E+00 -0.00000000000E+00 -0.21085765268E+04  0.21085765268E+04  0.00000000000E+00 0. -1.
         23    2    1    2    0    0 -0.11445935528E+04 -0.17069299572E+04 -0.11522802086E+03  0.20603698444E+04  0.90233691046E+02 0.  0.
         13    1    3    3    0    0 -0.90408608718E+03 -0.13478892897E+04 -0.54088629556E+02  0.16239158753E+04  0.00000000000E+00 0. -1.
        -13    1    3    3    0    0 -0.24050746559E+03 -0.35904066748E+03 -0.61139391302E+02  0.43645396903E+03  0.00000000000E+00 0.  1.
         22    1    1    2    0    0  0.11445935528E+04  0.17069299572E+04  0.13655445820E+02  0.20552106342E+04  0.00000000000E+00 0.  1.
<mgrwt>
<rscale>  0 0.41143269E+04</rscale>
<asrwt>0</asrwt>
<pdfrwt beam="1">  1        2 0.32439639E+00 0.41143269E+04</pdfrwt>
<pdfrwt beam="2">  1       -2 0.30876984E+00 0.41143269E+04</pdfrwt>
<totfact> 0.12755129E-01</totfact>
</mgrwt>
</event>
<event>
 6    1  0.5026615E-004  0.1200226E+04  0.7818608E-02  0.9112659E-01
          2   -1    0    0  501    0  0.00000000000E+00  0.00000000000E+00  0.12990811235E+04  0.12990811235E+04  0.00000000000E+00 0.  1.
         -2   -1    0    0    0  501 -0.00000000000E+00 -0.00000000000E+00 -0.27722319025E+03  0.27722319025E+03  0.00000000000E+00 0. -1.
         23    2    1    2    0    0  0.54989082843E+03  0.16294795530E+03  0.72880944199E+03  0.93224734611E+03  0.94815358887E+02 0.  0.
         11    1    3    3    0    0  0.31901073473E+03  0.84550531483E+02  0.34414292939E+03  0.47681337764E+03  0.00000000000E+00 0. -1.
        -11    1    3    3    0    0  0.23088009370E+03  0.78397423813E+02  0.38466651260E+03  0.45543396848E+03  0.00000000000E+00 0.  1.
         22    1    1    2    0    0 -0.54989082843E+03 -0.16294795530E+03  0.29304849126E+03  0.64405696763E+03  0.00000000000E+00 0. -1.
<mgrwt>
<rscale>  0 0.12002257E+04</rscale>
<asrwt>0</asrwt>
<pdfrwt beam="1">  1        2 0.19985863E+00 0.12002257E+04</pdfrwt>
<pdfrwt beam="2">  1       -2 0.42649722E-01 0.12002257E+04</pdfrwt>
<totfact> 0.85069816E+01</totfact>
</mgrwt>
</event>
<event>
 6    1  0.5026615E-004  0.9538949E+03  0.7818608E-02  0.9360610E-01
          2   -1    0    0  501    0  0.00000000000E+00  0.00000000000E+00  0.53371698268E+03  0.53371698268E+03  0.00000000000E+00 0.  1.
         -2   -1    0    0    0  501 -0.00000000000E+00 -0.00000000000E+00 -0.42621625893E+03  0.42621625893E+03  0.00000000000E+00 0. -1.
         23    2    1    2    0    0 -0.39890568745E+03 -0.11088760209E+03 -0.17521962343E+03  0.45858246373E+03  0.90411016069E+02 0.  0.
         11    1    3    3    0    0 -0.18102265289E+03 -0.95710450216E+02 -0.97077287000E+02  0.22661352738E+03  0.00000000000E+00 0. -1.
        -11    1    3    3    0    0 -0.21788303456E+03 -0.15177151876E+02 -0.78142336427E+02  0.23196893635E+03  0.00000000000E+00 0.  1.
         22    1    1    2    0    0  0.39890568745E+03  0.11088760209E+03  0.28272034718E+03  0.50135077789E+03  0.00000000000E+00 0. -1.
<mgrwt>
<rscale>  0 0.95389487E+03</rscale>
<asrwt>0</asrwt>
<pdfrwt beam="1">  1        2 0.82110305E-01 0.95389487E+03</pdfrwt>
<pdfrwt beam="2">  1       -2 0.65571732E-01 0.95389487E+03</pdfrwt>
<totfact> 0.12239125E+02</totfact>
</mgrwt>
</event>
<event>
 6    1  0.5026615E-004  0.5012263E+04  0.7818608E-02  0.7826618E-01
          2   -1    0    0  501    0  0.00000000000E+00  0.00000000000E+00  0.31078690534E+04  0.31078690534E+04  0.00000000000E+00 0.  1.
         -2   -1    0    0    0  501 -0.00000000000E+00 -0.00000000000E+00 -0.20209010043E+04  0.20209010043E+04  0.00000000000E+00 0. -1.
         23    2    1    2    0    0 -0.25912237502E+03 -0.20194898516E+04 -0.95003375897E+03  0.22486901921E+04  0.92519028864E+02 0.  0.
         13    1    3    3    0    0 -0.18533073822E+03 -0.12955261072E+04 -0.65454179439E+03  0.14632704253E+04  0.00000000000E+00 0. -1.
        -13    1    3    3    0    0 -0.73791636802E+02 -0.72396374443E+03 -0.29549196458E+03  0.78541976677E+03  0.00000000000E+00 0.  1.
         22    1    1    2    0    0  0.25912237502E+03  0.20194898516E+04  0.20370018081E+04  0.28800798656E+04  0.00000000000E+00 0.  1.
<mgrwt>
<rscale>  0 0.50122632E+04</rscale>
<asrwt>0</asrwt>
<pdfrwt beam="1">  1        2 0.47813370E+00 0.50122632E+04</pdfrwt>
<pdfrwt beam="2">  1       -2 0.31090785E+00 0.50122632E+04</pdfrwt>
<totfact> 0.29452060E-02</totfact>
</mgrwt>
</event>
<event>
 6    1  0.5026615E-004  0.3900048E+04  0.7818608E-02  0.8025019E-01
         -2   -1    0    0    0  501 -0.00000000000E+00  0.00000000000E+00  0.17267350116E+04  0.17267350116E+04  0.00000000000E+00 0.  1.
          2   -1    0    0  501    0  0.00000000000E+00 -0.00000000000E+00 -0.22021875416E+04  0.22021875416E+04  0.00000000000E+00 0. -1.
         23    2    1    2    0    0  0.10368345323E+04  0.10078701702E+04  0.10785729163E+04  0.18062301084E+04  0.91211521129E+02 0.  0.
         11    1    3    3    0    0  0.10003913095E+04  0.94769268219E+03  0.10158068825E+04  0.17119485432E+04  0.00000000000E+00 0.  1.
        -11    1    3    3    0    0  0.36443222789E+02  0.60177487987E+02  0.62766033761E+02  0.94281565228E+02  0.00000000000E+00 0. -1.
         22    1    1    2    0    0 -0.10368345323E+04 -0.10078701702E+04 -0.15540254463E+04  0.21226924448E+04  0.00000000000E+00 0. -1.
<mgrwt>
<rscale>  0 0.39000484E+04</rscale>
<asrwt>0</asrwt>
<pdfrwt beam="1">  1        2 0.33879808E+00 0.39000484E+04</pdfrwt>
<pdfrwt beam="2">  1       -2 0.26565154E+00 0.39000484E+04</pdfrwt>
<totfact> 0.21101337E-01</totfact>
</mgrwt>
</event>
<event>
 6    1  0.5026615E-004  0.3244776E+04  0.7818608E-02  0.8177091E-01
         -1   -1    0    0    0  501 -0.00000000000E+00  0.00000000000E+00  0.13028850604E+04  0.13028850604E+04  0.00000000000E+00 0. -1.
          1   -1    0    0  501    0  0.00000000000E+00 -0.00000000000E+00 -0.20202423651E+04  0.20202423651E+04  0.00000000000E+00 0.  1.
         23    2    1    2    0    0 -0.62857115290E+03  0.45847867735E+03  0.10974070122E+04  0.13486214321E+04  0.95776952935E+02 0.  0.
         13    1    3    3    0    0 -0.33799812693E+03  0.18767627151E+03  0.55095730708E+03  0.67306691415E+03  0.00000000000E+00 0.  1.
        -13    1    3    3    0    0 -0.29057302597E+03  0.27080240584E+03  0.54644970513E+03  0.67555451791E+03  0.00000000000E+00 0. -1.
         22    1    1    2    0    0  0.62857115290E+03 -0.45847867735E+03 -0.18147643170E+04  0.19745059934E+04  0.00000000000E+00 0.  1.
<mgrwt>
<rscale>  0 0.32447765E+04</rscale>
<asrwt>0</asrwt>
<pdfrwt beam="1">  1        1 0.31080652E+00 0.32447765E+04</pdfrwt>
<pdfrwt beam="2">  1       -1 0.20044385E+00 0.32447765E+04</pdfrwt>
<totfact> 0.35963789E-01</totfact>
</mgrwt>
</event>
<event>
 6    1  0.5026615E-004  0.2547818E+04  0.7818608E-02  0.8386145E-01
         -2   -1    0    0    0  501 -0.00000000000E+00  0.00000000000E+00  0.76122158018E+03  0.76122158018E+03  0.00000000000E+00 0. -1.
          2   -1    0    0  501    0  0.00000000000E+00 -0.00000000000E+00 -0.21318949775E+04  0.21318949775E+04  0.00000000000E+00 0.  1.
         23    2    1    2    0    0 -0.11299993510E+04 -0.58411246961E+03 -0.71443342318E+03  0.14617756430E+04  0.91032981287E+02 0.  0.
         11    1    3    3    0    0 -0.72172711824E+03 -0.36099569409E+03 -0.50144002473E+03  0.95007895607E+03  0.00000000000E+00 0. -1.
        -11    1    3    3    0    0 -0.40827223280E+03 -0.22311677552E+03 -0.21299339845E+03  0.51169668689E+03  0.00000000000E+00 0.  1.
         22    1    1    2    0    0  0.11299993510E+04  0.58411246961E+03 -0.65623997417E+03  0.14313409147E+04  0.00000000000E+00 0.  1.
<mgrwt>
<rscale>  0 0.25478183E+04</rscale>
<asrwt>0</asrwt>
<pdfrwt beam="1">  1        2 0.32798384E+00 0.25478183E+04</pdfrwt>
<pdfrwt beam="2">  1       -2 0.11711101E+00 0.25478183E+04</pdfrwt>
<totfact> 0.28251337E+00</totfact>
</mgrwt>
</event>
<event>
 6    1  0.5026615E-004  0.1384399E+04  0.7818608E-02  0.8965189E-01
          2   -1    0    0  501    0  0.00000000000E+00  0.00000000000E+00  0.40375316902E+03  0.40375316902E+03  0.00000000000E+00 0.  1.
         -2   -1    0    0    0  501 -0.00000000000E+00 -0.00000000000E+00 -0.11867160468E+04  0.11867160468E+04  0.00000000000E+00 0. -1.
         23    2    1    2    0    0 -0.42225326529E+03 -0.28246209884E+02 -0.10178693381E+04  0.11064478181E+04  0.95252907120E+02 0.  0.
         11    1    3    3    0    0 -0.30922829455E+03 -0.51381370853E+02 -0.66457947904E+03  0.73479797725E+03  0.00000000000E+00 0. -1.
        -11    1    3    3    0    0 -0.11302497074E+03  0.23135160969E+02 -0.35328985906E+03  0.37164984084E+03  0.00000000000E+00 0.  1.
         22    1    1    2    0    0  0.42225326529E+03  0.28246209884E+02  0.23490646027E+03  0.48402139777E+03  0.00000000000E+00 0.  1.
<mgrwt>
<rscale>  0 0.13843993E+04</rscale>
<asrwt>0</asrwt>
<pdfrwt beam="1">  1        2 0.62115873E-01 0.13843993E+04</pdfrwt>
<pdfrwt beam="2">  1       -2 0.18257170E+00 0.13843993E+04</pdfrwt>
<totfact> 0.13331043E+01</totfact>
</mgrwt>
</event>
<event>
 6    1  0.5026615E-004  0.2782486E+04  0.7818608E-02  0.8308726E-01
         -2   -1    0    0    0  501 -0.00000000000E+00  0.00000000000E+00  0.10977212722E+04  0.10977212722E+04  0.00000000000E+00 0. -1.
          2   -1    0    0  501    0  0.00000000000E+00 -0.00000000000E+00 -0.17632504158E+04  0.17632504158E+04  0.00000000000E+00 0.  1.
         23    2    1    2    0    0  0.22617362306E+02 -0.84090878317E+03  0.80440278338E+03  0.11673545539E+04  0.89519215567E+02 0.  0.
         13    1    3    3    0    0  0.20226884588E+02 -0.25798543328E+03  0.19484432039E+03  0.32392888083E+03  0.00000000000E+00 0. -1.
        -13    1    3    3    0    0  0.23904777177E+01 -0.58292334989E+03  0.60955846299E+03  0.84342567309E+03  0.00000000000E+00 0.  1.
         22    1    1    2    0    0 -0.22617362306E+02  0.84090878317E+03 -0.14699319270E+04  0.16936171340E+04  0.00000000000E+00 0.  1.
<mgrwt>
<rscale>  0 0.27824863E+04</rscale>
<asrwt>0</asrwt>
<pdfrwt beam="1">  1        2 0.27126929E+00 0.27824863E+04</pdfrwt>
<pdfrwt beam="2">  1       -2 0.16888020E+00 0.27824863E+04</pdfrwt>
<totfact> 0.17111402E+00</totfact>
</mgrwt>
</event>
<event>
 6    1  0.5026615E-004  0.1833072E+04  0.7818608E-02  0.8688907E-01
          2   -1    0    0  501    0  0.00000000000E+00  0.00000000000E+00  0.11657859990E+04  0.11657859990E+04  0.00000000000E+00 0.  1.
         -2   -1    0    0    0  501 -0.00000000000E+00 -0.00000000000E+00 -0.72057657181E+03  0.72057657181E+03  0.00000000000E+00 0. -1.
         23    2    1    2    0    0 -0.76381258054E+03  0.13303827295E+02  0.74007665905E+03  0.10675015726E+04  0.90881770541E+02 0.  0.
         11    1    3    3    0    0 -0.20905149947E+03 -0.36707347079E+02  0.20991995919E+03  0.29852361385E+03  0.00000000000E+00 0. -1.
        -11    1    3    3    0    0 -0.55476108107E+03  0.50011174375E+02  0.53015669985E+03  0.76897795874E+03  0.00000000000E+00 0.  1.
         22    1    1    2    0    0  0.76381258054E+03 -0.13303827295E+02 -0.29486723185E+03  0.81886099823E+03  0.00000000000E+00 0. -1.
<mgrwt>
<rscale>  0 0.18330718E+04</rscale>
<asrwt>0</asrwt>
<pdfrwt beam="1">  1        2 0.17935169E+00 0.18330718E+04</pdfrwt>
<pdfrwt beam="2">  1       -2 0.11085793E+00 0.18330718E+04</pdfrwt>
<totfact> 0.12058800E+01</totfact>
</mgrwt>
</event>
<event>
 6    1  0.5026615E-004  0.3617894E+04  0.7818608E-02  0.8086405E-01
          2   -1    0    0  501    0  0.00000000000E+00  0.00000000000E+00  0.39349260622E+04  0.39349260622E+04  0.00000000000E+00 0.  1.
         -2   -1    0    0    0  501 -0.00000000000E+00 -0.00000000000E+00 -0.83160136243E+03  0.83160136243E+03  0.00000000000E+00 0. -1.
         23    2    1    2    0    0 -0.12489783744E+04 -0.95513330697E+03  0.27281569424E+04  0.31500567444E+04  0.88264245921E+02 0.  0.
         11    1    3    3    0    0 -0.97756204362E+03 -0.79173077756E+03  0.21704472396E+04  0.25086463268E+04  0.00000000000E+00 0. -1.
        -11    1    3    3    0    0 -0.27141633073E+03 -0.16340252941E+03  0.55770970281E+03  0.64141041760E+03  0.00000000000E+00 0.  1.
         22    1    1    2    0    0  0.12489783744E+04  0.95513330697E+03  0.37516775733E+03  0.16164706802E+04  0.00000000000E+00 0. -1.
<mgrwt>
<rscale>  0 0.36178943E+04</rscale>
<asrwt>0</asrwt>
<pdfrwt beam="1">  1        2 0.60537323E+00 0.36178943E+04</pdfrwt>
<pdfrwt beam="2">  1       -2 0.12793867E+00 0.36178943E+04</pdfrwt>
<totfact> 0.14159334E-01</totfact>
</mgrwt>
</event>
<event>
 6    1  0.5026615E-004  0.4520660E+03  0.7818608E-02  0.1027108E+00
         -2   -1    0    0    0  501 -0.00000000000E+00  0.00000000000E+00  0.42560275787E+02  0.42560275787E+02  0.00000000000E+00 0. -1.
          2   -1    0    0  501    0  0.00000000000E+00 -0.00000000000E+00 -0.12004368914E+04  0.12004368914E+04  0.00000000000E+00 0.  1.
         23    2    1    2    0    0  0.16945819494E+03  0.63103103286E+02 -0.93158211403E+03  0.95332962858E+03  0.91071752317E+02 0.  0.
         13    1    3    3    0    0  0.83774294200E+02  0.21939000105E+02 -0.65862025079E+03  0.66428915906E+03  0.00000000000E+00 0.  1.
        -13    1    3    3    0    0  0.85683900736E+02  0.41164103181E+02 -0.27296186324E+03  0.28904046952E+03  0.00000000000E+00 0. -1.
         22    1    1    2    0    0 -0.16945819494E+03 -0.63103103286E+02 -0.22629450157E+03  0.28966753860E+03  0.00000000000E+00 0. -1.
<mgrwt>
<rscale>  0 0.45206604E+03</rscale>
<asrwt>0</asrwt>
<pdfrwt beam="1">  1        2 0.18468258E+00 0.45206604E+03</pdfrwt>
<pdfrwt beam="2">  1       -2 0.65477353E-02 0.45206604E+03</pdfrwt>
<totfact> 0.25836505E+03</totfact>
</mgrwt>
</event>
<event>
 6    1  0.5026615E-004  0.2497175E+04  0.7818608E-02  0.8403993E-01
          2   -1    0    0  501    0  0.00000000000E+00  0.00000000000E+00  0.15394427349E+04  0.15394427349E+04  0.00000000000E+00 0.  1.
         -2   -1    0    0    0  501 -0.00000000000E+00 -0.00000000000E+00 -0.10126852512E+04  0.10126852512E+04  0.00000000000E+00 0. -1.
         23    2    1    2    0    0  0.81262935638E+03  0.41137943551E+03  0.11339903172E+04  0.14574448242E+04  0.92800135701E+02 0.  0.
         11    1    3    3    0    0  0.12153910115E+03  0.26781261314E+02  0.16438962520E+03  0.20618665801E+03  0.00000000000E+00 0.  1.
        -11    1    3    3    0    0  0.69109025524E+03  0.38459817419E+03  0.96960069203E+03  0.12512581662E+04  0.00000000000E+00 0. -1.
         22    1    1    2    0    0 -0.81262935638E+03 -0.41137943551E+03 -0.60723283354E+03  0.10946831619E+04  0.00000000000E+00 0. -1.
<mgrwt>
<rscale>  0 0.24971752E+04</rscale>
<asrwt>0</asrwt>
<pdfrwt beam="1">  1        2 0.23683734E+00 0.24971752E+04</pdfrwt>
<pdfrwt beam="2">  1       -2 0.15579773E+00 0.24971752E+04</pdfrwt>
<totfact> 0.29133673E+00</totfact>
</mgrwt>
</event>
<event>
 6    1  0.5026615E-004  0.2672036E+04  0.7818608E-02  0.8344136E-01
          2   -1    0    0  501    0  0.00000000000E+00  0.00000000000E+00  0.95911773522E+03  0.95911773522E+03  0.00000000000E+00 0. -1.
         -2   -1    0    0    0  501 -0.00000000000E+00 -0.00000000000E+00 -0.18610265008E+04  0.18610265008E+04  0.00000000000E+00 0.  1.
         23    2    1    2    0    0 -0.51136747303E+03  0.12214236647E+04 -0.27662795222E+03  0.13557848003E+04  0.90867703710E+02 0.  0.
         11    1    3    3    0    0 -0.31522945999E+03  0.74455412434E+03 -0.12362151387E+03  0.81793198691E+03  0.00000000000E+00 0.  1.
        -11    1    3    3    0    0 -0.19613801304E+03  0.47686954040E+03 -0.15300643835E+03  0.53785281342E+03  0.00000000000E+00 0. -1.
         22    1    1    2    0    0  0.51136747303E+03 -0.12214236647E+04 -0.62528081331E+03  0.14643594356E+04  0.00000000000E+00 0.  1.
<mgrwt>
<rscale>  0 0.26720356E+04</rscale>
<asrwt>0</asrwt>
<pdfrwt beam="1">  1        2 0.14755658E+00 0.26720356E+04</pdfrwt>
<pdfrwt beam="2">  1       -2 0.28631177E+00 0.26720356E+04</pdfrwt>
<totfact> 0.90740946E-01</totfact>
</mgrwt>
</event>
<event>
 6    1  0.5026615E-004  0.2792837E+04  0.7818608E-02  0.8305496E-01
          2   -1    0    0  501    0  0.00000000000E+00  0.00000000000E+00  0.16194945585E+04  0.16194945585E+04  0.00000000000E+00 0. -1.
         -2   -1    0    0    0  501 -0.00000000000E+00 -0.00000000000E+00 -0.12040702184E+04  0.12040702184E+04  0.00000000000E+00 0.  1.
         23    2    1    2    0    0  0.12569315922E+04  0.55339127556E+03 -0.39260627244E+02  0.13768936494E+04  0.90420094154E+02 0.  0.
         11    1    3    3    0    0  0.55250789594E+03  0.23293422589E+03 -0.61007720829E+02  0.60269832475E+03  0.00000000000E+00 0.  1.
        -11    1    3    3    0    0  0.70442369631E+03  0.32045704967E+03  0.21747093585E+02  0.77419532464E+03  0.00000000000E+00 0. -1.
         22    1    1    2    0    0 -0.12569315922E+04 -0.55339127556E+03  0.45468496733E+03  0.14466711274E+04  0.00000000000E+00 0. -1.
<mgrwt>
<rscale>  0 0.27928374E+04</rscale>
<asrwt>0</asrwt>
<pdfrwt beam="1">  1        2 0.24915301E+00 0.27928374E+04</pdfrwt>
<pdfrwt beam="2">  1       -2 0.18524157E+00 0.27928374E+04</pdfrwt>
<totfact> 0.15807361E+00</totfact>
</mgrwt>
</event>
<event>
 6    1  0.5026615E-004  0.5318718E+03  0.7818608E-02  0.1005779E+00
          1   -1    0    0  501    0  0.00000000000E+00  0.00000000000E+00  0.43496483994E+03  0.43496483994E+03  0.00000000000E+00 0. -1.
         -1   -1    0    0    0  501 -0.00000000000E+00 -0.00000000000E+00 -0.16259225648E+03  0.16259225648E+03  0.00000000000E+00 0.  1.
         23    2    1    2    0    0 -0.15851840733E+03  0.18194244833E+03  0.24431734786E+03  0.35462040464E+03  0.88507202825E+02 0.  0.
         13    1    3    3    0    0 -0.97634897857E+02  0.16572827420E+03  0.20069621032E+03  0.27798813461E+03  0.00000000000E+00 0. -1.
        -13    1    3    3    0    0 -0.60883509473E+02  0.16214174131E+02  0.43621137537E+02  0.76632270021E+02  0.00000000000E+00 0.  1.
         22    1    1    2    0    0  0.15851840733E+03 -0.18194244833E+03  0.28055235603E+02  0.24293669178E+03  0.00000000000E+00 0. -1.
<mgrwt>
<rscale>  0 0.53187184E+03</rscale>
<asrwt>0</asrwt>
<pdfrwt beam="1">  1        1 0.66917667E-01 0.53187184E+03</pdfrwt>
<pdfrwt beam="2">  1       -1 0.25014193E-01 0.53187184E+03</pdfrwt>
<totfact> 0.75519106E+02</totfact>
</mgrwt>
</event>
<event>
 6    1  0.5026615E-004  0.3176977E+04  0.7818608E-02  0.8194924E-01
          2   -1    0    0  501    0  0.00000000000E+00  0.00000000000E+00  0.23257544881E+04  0.23257544881E+04  0.00000000000E+00 0. -1.
         -2   -1    0    0    0  501 -0.00000000000E+00 -0.00000000000E+00 -0.10849363152E+04  0.10849363152E+04  0.00000000000E+00 0.  1.
         23    2    1    2    0    0  0.10367489076E+04  0.64232760618E+02 -0.66737801376E+03  0.12380917073E+04  0.92214519359E+02 0.  0.
         11    1    3    3    0    0  0.69047036966E+03 -0.14048318779E+00 -0.43230519003E+03  0.81463926277E+03  0.00000000000E+00 0. -1.
        -11    1    3    3    0    0  0.34627853791E+03  0.64373243806E+02 -0.23507282373E+03  0.42345244455E+03  0.00000000000E+00 0.  1.
         22    1    1    2    0    0 -0.10367489076E+04 -0.64232760618E+02  0.19081961867E+04  0.21725990959E+04  0.00000000000E+00 0. -1.
<mgrwt>
<rscale>  0 0.31769769E+04</rscale>
<asrwt>0</asrwt>
<pdfrwt beam="1">  1        2 0.35780838E+00 0.31769769E+04</pdfrwt>
<pdfrwt beam="2">  1       -2 0.16691328E+00 0.31769769E+04</pdfrwt>
<totfact> 0.82926811E-01</totfact>
</mgrwt>
</event>
<event>
 6    1  0.5026615E-004  0.5295144E+04  0.7818608E-02  0.7784524E-01
         -2   -1    0    0    0  501 -0.00000000000E+00  0.00000000000E+00  0.22274354977E+04  0.22274354977E+04  0.00000000000E+00 0. -1.
          2   -1    0    0  501    0  0.00000000000E+00 -0.00000000000E+00 -0.31469544306E+04  0.31469544306E+04  0.00000000000E+00 0.  1.
         23    2    1    2    0    0 -0.11080248919E+04 -0.61033835307E+02 -0.28987683581E+04  0.31052771992E+04  0.91892328113E+02 0.  0.
         11    1    3    3    0    0 -0.47878167364E+03  0.18232482364E+02 -0.12734365103E+04  0.13605898942E+04  0.00000000000E+00 0. -1.
        -11    1    3    3    0    0 -0.62924321825E+03 -0.79266317671E+02 -0.16253318478E+04  0.17446873051E+04  0.00000000000E+00 0.  1.
         22    1    1    2    0    0  0.11080248919E+04  0.61033835307E+02  0.19792494252E+04  0.22691127290E+04  0.00000000000E+00 0. -1.
<mgrwt>
<rscale>  0 0.52951442E+04</rscale>
<asrwt>0</asrwt>
<pdfrwt beam="1">  1        2 0.48414683E+00 0.52951442E+04</pdfrwt>
<pdfrwt beam="2">  1       -2 0.34268239E+00 0.52951442E+04</pdfrwt>
<totfact> 0.17257968E-02</totfact>
</mgrwt>
</event>
<event>
 6    1  0.5026615E-004  0.3723311E+04  0.7818608E-02  0.8062815E-01
          2   -1    0    0  501    0  0.00000000000E+00  0.00000000000E+00  0.11272967203E+04  0.11272967203E+04  0.00000000000E+00 0.  1.
         -2   -1    0    0    0  501 -0.00000000000E+00 -0.00000000000E+00 -0.30744003046E+04  0.30744003046E+04  0.00000000000E+00 0. -1.
         23    2    1    2    0    0 -0.78486863910E+03  0.11061576345E+04 -0.24113300822E+04  0.27681316324E+04  0.91850292117E+02 0.  0.
         13    1    3    3    0    0 -0.45778075720E+03  0.56779035294E+03 -0.12742369826E+04  0.14682060463E+04  0.00000000000E+00 0. -1.
        -13    1    3    3    0    0 -0.32708788190E+03  0.53836728160E+03 -0.11370930996E+04  0.12999255862E+04  0.00000000000E+00 0.  1.
         22    1    1    2    0    0  0.78486863910E+03 -0.11061576345E+04  0.46422649783E+03  0.14335653924E+04  0.00000000000E+00 0.  1.
<mgrwt>
<rscale>  0 0.37233111E+04</rscale>
<asrwt>0</asrwt>
<pdfrwt beam="1">  1        2 0.17343027E+00 0.37233111E+04</pdfrwt>
<pdfrwt beam="2">  1       -2 0.47298465E+00 0.37233111E+04</pdfrwt>
<totfact> 0.41444689E-02</totfact>
</mgrwt>
</event>
<event>
 6    1  0.5026615E-004  0.6873917E+03  0.7818608E-02  0.9739040E-01
         -2   -1    0    0    0  501 -0.00000000000E+00  0.00000000000E+00  0.31664785322E+03  0.31664785322E+03  0.00000000000E+00 0. -1.
          2   -1    0    0  501    0  0.00000000000E+00 -0.00000000000E+00 -0.37305432373E+03  0.37305432373E+03  0.00000000000E+00 0.  1.
         23    2    1    2    0    0  0.47934835934E+02  0.28931565839E+03  0.13919231176E+03  0.33719659924E+03  0.91245537954E+02 0.  0.
         13    1    3    3    0    0  0.27223640941E+02  0.28362103167E+02 -0.27619971670E+01  0.39410203634E+02  0.00000000000E+00 0. -1.
        -13    1    3    3    0    0  0.20711194993E+02  0.26095355523E+03  0.14195430892E+03  0.29778639560E+03  0.00000000000E+00 0.  1.
         22    1    1    2    0    0 -0.47934835934E+02 -0.28931565839E+03 -0.19559878227E+03  0.35250557770E+03  0.00000000000E+00 0.  1.
<mgrwt>
<rscale>  0 0.68739174E+03</rscale>
<asrwt>0</asrwt>
<pdfrwt beam="1">  1        2 0.57392973E-01 0.68739174E+03</pdfrwt>
<pdfrwt beam="2">  1       -2 0.48715054E-01 0.68739174E+03</pdfrwt>
<totfact> 0.34641346E+02</totfact>
</mgrwt>
</event>
<event>
 6    1  0.5026615E-004  0.3467833E+04  0.7818608E-02  0.8121456E-01
         -2   -1    0    0    0  501 -0.00000000000E+00  0.00000000000E+00  0.99403372610E+03  0.99403372610E+03  0.00000000000E+00 0. -1.
          2   -1    0    0  501    0  0.00000000000E+00 -0.00000000000E+00 -0.30245118736E+04  0.30245118736E+04  0.00000000000E+00 0.  1.
         23    2    1    2    0    0  0.61476366018E+03 -0.15433860658E+04 -0.44464395522E+03  0.17218425298E+04  0.84015143280E+02 0.  0.
         13    1    3    3    0    0  0.43618498554E+03 -0.11870053742E+04 -0.32635669801E+03  0.13060427996E+04  0.00000000000E+00 0. -1.
        -13    1    3    3    0    0  0.17857867464E+03 -0.35638069165E+03 -0.11828725721E+03  0.41579973020E+03  0.00000000000E+00 0.  1.
         22    1    1    2    0    0 -0.61476366018E+03  0.15433860658E+04 -0.15858341923E+04  0.22967030700E+04  0.00000000000E+00 0. -1.
<mgrwt>
<rscale>  0 0.34678332E+04</rscale>
<asrwt>0</asrwt>
<pdfrwt beam="1">  1        2 0.46530952E+00 0.34678332E+04</pdfrwt>
<pdfrwt beam="2">  1       -2 0.15292826E+00 0.34678332E+04</pdfrwt>
<totfact> 0.39370706E-01</totfact>
</mgrwt>
</event>
<event>
 6    1  0.5026615E-004  0.2791845E+04  0.7818608E-02  0.8305805E-01
          2   -1    0    0  501    0  0.00000000000E+00  0.00000000000E+00  0.33892430990E+04  0.33892430990E+04  0.00000000000E+00 0.  1.
         -2   -1    0    0    0  501 -0.00000000000E+00 -0.00000000000E+00 -0.57493657086E+03  0.57493657086E+03  0.00000000000E+00 0. -1.
         23    2    1    2    0    0  0.87314955562E+03  0.10343070178E+04  0.18834712811E+04  0.23214272811E+04  0.96847309124E+02 0.  0.
         13    1    3    3    0    0  0.49873871133E+03  0.51684544310E+03  0.98351009513E+03  0.12178512313E+04  0.00000000000E+00 0. -1.
        -13    1    3    3    0    0  0.37441084429E+03  0.51746157469E+03  0.89996118599E+03  0.11035760499E+04  0.00000000000E+00 0.  1.
         22    1    1    2    0    0 -0.87314955562E+03 -0.10343070178E+04  0.93083524700E+03  0.16427523887E+04  0.00000000000E+00 0.  1.
<mgrwt>
<rscale>  0 0.27918451E+04</rscale>
<asrwt>0</asrwt>
<pdfrwt beam="1">  1        2 0.52142200E+00 0.27918451E+04</pdfrwt>
<pdfrwt beam="2">  1       -2 0.88451782E-01 0.27918451E+04</pdfrwt>
<totfact> 0.92846659E-01</totfact>
</mgrwt>
</event>
<event>
 6    1  0.5026615E-004  0.4140636E+04  0.7818608E-02  0.7976762E-01
          2   -1    0    0  501    0  0.00000000000E+00  0.00000000000E+00  0.24025104305E+04  0.24025104305E+04  0.00000000000E+00 0.  1.
         -2   -1    0    0    0  501 -0.00000000000E+00 -0.00000000000E+00 -0.17840575049E+04  0.17840575049E+04  0.00000000000E+00 0. -1.
         23    2    1    2    0    0 -0.13809646406E+04  0.14104591794E+04  0.93719003839E+03  0.21870550491E+04  0.91794248798E+02 0.  0.
         13    1    3    3    0    0 -0.73218397755E+03  0.80875705232E+03  0.49940233539E+03  0.11998266705E+04  0.00000000000E+00 0. -1.
        -13    1    3    3    0    0 -0.64878066310E+03  0.60170212710E+03  0.43778770300E+03  0.98722837857E+03  0.00000000000E+00 0.  1.
         22    1    1    2    0    0  0.13809646406E+04 -0.14104591794E+04 -0.31873711276E+03  0.19995128863E+04  0.00000000000E+00 0.  1.
<mgrwt>
<rscale>  0 0.41406361E+04</rscale>
<asrwt>0</asrwt>
<pdfrwt beam="1">  1        2 0.36961699E+00 0.41406361E+04</pdfrwt>
<pdfrwt beam="2">  1       -2 0.27447038E+00 0.41406361E+04</pdfrwt>
<totfact> 0.14067232E-01</totfact>
</mgrwt>
</event>
<event>
 6    1  0.5026615E-004  0.1040761E+04  0.7818608E-02  0.9264935E-01
          2   -1    0    0  501    0  0.00000000000E+00  0.00000000000E+00  0.24158961161E+04  0.24158961161E+04  0.00000000000E+00 0.  1.
         -2   -1    0    0    0  501 -0.00000000000E+00 -0.00000000000E+00 -0.11208917820E+03  0.11208917820E+03  0.00000000000E+00 0. -1.
         23    2    1    2    0    0 -0.23715995629E+03  0.20719975885E+03  0.21558229891E+04  0.21800257650E+04  0.75914364210E+02 0.  0.
         13    1    3    3    0    0 -0.11201925207E+02  0.42727290260E+02  0.26373629198E+03  0.26740967852E+03  0.00000000000E+00 0. -1.
        -13    1    3    3    0    0 -0.22595803108E+03  0.16447246859E+03  0.18920866972E+04  0.19126160865E+04  0.00000000000E+00 0.  1.
         22    1    1    2    0    0  0.23715995629E+03 -0.20719975885E+03  0.14798394877E+03  0.34795952929E+03  0.00000000000E+00 0. -1.
<mgrwt>
<rscale>  0 0.10407609E+04</rscale>
<asrwt>0</asrwt>
<pdfrwt beam="1">  1        2 0.37167629E+00 0.10407609E+04</pdfrwt>
<pdfrwt beam="2">  1       -2 0.17244491E-01 0.10407609E+04</pdfrwt>
<totfact> 0.10829118E+02</totfact>
</mgrwt>
</event>
<event>
 6    1  0.5026615E-004  0.2120179E+04  0.7818608E-02  0.8552406E-01
         -2   -1    0    0    0  501 -0.00000000000E+00  0.00000000000E+00  0.38642922758E+03  0.38642922758E+03  0.00000000000E+00 0. -1.
          2   -1    0    0  501    0  0.00000000000E+00 -0.00000000000E+00 -0.29081376162E+04  0.29081376162E+04  0.00000000000E+00 0.  1.
         23    2    1    2    0    0  0.43693974709E+03 -0.51435696405E+03  0.36801992871E+01  0.68055327285E+03  0.87520193483E+02 0.  0.
         13    1    3    3    0    0  0.29364722925E+03 -0.35317107309E+03 -0.38077051137E+02  0.46087781888E+03  0.00000000000E+00 0.  1.
        -13    1    3    3    0    0  0.14329251785E+03 -0.16118589096E+03  0.41757250424E+02  0.21967545397E+03  0.00000000000E+00 0. -1.
         22    1    1    2    0    0 -0.43693974709E+03  0.51435696405E+03 -0.25253885879E+04  0.26140135709E+04  0.00000000000E+00 0.  1.
<mgrwt>
<rscale>  0 0.21201786E+04</rscale>
<asrwt>0</asrwt>
<pdfrwt beam="1">  1        2 0.44740577E+00 0.21201786E+04</pdfrwt>
<pdfrwt beam="2">  1       -2 0.59450653E-01 0.21201786E+04</pdfrwt>
<totfact> 0.48316594E+00</totfact>
</mgrwt>
</event>
<event>
 6    1  0.5026615E-004  0.8054093E+03  0.7818608E-02  0.9552220E-01
         -2   -1    0    0    0  501 -0.00000000000E+00  0.00000000000E+00  0.63384867081E+03  0.63384867081E+03  0.00000000000E+00 0. -1.
          2   -1    0    0  501    0  0.00000000000E+00 -0.00000000000E+00 -0.25585133876E+03  0.25585133876E+03  0.00000000000E+00 0.  1.
         23    2    1    2    0    0  0.26355904626E+02  0.28939436935E+03 -0.10784379610E+03  0.32358576622E+03  0.92917861686E+02 0.  0.
         11    1    3    3    0    0  0.60324959766E+02  0.21033505644E+03 -0.82939841626E+02  0.23400631202E+03  0.00000000000E+00 0.  1.
        -11    1    3    3    0    0 -0.33969055140E+02  0.79059312913E+02 -0.24903954479E+02  0.89579454196E+02  0.00000000000E+00 0. -1.
         22    1    1    2    0    0 -0.26355904626E+02 -0.28939436935E+03  0.48584112816E+03  0.56611424335E+03  0.00000000000E+00 0. -1.
<mgrwt>
<rscale>  0 0.80540929E+03</rscale>
<asrwt>0</asrwt>
<pdfrwt beam="1">  1        2 0.39361745E-01 0.80540929E+03</pdfrwt>
<pdfrwt beam="2">  1       -2 0.97515180E-01 0.80540929E+03</pdfrwt>
<totfact> 0.11576353E+02</totfact>
</mgrwt>
</event>
<event>
 6    1  0.5026615E-004  0.4071998E+04  0.7818608E-02  0.7990178E-01
         -2   -1    0    0    0  501 -0.00000000000E+00  0.00000000000E+00  0.24243393983E+04  0.24243393983E+04  0.00000000000E+00 0. -1.
          2   -1    0    0  501    0  0.00000000000E+00 -0.00000000000E+00 -0.17098648587E+04  0.17098648587E+04  0.00000000000E+00 0.  1.
         23    2    1    2    0    0  0.15437204626E+04 -0.42568447650E+03 -0.91745504308E+03  0.18478372035E+04  0.92186953561E+02 0.  0.
         13    1    3    3    0    0  0.91913234781E+03 -0.23424611174E+03 -0.49541340843E+03  0.10700981071E+04  0.00000000000E+00 0. -1.
        -13    1    3    3    0    0  0.62458811484E+03 -0.19143836476E+03 -0.42204163465E+03  0.77773909640E+03  0.00000000000E+00 0.  1.
         22    1    1    2    0    0 -0.15437204626E+04  0.42568447650E+03  0.16319295827E+04  0.22863670535E+04  0.00000000000E+00 0. -1.
<mgrwt>
<rscale>  0 0.40719984E+04</rscale>
<asrwt>0</asrwt>
<pdfrwt beam="1">  1        2 0.26305613E+00 0.40719984E+04</pdfrwt>
<pdfrwt beam="2">  1       -2 0.37297529E+00 0.40719984E+04</pdfrwt>
<totfact> 0.84359882E-02</totfact>
</mgrwt>
</event>
<event>
 6    1  0.5026615E-004  0.3190519E+04  0.7818608E-02  0.8191326E-01
          2   -1    0    0  501    0  0.00000000000E+00  0.00000000000E+00  0.32432419135E+04  0.32432419135E+04  0.00000000000E+00 0.  1.
         -2   -1    0    0    0  501 -0.00000000000E+00 -0.00000000000E+00 -0.78466314697E+03  0.78466314697E+03  0.00000000000E+00 0. -1.
         23    2    1    2    0    0  0.23177893516E+03  0.15706218777E+04  0.14090747216E+04  0.21247410377E+04  0.91969280121E+02 0.  0.
         11    1    3    3    0    0  0.12332257519E+03  0.99442075401E+03  0.83791152511E+03  0.13062070347E+04  0.00000000000E+00 0.  1.
        -11    1    3    3    0    0  0.10845635996E+03  0.57620112366E+03  0.57116319654E+03  0.81853400296E+03  0.00000000000E+00 0. -1.
         22    1    1    2    0    0 -0.23177893516E+03 -0.15706218777E+04  0.10495040448E+04  0.19031640228E+04  0.00000000000E+00 0.  1.
<mgrwt>
<rscale>  0 0.31905187E+04</rscale>
<asrwt>0</asrwt>
<pdfrwt beam="1">  1        2 0.49896029E+00 0.31905187E+04</pdfrwt>
<pdfrwt beam="2">  1       -2 0.12071741E+00 0.31905187E+04</pdfrwt>
<totfact> 0.53504922E-01</totfact>
</mgrwt>
</event>
<event>
 6    1  0.5026615E-004  0.1855704E+04  0.7818608E-02  0.8677225E-01
          2   -1    0    0  501    0  0.00000000000E+00  0.00000000000E+00  0.10291555207E+04  0.10291555207E+04  0.00000000000E+00 0.  1.
         -2   -1    0    0    0  501 -0.00000000000E+00 -0.00000000000E+00 -0.83652058560E+03  0.83652058560E+03  0.00000000000E+00 0. -1.
         23    2    1    2    0    0 -0.80337306547E+03 -0.26341102133E+03 -0.28239932992E+03  0.89590747334E+03  0.90039828834E+02 0.  0.
         13    1    3    3    0    0 -0.69047393905E+03 -0.19802411311E+03 -0.21969965740E+03  0.75115627492E+03  0.00000000000E+00 0. -1.
        -13    1    3    3    0    0 -0.11289912641E+03 -0.65386908224E+02 -0.62699672519E+02  0.14475119843E+03  0.00000000000E+00 0.  1.
         22    1    1    2    0    0  0.80337306547E+03  0.26341102133E+03  0.47503426499E+03  0.96976863292E+03  0.00000000000E+00 0.  1.
<mgrwt>
<rscale>  0 0.18557045E+04</rscale>
<asrwt>0</asrwt>
<pdfrwt beam="1">  1        2 0.15833162E+00 0.18557045E+04</pdfrwt>
<pdfrwt beam="2">  1       -2 0.12869547E+00 0.18557045E+04</pdfrwt>
<totfact> 0.10104797E+01</totfact>
</mgrwt>
</event>
<event>
 6    1  0.5026615E-004  0.3517025E+04  0.7818608E-02  0.8109767E-01
         -2   -1    0    0    0  501 -0.00000000000E+00  0.00000000000E+00  0.11373701651E+04  0.11373701651E+04  0.00000000000E+00 0. -1.
          2   -1    0    0  501    0  0.00000000000E+00 -0.00000000000E+00 -0.27188741929E+04  0.27188741929E+04  0.00000000000E+00 0.  1.
         23    2    1    2    0    0  0.62879200896E+02 -0.10859247922E+04  0.72209671025E+03  0.13087430706E+04  0.90544562062E+02 0.  0.
         11    1    3    3    0    0  0.11025162859E+02 -0.23025357865E+03  0.19880886736E+03  0.30440635742E+03  0.00000000000E+00 0. -1.
        -11    1    3    3    0    0  0.51854038037E+02 -0.85567121358E+03  0.52328784289E+03  0.10043367132E+04  0.00000000000E+00 0.  1.
         22    1    1    2    0    0 -0.62879200896E+02  0.10859247922E+04 -0.23036007381E+04  0.25475012873E+04  0.00000000000E+00 0.  1.
<mgrwt>
<rscale>  0 0.35170251E+04</rscale>
<asrwt>0</asrwt>
<pdfrwt beam="1">  1        2 0.41828833E+00 0.35170251E+04</pdfrwt>
<pdfrwt beam="2">  1       -2 0.17498003E+00 0.35170251E+04</pdfrwt>
<totfact> 0.41716992E-01</totfact>
</mgrwt>
</event>
<event>
 6    1  0.5026615E-004  0.3167354E+04  0.7818608E-02  0.8197493E-01
         -2   -1    0    0    0  501 -0.00000000000E+00  0.00000000000E+00  0.14399277465E+04  0.14399277465E+04  0.00000000000E+00 0. -1.
          2   -1    0    0  501    0  0.00000000000E+00 -0.00000000000E+00 -0.17417764640E+04  0.17417764640E+04  0.00000000000E+00 0.  1.
         23    2    1    2    0    0  0.19985118506E+03  0.86911255130E+03 -0.14640597453E+04  0.17167702200E+04  0.92368433670E+02 0.  0.
         11    1    3    3    0    0  0.51590138658E+02  0.37560753062E+03 -0.67966002545E+03  0.77825465604E+03  0.00000000000E+00 0. -1.
        -11    1    3    3    0    0  0.14826104641E+03  0.49350502068E+03 -0.78439971989E+03  0.93851556400E+03  0.00000000000E+00 0.  1.
         22    1    1    2    0    0 -0.19985118506E+03 -0.86911255130E+03  0.11622110279E+04  0.14649339905E+04  0.00000000000E+00 0. -1.
<mgrwt>
<rscale>  0 0.31673536E+04</rscale>
<asrwt>0</asrwt>
<pdfrwt beam="1">  1        2 0.26796561E+00 0.31673536E+04</pdfrwt>
<pdfrwt beam="2">  1       -2 0.22152735E+00 0.31673536E+04</pdfrwt>
<totfact> 0.75871812E-01</totfact>
</mgrwt>
</event>
<event>
 6    1  0.5026615E-004  0.2080819E+04  0.7818608E-02  0.8569740E-01
          2   -1    0    0  501    0  0.00000000000E+00  0.00000000000E+00  0.22741534552E+04  0.22741534552E+04  0.00000000000E+00 0.  1.
         -2   -1    0    0    0  501 -0.00000000000E+00 -0.00000000000E+00 -0.47597998514E+03  0.47597998514E+03  0.00000000000E+00 0. -1.
         23    2    1    2    0    0  0.50986442685E+02  0.10211604342E+04  0.11394881409E+04  0.15338955472E+04  0.95047760756E+02 0.  0.
         13    1    3    3    0    0  0.54571146604E+01  0.52885724763E+03  0.65250633786E+03  0.83993112183E+03  0.00000000000E+00 0. -1.
        -13    1    3    3    0    0  0.45529328024E+02  0.49230318658E+03  0.48698180304E+03  0.69396442540E+03  0.00000000000E+00 0.  1.
         22    1    1    2    0    0 -0.50986442685E+02 -0.10211604342E+04  0.65868532915E+03  0.12162378931E+04  0.00000000000E+00 0. -1.
<mgrwt>
<rscale>  0 0.20808186E+04</rscale>
<asrwt>0</asrwt>
<pdfrwt beam="1">  1        2 0.34986976E+00 0.20808186E+04</pdfrwt>
<pdfrwt beam="2">  1       -2 0.73227691E-01 0.20808186E+04</pdfrwt>
<totfact> 0.72870149E+00</totfact>
</mgrwt>
</event>
<event>
 6    1  0.5026615E-004  0.2679606E+04  0.7818608E-02  0.8341653E-01
          1   -1    0    0  501    0  0.00000000000E+00  0.00000000000E+00  0.19971303128E+04  0.19971303128E+04  0.00000000000E+00 0.  1.
         -1   -1    0    0    0  501 -0.00000000000E+00 -0.00000000000E+00 -0.89882567855E+03  0.89882567855E+03  0.00000000000E+00 0. -1.
         23    2    1    2    0    0 -0.22819721344E+03 -0.89846203657E+03  0.15930880404E+04  0.18451855033E+04  0.86440951057E+02 0.  0.
         11    1    3    3    0    0 -0.99906480964E+02 -0.41443548201E+03  0.64836977193E+03  0.77596484124E+03  0.00000000000E+00 0. -1.
        -11    1    3    3    0    0 -0.12829073248E+03 -0.48402655456E+03  0.94471826843E+03  0.10692206621E+04  0.00000000000E+00 0.  1.
         22    1    1    2    0    0  0.22819721344E+03  0.89846203657E+03 -0.49478340615E+03  0.10507704880E+04  0.00000000000E+00 0. -1.
<mgrwt>
<rscale>  0 0.26796059E+04</rscale>
<asrwt>0</asrwt>
<pdfrwt beam="1">  1        1 0.30725082E+00 0.26796059E+04</pdfrwt>
<pdfrwt beam="2">  1       -1 0.13828087E+00 0.26796059E+04</pdfrwt>
<totfact> 0.11333210E+00</totfact>
</mgrwt>
</event>
<event>
 6    1  0.5026615E-004  0.8279121E+04  0.7818608E-02  0.7458214E-01
         -2   -1    0    0    0  501 -0.00000000000E+00  0.00000000000E+00  0.40666018149E+04  0.40666018149E+04  0.00000000000E+00 0. -1.
          2   -1    0    0  501    0  0.00000000000E+00 -0.00000000000E+00 -0.42138283570E+04  0.42138283570E+04  0.00000000000E+00 0.  1.
         23    2    1    2    0    0  0.36860254271E+04 -0.18248486858E+04 -0.53762182149E+03  0.41489335121E+04  0.88067526049E+02 0.  0.
         11    1    3    3    0    0  0.20432039679E+04 -0.10595976671E+04 -0.29322746542E+03  0.23202180969E+04  0.00000000000E+00 0. -1.
        -11    1    3    3    0    0  0.16428214592E+04 -0.76525101875E+03 -0.24439435608E+03  0.18287154152E+04  0.00000000000E+00 0.  1.
         22    1    1    2    0    0 -0.36860254271E+04  0.18248486858E+04  0.39039527937E+03  0.41314966598E+04  0.00000000000E+00 0. -1.
<mgrwt>
<rscale>  0 0.82791212E+04</rscale>
<asrwt>0</asrwt>
<pdfrwt beam="1">  1        2 0.64828128E+00 0.82791212E+04</pdfrwt>
<pdfrwt beam="2">  1       -2 0.62563105E+00 0.82791212E+04</pdfrwt>
<totfact> 0.53836783E-05</totfact>
</mgrwt>
</event>
<event>
 6    1  0.5026615E-004  0.1290923E+04  0.7818608E-02  0.9036795E-01
         -2   -1    0    0    0  501 -0.00000000000E+00  0.00000000000E+00  0.29156609313E+03  0.29156609313E+03  0.00000000000E+00 0. -1.
          2   -1    0    0  501    0  0.00000000000E+00 -0.00000000000E+00 -0.14289054319E+04  0.14289054319E+04  0.00000000000E+00 0.  1.
         23    2    1    2    0    0 -0.60379127179E+03  0.14042606519E+03 -0.34738191113E+03  0.71632207540E+03  0.90331300554E+02 0.  0.
         11    1    3    3    0    0 -0.18277139274E+03  0.67619037201E+02 -0.70773654218E+02  0.20733216424E+03  0.00000000000E+00 0. -1.
        -11    1    3    3    0    0 -0.42101987904E+03  0.72807027994E+02 -0.27660825691E+03  0.50898991116E+03  0.00000000000E+00 0.  1.
         22    1    1    2    0    0  0.60379127179E+03 -0.14042606519E+03 -0.78995742760E+03  0.10041494496E+04  0.00000000000E+00 0.  1.
<mgrwt>
<rscale>  0 0.12909227E+04</rscale>
<asrwt>0</asrwt>
<pdfrwt beam="1">  1        2 0.21983160E+00 0.12909227E+04</pdfrwt>
<pdfrwt beam="2">  1       -2 0.44856323E-01 0.12909227E+04</pdfrwt>
<totfact> 0.64370417E+01</totfact>
</mgrwt>
</event>
<event>
 6    1  0.5026615E-004  0.2078099E+04  0.7818608E-02  0.8570953E-01
         -1   -1    0    0    0  501 -0.00000000000E+00  0.00000000000E+00  0.51748689012E+03  0.51748689012E+03  0.00000000000E+00 0. -1.
          1   -1    0    0  501    0  0.00000000000E+00 -0.00000000000E+00 -0.20862820038E+04  0.20862820038E+04  0.00000000000E+00 0.  1.
         23    2    1    2    0    0 -0.25311162868E+02  0.59273004130E+03  0.27956087794E+03  0.66253489756E+03  0.93960891737E+02 0.  0.
         13    1    3    3    0    0  0.65443313676E+01  0.37322829675E+02  0.44890657159E+02  0.58745152891E+02  0.00000000000E+00 0. -1.
        -13    1    3    3    0    0 -0.31855494236E+02  0.55540721163E+03  0.23467022078E+03  0.60378974467E+03  0.00000000000E+00 0.  1.
         22    1    1    2    0    0  0.25311162868E+02 -0.59273004130E+03 -0.18483559916E+04  0.19412339963E+04  0.00000000000E+00 0.  1.
<mgrwt>
<rscale>  0 0.20780987E+04</rscale>
<asrwt>0</asrwt>
<pdfrwt beam="1">  1        1 0.32096647E+00 0.20780987E+04</pdfrwt>
<pdfrwt beam="2">  1       -1 0.79613367E-01 0.20780987E+04</pdfrwt>
<totfact> 0.37809904E+00</totfact>
</mgrwt>
</event>
<event>
 6    1  0.5026615E-004  0.2541673E+04  0.7818608E-02  0.8388288E-01
          2   -1    0    0  501    0  0.00000000000E+00  0.00000000000E+00  0.17362657286E+04  0.17362657286E+04  0.00000000000E+00 0.  1.
         -2   -1    0    0    0  501 -0.00000000000E+00 -0.00000000000E+00 -0.93017144323E+03  0.93017144323E+03  0.00000000000E+00 0. -1.
         23    2    1    2    0    0 -0.37572644414E+03 -0.34744549826E+03  0.16226134721E+04  0.17028022216E+04  0.69081048036E+02 0.  0.
         13    1    3    3    0    0 -0.19517175413E+03 -0.13500325610E+03  0.71850115838E+03  0.75667813987E+03  0.00000000000E+00 0. -1.
        -13    1    3    3    0    0 -0.18055469002E+03 -0.21244224215E+03  0.90411231370E+03  0.94612408177E+03  0.00000000000E+00 0.  1.
         22    1    1    2    0    0  0.37572644414E+03  0.34744549826E+03 -0.81651918667E+03  0.96363495022E+03  0.00000000000E+00 0. -1.
<mgrwt>
<rscale>  0 0.25416725E+04</rscale>
<asrwt>0</asrwt>
<pdfrwt beam="1">  1        2 0.26711780E+00 0.25416725E+04</pdfrwt>
<pdfrwt beam="2">  1       -2 0.14310330E+00 0.25416725E+04</pdfrwt>
<totfact> 0.28227964E+00</totfact>
</mgrwt>
</event>
<event>
 6    1  0.5026615E-004  0.8747683E+03  0.7818608E-02  0.9457684E-01
          2   -1    0    0  501    0  0.00000000000E+00  0.00000000000E+00  0.71267593517E+03  0.71267593517E+03  0.00000000000E+00 0.  1.
         -2   -1    0    0    0  501 -0.00000000000E+00 -0.00000000000E+00 -0.26843179783E+03  0.26843179783E+03  0.00000000000E+00 0. -1.
         23    2    1    2    0    0  0.39560514706E+03  0.14255758649E+03  0.11191856484E+03  0.44513536059E+03  0.93774336834E+02 0.  0.
         13    1    3    3    0    0  0.11997321328E+03  0.71794823129E+02  0.12981652805E+01  0.13982043401E+03  0.00000000000E+00 0.  1.
        -13    1    3    3    0    0  0.27563193378E+03  0.70762763360E+02  0.11062039956E+03  0.30531492659E+03  0.00000000000E+00 0. -1.
         22    1    1    2    0    0 -0.39560514706E+03 -0.14255758649E+03  0.33232557250E+03  0.53597237241E+03  0.00000000000E+00 0.  1.
<mgrwt>
<rscale>  0 0.87476827E+03</rscale>
<asrwt>0</asrwt>
<pdfrwt beam="1">  1        2 0.10964245E+00 0.87476827E+03</pdfrwt>
<pdfrwt beam="2">  1       -2 0.41297200E-01 0.87476827E+03</pdfrwt>
<totfact> 0.22322400E+02</totfact>
</mgrwt>
</event>
<event>
 6    1  0.5026615E-004  0.1511980E+04  0.7818608E-02  0.8876525E-01
         -2   -1    0    0    0  501 -0.00000000000E+00  0.00000000000E+00  0.33172366565E+03  0.33172366565E+03  0.00000000000E+00 0. -1.
          2   -1    0    0  501    0  0.00000000000E+00 -0.00000000000E+00 -0.17228827170E+04  0.17228827170E+04  0.00000000000E+00 0.  1.
         23    2    1    2    0    0 -0.34806372228E+03 -0.40181331270E+03  0.26488181938E+02  0.54056346017E+03  0.94365977209E+02 0.  0.
         11    1    3    3    0    0 -0.55196070648E+02 -0.57801807058E+02  0.38282343413E+02  0.88618242655E+02  0.00000000000E+00 0. -1.
        -11    1    3    3    0    0 -0.29286765163E+03 -0.34401150564E+03 -0.11794161474E+02  0.45194521751E+03  0.00000000000E+00 0.  1.
         22    1    1    2    0    0  0.34806372228E+03  0.40181331270E+03 -0.14176472333E+04  0.15140429224E+04  0.00000000000E+00 0.  1.
<mgrwt>
<rscale>  0 0.15119801E+04</rscale>
<asrwt>0</asrwt>
<pdfrwt beam="1">  1        2 0.26505888E+00 0.15119801E+04</pdfrwt>
<pdfrwt beam="2">  1       -2 0.51034410E-01 0.15119801E+04</pdfrwt>
<totfact> 0.33357866E+01</totfact>
</mgrwt>
</event>
<event>
 6    1  0.5026615E-004  0.5145557E+04  0.7818608E-02  0.7806438E-01
          2   -1    0    0  501    0  0.00000000000E+00  0.00000000000E+00  0.16298933350E+04  0.16298933350E+04  0.00000000000E+00 0.  1.
         -2   -1    0    0    0  501 -0.00000000000E+00 -0.00000000000E+00 -0.40611183194E+04  0.40611183194E+04  0.00000000000E+00 0. -1.
         23    2    1    2    0    0  0.24233906528E+04 -0.80901924727E+03 -0.15434835854E+04  0.29863084932E+04  0.91446376752E+02 0.  0.
         13    1    3    3    0    0  0.13692771109E+04 -0.41441864790E+03 -0.88777535639E+03  0.16836887199E+04  0.00000000000E+00 0. -1.
        -13    1    3    3    0    0  0.10541135420E+04 -0.39460059937E+03 -0.65570822897E+03  0.13026197733E+04  0.00000000000E+00 0.  1.
         22    1    1    2    0    0 -0.24233906528E+04  0.80901924727E+03 -0.88774139902E+03  0.27047031612E+04  0.00000000000E+00 0.  1.
<mgrwt>
<rscale>  0 0.51455572E+04</rscale>
<asrwt>0</asrwt>
<pdfrwt beam="1">  1        2 0.25075282E+00 0.51455572E+04</pdfrwt>
<pdfrwt beam="2">  1       -2 0.62478743E+00 0.51455572E+04</pdfrwt>
<totfact> 0.32064024E-03</totfact>
</mgrwt>
</event>
<event>
 6    1  0.5026615E-004  0.2159694E+04  0.7818608E-02  0.8535394E-01
         -2   -1    0    0    0  501 -0.00000000000E+00  0.00000000000E+00  0.38978853137E+03  0.38978853137E+03  0.00000000000E+00 0. -1.
          2   -1    0    0  501    0  0.00000000000E+00 -0.00000000000E+00 -0.29915444087E+04  0.29915444087E+04  0.00000000000E+00 0.  1.
         23    2    1    2    0    0  0.29516494528E+03 -0.82834852117E+03 -0.22790319707E+04  0.24446182891E+04  0.94277454478E+02 0.  0.
         13    1    3    3    0    0  0.17664246127E+03 -0.36307155545E+03 -0.99992195477E+03  0.10783633104E+04  0.00000000000E+00 0.  1.
        -13    1    3    3    0    0  0.11852248402E+03 -0.46527696573E+03 -0.12791100160E+04  0.13662549788E+04  0.00000000000E+00 0. -1.
         22    1    1    2    0    0 -0.29516494528E+03  0.82834852117E+03 -0.32272390661E+03  0.93671465098E+03  0.00000000000E+00 0. -1.
<mgrwt>
<rscale>  0 0.21596941E+04</rscale>
<asrwt>0</asrwt>
<pdfrwt beam="1">  1        2 0.46023760E+00 0.21596941E+04</pdfrwt>
<pdfrwt beam="2">  1       -2 0.59967466E-01 0.21596941E+04</pdfrwt>
<totfact> 0.41970364E+00</totfact>
</mgrwt>
</event>
<event>
 6    1  0.5026615E-004  0.2682803E+04  0.7818608E-02  0.8340606E-01
         -2   -1    0    0    0  501 -0.00000000000E+00  0.00000000000E+00  0.63845026306E+03  0.63845026306E+03  0.00000000000E+00 0. -1.
          2   -1    0    0  501    0  0.00000000000E+00 -0.00000000000E+00 -0.28183217614E+04  0.28183217614E+04  0.00000000000E+00 0.  1.
         23    2    1    2    0    0  0.99085028885E+03 -0.38296672895E+02 -0.22522471760E+04  0.24625440985E+04  0.90857937796E+02 0.  0.
         11    1    3    3    0    0  0.83741170655E+03 -0.38637276605E+01 -0.18528702726E+04  0.20333227834E+04  0.00000000000E+00 0. -1.
        -11    1    3    3    0    0  0.15343858230E+03 -0.34432945235E+02 -0.39937690347E+03  0.42922131503E+03  0.00000000000E+00 0.  1.
         22    1    1    2    0    0 -0.99085028885E+03  0.38296672895E+02  0.72375677720E+02  0.99422792597E+03  0.00000000000E+00 0. -1.
<mgrwt>
<rscale>  0 0.26828032E+04</rscale>
<asrwt>0</asrwt>
<pdfrwt beam="1">  1        2 0.43358796E+00 0.26828032E+04</pdfrwt>
<pdfrwt beam="2">  1       -2 0.98223118E-01 0.26828032E+04</pdfrwt>
<totfact> 0.17059574E+00</totfact>
</mgrwt>
</event>
<event>
 6    1  0.5026615E-004  0.2037408E+04  0.7818608E-02  0.8589328E-01
          2   -1    0    0  501    0  0.00000000000E+00  0.00000000000E+00  0.23236967049E+04  0.23236967049E+04  0.00000000000E+00 0.  1.
         -2   -1    0    0    0  501 -0.00000000000E+00 -0.00000000000E+00 -0.44659777357E+03  0.44659777357E+03  0.00000000000E+00 0. -1.
         23    2    1    2    0    0 -0.86001663820E+03 -0.17929736294E+03  0.16364210775E+04  0.18594146886E+04  0.88163932503E+02 0.  0.
         13    1    3    3    0    0 -0.52359318301E+03 -0.14185749276E+03  0.10669092505E+04  0.11968996276E+04  0.00000000000E+00 0. -1.
        -13    1    3    3    0    0 -0.33642345518E+03 -0.37439870179E+02  0.56951182694E+03  0.66251506104E+03  0.00000000000E+00 0.  1.
         22    1    1    2    0    0  0.86001663820E+03  0.17929736294E+03  0.24067785389E+03  0.91087978992E+03  0.00000000000E+00 0. -1.
<mgrwt>
<rscale>  0 0.20374079E+04</rscale>
<asrwt>0</asrwt>
<pdfrwt beam="1">  1        2 0.35749179E+00 0.20374079E+04</pdfrwt>
<pdfrwt beam="2">  1       -2 0.68707351E-01 0.20374079E+04</pdfrwt>
<totfact> 0.78829108E+00</totfact>
</mgrwt>
</event>
<event>
 6    1  0.5026615E-004  0.3022606E+04  0.7818608E-02  0.8237305E-01
         -2   -1    0    0    0  501 -0.00000000000E+00  0.00000000000E+00  0.75841149951E+03  0.75841149951E+03  0.00000000000E+00 0. -1.
          2   -1    0    0  501    0  0.00000000000E+00 -0.00000000000E+00 -0.30116058502E+04  0.30116058502E+04  0.00000000000E+00 0.  1.
         23    2    1    2    0    0  0.73878213555E+03  0.22108616762E+03 -0.27467970718E+04  0.28544182105E+04  0.90172221161E+02 0.  0.
         13    1    3    3    0    0  0.28323978700E+03  0.66844512269E+02 -0.11871593790E+04  0.12223094359E+04  0.00000000000E+00 0.  1.
        -13    1    3    3    0    0  0.45554234855E+03  0.15424165536E+03 -0.15596376928E+04  0.16321087746E+04  0.00000000000E+00 0. -1.
         22    1    1    2    0    0 -0.73878213555E+03 -0.22108616762E+03  0.49360272116E+03  0.91559913917E+03  0.00000000000E+00 0. -1.
<mgrwt>
<rscale>  0 0.30226058E+04</rscale>
<asrwt>0</asrwt>
<pdfrwt beam="1">  1        2 0.46332397E+00 0.30226058E+04</pdfrwt>
<pdfrwt beam="2">  1       -2 0.11667869E+00 0.30226058E+04</pdfrwt>
<totfact> 0.83204234E-01</totfact>
</mgrwt>
</event>
<event>
 6    1  0.5026615E-004  0.1283628E+04  0.7818608E-02  0.9042650E-01
         -1   -1    0    0    0  501 -0.00000000000E+00  0.00000000000E+00  0.10192269759E+04  0.10192269759E+04  0.00000000000E+00 0.  1.
          1   -1    0    0  501    0  0.00000000000E+00 -0.00000000000E+00 -0.40415455143E+03  0.40415455143E+03  0.00000000000E+00 0. -1.
         23    2    1    2    0    0  0.24856006237E+02 -0.61741205260E+03  0.13350220760E+03  0.63997528691E+03  0.99649709890E+02 0.  0.
         11    1    3    3    0    0 -0.15743535027E+02 -0.83074046888E+02  0.48271069408E+02  0.97361451834E+02  0.00000000000E+00 0. -1.
        -11    1    3    3    0    0  0.40599541264E+02 -0.53433800571E+03  0.85231138190E+02  0.54261383508E+03  0.00000000000E+00 0.  1.
         22    1    1    2    0    0 -0.24856006237E+02  0.61741205260E+03  0.48157021686E+03  0.78340624041E+03  0.00000000000E+00 0.  1.
<mgrwt>
<rscale>  0 0.12836280E+04</rscale>
<asrwt>0</asrwt>
<pdfrwt beam="1">  1        1 0.62177624E-01 0.12836280E+04</pdfrwt>
<pdfrwt beam="2">  1       -1 0.15680415E+00 0.12836280E+04</pdfrwt>
<totfact> 0.17993247E+01</totfact>
</mgrwt>
</event>
<event>
 6    1  0.5026615E-004  0.4630135E+04  0.7818608E-02  0.7888242E-01
         -2   -1    0    0    0  501 -0.00000000000E+00  0.00000000000E+00  0.27317955971E+04  0.27317955971E+04  0.00000000000E+00 0. -1.
          2   -1    0    0  501    0  0.00000000000E+00 -0.00000000000E+00 -0.19619099694E+04  0.19619099694E+04  0.00000000000E+00 0.  1.
         23    2    1    2    0    0 -0.34113528406E+03  0.92060367171E+03  0.25090147494E+04  0.26965940262E+04  0.11216027187E+03 0.  0.
         13    1    3    3    0    0 -0.28577814414E+03  0.69222547651E+03  0.17971050877E+04  0.19469031702E+04  0.00000000000E+00 0.  1.
        -13    1    3    3    0    0 -0.55357139922E+02  0.22837819520E+03  0.71190966177E+03  0.74969085596E+03  0.00000000000E+00 0. -1.
         22    1    1    2    0    0  0.34113528406E+03 -0.92060367171E+03 -0.17391291218E+04  0.19971115404E+04  0.00000000000E+00 0.  1.
<mgrwt>
<rscale>  0 0.46301348E+04</rscale>
<asrwt>0</asrwt>
<pdfrwt beam="1">  1        2 0.30183230E+00 0.46301348E+04</pdfrwt>
<pdfrwt beam="2">  1       -2 0.42027625E+00 0.46301348E+04</pdfrwt>
<totfact> 0.28738617E-02</totfact>
</mgrwt>
</event>
<event>
 6    1  0.5026615E-004  0.1544406E+04  0.7818608E-02  0.8855449E-01
          2   -1    0    0  501    0  0.00000000000E+00  0.00000000000E+00  0.21474799776E+04  0.21474799776E+04  0.00000000000E+00 0.  1.
         -2   -1    0    0    0  501 -0.00000000000E+00 -0.00000000000E+00 -0.27767310719E+03  0.27767310719E+03  0.00000000000E+00 0. -1.
         23    2    1    2    0    0 -0.50248271544E+03 -0.14920660705E+03  0.18228151320E+04  0.18988834634E+04  0.91388792152E+02 0.  0.
         13    1    3    3    0    0 -0.17923774162E+03 -0.93784687466E+02  0.62060231381E+03  0.65273958631E+03  0.00000000000E+00 0. -1.
        -13    1    3    3    0    0 -0.32324497382E+03 -0.55421919581E+02  0.12022128182E+04  0.12461438771E+04  0.00000000000E+00 0.  1.
         22    1    1    2    0    0  0.50248271544E+03  0.14920660705E+03  0.46991738428E+02  0.52626962138E+03  0.00000000000E+00 0. -1.
<mgrwt>
<rscale>  0 0.15444060E+04</rscale>
<asrwt>0</asrwt>
<pdfrwt beam="1">  1        2 0.33038152E+00 0.15444060E+04</pdfrwt>
<pdfrwt beam="2">  1       -2 0.42718941E-01 0.15444060E+04</pdfrwt>
<totfact> 0.27668900E+01</totfact>
</mgrwt>
</event>
<event>
 6    1  0.5026615E-004  0.1750870E+04  0.7818608E-02  0.8732872E-01
          2   -1    0    0  501    0  0.00000000000E+00  0.00000000000E+00  0.13958469072E+04  0.13958469072E+04  0.00000000000E+00 0.  1.
         -2   -1    0    0    0  501 -0.00000000000E+00 -0.00000000000E+00 -0.54904765912E+03  0.54904765912E+03  0.00000000000E+00 0. -1.
         23    2    1    2    0    0 -0.29627851627E+03 -0.55576094987E+03  0.10961411947E+04  0.12675301157E+04  0.91955874127E+02 0.  0.
         13    1    3    3    0    0 -0.14029970369E+03 -0.35779016151E+03  0.64941691385E+03  0.75461257247E+03  0.00000000000E+00 0. -1.
        -13    1    3    3    0    0 -0.15597881257E+03 -0.19797078836E+03  0.44672428088E+03  0.51291754322E+03  0.00000000000E+00 0.  1.
         22    1    1    2    0    0  0.29627851627E+03  0.55576094987E+03 -0.24934194666E+03  0.67736445062E+03  0.00000000000E+00 0. -1.
<mgrwt>
<rscale>  0 0.17508700E+04</rscale>
<asrwt>0</asrwt>
<pdfrwt beam="1">  1        2 0.21474568E+00 0.17508700E+04</pdfrwt>
<pdfrwt beam="2">  1       -2 0.84468871E-01 0.17508700E+04</pdfrwt>
<totfact> 0.16855608E+01</totfact>
</mgrwt>
</event>
<event>
 6    1  0.5026615E-004  0.3303168E+04  0.7818608E-02  0.8162090E-01
         -2   -1    0    0    0  501 -0.00000000000E+00  0.00000000000E+00  0.99614174596E+03  0.99614174596E+03  0.00000000000E+00 0. -1.
          2   -1    0    0  501    0  0.00000000000E+00 -0.00000000000E+00 -0.27382939288E+04  0.27382939288E+04  0.00000000000E+00 0.  1.
         23    2    1    2    0    0 -0.13114743824E+03 -0.45176779158E+03  0.91685517564E+03  0.10341368171E+04  0.86728054329E+02 0.  0.
         13    1    3    3    0    0 -0.35902036399E+02 -0.25241046837E+03  0.43867293847E+03  0.50737949082E+03  0.00000000000E+00 0.  1.
        -13    1    3    3    0    0 -0.95245401841E+02 -0.19935732321E+03  0.47818223717E+03  0.52675732632E+03  0.00000000000E+00 0. -1.
         22    1    1    2    0    0  0.13114743824E+03  0.45176779158E+03 -0.26590073585E+04  0.27002988576E+04  0.00000000000E+00 0.  1.
<mgrwt>
<rscale>  0 0.33031675E+04</rscale>
<asrwt>0</asrwt>
<pdfrwt beam="1">  1        2 0.42127599E+00 0.33031675E+04</pdfrwt>
<pdfrwt beam="2">  1       -2 0.15325258E+00 0.33031675E+04</pdfrwt>
<totfact> 0.59500444E-01</totfact>
</mgrwt>
</event>
<event>
 6    1  0.5026615E-004  0.3392923E+04  0.7818608E-02  0.8139645E-01
          2   -1    0    0  501    0  0.00000000000E+00  0.00000000000E+00  0.35226169994E+04  0.35226169994E+04  0.00000000000E+00 0.  1.
         -2   -1    0    0    0  501 -0.00000000000E+00 -0.00000000000E+00 -0.81700100745E+03  0.81700100745E+03  0.00000000000E+00 0. -1.
         23    2    1    2    0    0 -0.88485973642E+03 -0.41742873028E+03 -0.41668253496E+03  0.10676199034E+04  0.94680648187E+02 0.  0.
         13    1    3    3    0    0 -0.30863729538E+03 -0.16487909620E+03 -0.19490707811E+03  0.40053821985E+03  0.00000000000E+00 0.  1.
        -13    1    3    3    0    0 -0.57622244105E+03 -0.25254963408E+03 -0.22177545684E+03  0.66708168353E+03  0.00000000000E+00 0. -1.
         22    1    1    2    0    0  0.88485973642E+03  0.41742873028E+03  0.31222985269E+04  0.32719981035E+04  0.00000000000E+00 0.  1.
<mgrwt>
<rscale>  0 0.33929230E+04</rscale>
<asrwt>0</asrwt>
<pdfrwt beam="1">  1        2 0.54194107E+00 0.33929230E+04</pdfrwt>
<pdfrwt beam="2">  1       -2 0.12569246E+00 0.33929230E+04</pdfrwt>
<totfact> 0.30673272E-01</totfact>
</mgrwt>
</event>
<event>
 6    1  0.5026615E-004  0.3791795E+04  0.7818608E-02  0.8047918E-01
          2   -1    0    0  501    0  0.00000000000E+00  0.00000000000E+00  0.42950758953E+04  0.42950758953E+04  0.00000000000E+00 0.  1.
         -2   -1    0    0    0  501 -0.00000000000E+00 -0.00000000000E+00 -0.83687179671E+03  0.83687179671E+03  0.00000000000E+00 0. -1.
         23    2    1    2    0    0 -0.15342429837E+03  0.70449530412E+03  0.41016462034E+04  0.41655779952E+04  0.93197677888E+02 0.  0.
         11    1    3    3    0    0 -0.24577970199E+02  0.24908499730E+02  0.22566218592E+03  0.22835921732E+03  0.00000000000E+00 0.  1.
        -11    1    3    3    0    0 -0.12884632817E+03  0.67958680439E+03  0.38759840175E+04  0.39372187778E+04  0.00000000000E+00 0. -1.
         22    1    1    2    0    0  0.15342429837E+03 -0.70449530412E+03 -0.64344210476E+03  0.96636969688E+03  0.00000000000E+00 0. -1.
<mgrwt>
<rscale>  0 0.37917953E+04</rscale>
<asrwt>0</asrwt>
<pdfrwt beam="1">  1        2 0.66078089E+00 0.37917953E+04</pdfrwt>
<pdfrwt beam="2">  1       -2 0.12874951E+00 0.37917953E+04</pdfrwt>
<totfact> 0.68093422E-02</totfact>
</mgrwt>
</event>
<event>
 6    1  0.5026615E-004  0.9761625E+03  0.7818608E-02  0.9335083E-01
         -1   -1    0    0    0  501 -0.00000000000E+00  0.00000000000E+00  0.87444143683E+02  0.87444143683E+02  0.00000000000E+00 0. -1.
          1   -1    0    0  501    0  0.00000000000E+00 -0.00000000000E+00 -0.27242913162E+04  0.27242913162E+04  0.00000000000E+00 0.  1.
         23    2    1    2    0    0  0.15764120730E+03 -0.35584807045E+02 -0.26433985298E+04  0.26499950846E+04  0.93814351055E+02 0.  0.
         13    1    3    3    0    0  0.31970326149E+02 -0.32858911320E+02 -0.12781811078E+04  0.12790030314E+04  0.00000000000E+00 0. -1.
        -13    1    3    3    0    0  0.12567088115E+03 -0.27258957250E+01 -0.13652174219E+04  0.13709920532E+04  0.00000000000E+00 0.  1.
         22    1    1    2    0    0 -0.15764120730E+03  0.35584807045E+02  0.65513572048E+01  0.16174037533E+03  0.00000000000E+00 0. -1.
<mgrwt>
<rscale>  0 0.97616253E+03</rscale>
<asrwt>0</asrwt>
<pdfrwt beam="1">  1        1 0.41912175E+00 0.97616253E+03</pdfrwt>
<pdfrwt beam="2">  1       -1 0.13452945E-01 0.97616253E+03</pdfrwt>
<totfact> 0.37871468E+01</totfact>
</mgrwt>
</event>
<event>
 6    1  0.5026615E-004  0.3457848E+04  0.7818608E-02  0.8123853E-01
          2   -1    0    0  501    0  0.00000000000E+00  0.00000000000E+00  0.34651617634E+04  0.34651617634E+04  0.00000000000E+00 0.  1.
         -2   -1    0    0    0  501 -0.00000000000E+00 -0.00000000000E+00 -0.86263762584E+03  0.86263762584E+03  0.00000000000E+00 0. -1.
         23    2    1    2    0    0  0.15200837734E+04 -0.17620746015E+03  0.29804947619E+03  0.15615189963E+04  0.88342166897E+02 0.  0.
         11    1    3    3    0    0  0.41955820638E+03 -0.61772088488E+02  0.12081523172E+03  0.44095487260E+03  0.00000000000E+00 0.  1.
        -11    1    3    3    0    0  0.11005255670E+04 -0.11443537167E+03  0.17723424446E+03  0.11205641237E+04  0.00000000000E+00 0. -1.
         22    1    1    2    0    0 -0.15200837734E+04  0.17620746015E+03  0.23044746614E+04  0.27662803929E+04  0.00000000000E+00 0.  1.
<mgrwt>
<rscale>  0 0.34578484E+04</rscale>
<asrwt>0</asrwt>
<pdfrwt beam="1">  1        2 0.53310180E+00 0.34578484E+04</pdfrwt>
<pdfrwt beam="2">  1       -2 0.13271348E+00 0.34578484E+04</pdfrwt>
<totfact> 0.29169847E-01</totfact>
</mgrwt>
</event>
<event>
 6    1  0.5026615E-004  0.5699438E+04  0.7818608E-02  0.7728827E-01
         -2   -1    0    0    0  501 -0.00000000000E+00  0.00000000000E+00  0.24297565859E+04  0.24297565859E+04  0.00000000000E+00 0. -1.
          2   -1    0    0  501    0  0.00000000000E+00 -0.00000000000E+00 -0.33422680910E+04  0.33422680910E+04  0.00000000000E+00 0.  1.
         23    2    1    2    0    0 -0.67331392167E+03 -0.15642800537E+04  0.18566403820E+04  0.25210977480E+04  0.92177130088E+02 0.  0.
         13    1    3    3    0    0 -0.24128999157E+03 -0.48008779377E+03  0.62811570080E+03  0.82657999210E+03  0.00000000000E+00 0.  1.
        -13    1    3    3    0    0 -0.43202393009E+03 -0.10841922600E+04  0.12285246812E+04  0.16945177559E+04  0.00000000000E+00 0. -1.
         22    1    1    2    0    0  0.67331392167E+03  0.15642800537E+04 -0.27691518871E+04  0.32509269289E+04  0.00000000000E+00 0.  1.
<mgrwt>
<rscale>  0 0.56994378E+04</rscale>
<asrwt>0</asrwt>
<pdfrwt beam="1">  1        2 0.51419509E+00 0.56994378E+04</pdfrwt>
<pdfrwt beam="2">  1       -2 0.37380871E+00 0.56994378E+04</pdfrwt>
<totfact> 0.78813013E-03</totfact>
</mgrwt>
</event>
<event>
 6    1  0.5026615E-004  0.2346723E+04  0.7818608E-02  0.8459723E-01
         -2   -1    0    0    0  501 -0.00000000000E+00  0.00000000000E+00  0.79962722839E+03  0.79962722839E+03  0.00000000000E+00 0. -1.
          2   -1    0    0  501    0  0.00000000000E+00 -0.00000000000E+00 -0.17217741860E+04  0.17217741860E+04  0.00000000000E+00 0.  1.
         23    2    1    2    0    0 -0.67736145050E+03  0.92591062191E+03 -0.20537848945E+03  0.11686686059E+04  0.86469485837E+02 0.  0.
         13    1    3    3    0    0 -0.39641393024E+03  0.61200085698E+03 -0.12560909010E+03  0.73990992462E+03  0.00000000000E+00 0.  1.
        -13    1    3    3    0    0 -0.28094752026E+03  0.31390976493E+03 -0.79769399357E+02  0.42875868123E+03  0.00000000000E+00 0. -1.
         22    1    1    2    0    0  0.67736145050E+03 -0.92591062191E+03 -0.71676846819E+03  0.13527328086E+04  0.00000000000E+00 0.  1.
<mgrwt>
<rscale>  0 0.23467233E+04</rscale>
<asrwt>0</asrwt>
<pdfrwt beam="1">  1        2 0.26488833E+00 0.23467233E+04</pdfrwt>
<pdfrwt beam="2">  1       -2 0.12301958E+00 0.23467233E+04</pdfrwt>
<totfact> 0.42992508E+00</totfact>
</mgrwt>
</event>
<event>
 6    1  0.5026615E-004  0.3333209E+04  0.7818608E-02  0.8154496E-01
          2   -1    0    0  501    0  0.00000000000E+00  0.00000000000E+00  0.27475757450E+04  0.27475757450E+04  0.00000000000E+00 0.  1.
         -2   -1    0    0    0  501 -0.00000000000E+00 -0.00000000000E+00 -0.10109170151E+04  0.10109170151E+04  0.00000000000E+00 0. -1.
         23    2    1    2    0    0  0.57704225097E+03 -0.14798460797E+04  0.14336010396E+04  0.21414689066E+04  0.88062240811E+02 0.  0.
         13    1    3    3    0    0  0.36806734190E+03 -0.10541885255E+04  0.10117926551E+04  0.15068216193E+04  0.00000000000E+00 0.  1.
        -13    1    3    3    0    0  0.20897490907E+03 -0.42565755423E+03  0.42180838456E+03  0.63464728738E+03  0.00000000000E+00 0. -1.
         22    1    1    2    0    0 -0.57704225097E+03  0.14798460797E+04  0.30305769029E+03  0.16170238535E+04  0.00000000000E+00 0. -1.
<mgrwt>
<rscale>  0 0.33332093E+04</rscale>
<asrwt>0</asrwt>
<pdfrwt beam="1">  1        2 0.42270396E+00 0.33332093E+04</pdfrwt>
<pdfrwt beam="2">  1       -2 0.15552570E+00 0.33332093E+04</pdfrwt>
<totfact> 0.56330819E-01</totfact>
</mgrwt>
</event>
<event>
 6    1  0.5026615E-004  0.1195567E+04  0.7818608E-02  0.9116746E-01
         -2   -1    0    0    0  501 -0.00000000000E+00  0.00000000000E+00  0.47245242949E+03  0.47245242949E+03  0.00000000000E+00 0. -1.
          2   -1    0    0  501    0  0.00000000000E+00 -0.00000000000E+00 -0.75636208955E+03  0.75636208955E+03  0.00000000000E+00 0.  1.
         23    2    1    2    0    0 -0.45554940106E+02 -0.37799995156E+03  0.32623825050E+03  0.50962074217E+03  0.91228771833E+02 0.  0.
         11    1    3    3    0    0 -0.72316591312E+02 -0.31244603204E+03  0.26752999798E+03  0.41764160728E+03  0.00000000000E+00 0. -1.
        -11    1    3    3    0    0  0.26761651206E+02 -0.65553919525E+02  0.58708252518E+02  0.91979134884E+02  0.00000000000E+00 0.  1.
         22    1    1    2    0    0  0.45554940106E+02  0.37799995156E+03 -0.61014791056E+03  0.71919377688E+03  0.00000000000E+00 0.  1.
<mgrwt>
<rscale>  0 0.11955670E+04</rscale>
<asrwt>0</asrwt>
<pdfrwt beam="1">  1        2 0.11636340E+00 0.11955670E+04</pdfrwt>
<pdfrwt beam="2">  1       -2 0.72684990E-01 0.11955670E+04</pdfrwt>
<totfact> 0.62685802E+01</totfact>
</mgrwt>
</event>
<event>
 6    1  0.5026615E-004  0.4821450E+03  0.7818608E-02  0.1018547E+00
          2   -1    0    0  501    0  0.00000000000E+00  0.00000000000E+00  0.16590778566E+04  0.16590778566E+04  0.00000000000E+00 0.  1.
         -2   -1    0    0    0  501 -0.00000000000E+00 -0.00000000000E+00 -0.35029073923E+02  0.35029073923E+02  0.00000000000E+00 0. -1.
         23    2    1    2    0    0 -0.90199219879E+02 -0.15401803293E+03  0.13620259476E+04  0.13770684158E+04  0.96671019700E+02 0.  0.
         11    1    3    3    0    0 -0.47691853759E+02 -0.17344065575E+02  0.56653190798E+03  0.56880025693E+03  0.00000000000E+00 0.  1.
        -11    1    3    3    0    0 -0.42507366121E+02 -0.13667396736E+03  0.79549403966E+03  0.80826815888E+03  0.00000000000E+00 0. -1.
         22    1    1    2    0    0  0.90199219879E+02  0.15401803293E+03  0.26202283509E+03  0.31703851476E+03  0.00000000000E+00 0.  1.
<mgrwt>
<rscale>  0 0.48214504E+03</rscale>
<asrwt>0</asrwt>
<pdfrwt beam="1">  1        2 0.25524269E+00 0.48214504E+03</pdfrwt>
<pdfrwt beam="2">  1       -2 0.53890896E-02 0.48214504E+03</pdfrwt>
<totfact> 0.19449553E+03</totfact>
</mgrwt>
</event>
<event>
 6    1  0.5026615E-004  0.5501853E+03  0.7818608E-02  0.1001451E+00
         -2   -1    0    0    0  501 -0.00000000000E+00  0.00000000000E+00  0.57269120957E+02  0.57269120957E+02  0.00000000000E+00 0. -1.
          2   -1    0    0  501    0  0.00000000000E+00 -0.00000000000E+00 -0.13214095759E+04  0.13214095759E+04  0.00000000000E+00 0.  1.
         23    2    1    2    0    0  0.22578787323E+03 -0.29490906834E+02 -0.30011258889E+03  0.38812349708E+03  0.93393820393E+02 0.  0.
         13    1    3    3    0    0  0.12386572601E+02  0.17245279797E+02 -0.65986374378E+01  0.22234407393E+02  0.00000000000E+00 0. -1.
        -13    1    3    3    0    0  0.21340130063E+03 -0.46736186631E+02 -0.29351395146E+03  0.36588908969E+03  0.00000000000E+00 0.  1.
         22    1    1    2    0    0 -0.22578787323E+03  0.29490906834E+02 -0.96402786602E+03  0.99055519975E+03  0.00000000000E+00 0.  1.
<mgrwt>
<rscale>  0 0.55018530E+03</rscale>
<asrwt>0</asrwt>
<pdfrwt beam="1">  1        2 0.20329377E+00 0.55018530E+03</pdfrwt>
<pdfrwt beam="2">  1       -2 0.88106347E-02 0.55018530E+03</pdfrwt>
<totfact> 0.13736895E+03</totfact>
</mgrwt>
</event>
<event>
 6    1  0.5026615E-004  0.4749866E+04  0.7818608E-02  0.7868295E-01
         -2   -1    0    0    0  501 -0.00000000000E+00  0.00000000000E+00  0.17312082725E+04  0.17312082725E+04  0.00000000000E+00 0. -1.
          2   -1    0    0  501    0  0.00000000000E+00 -0.00000000000E+00 -0.32580180347E+04  0.32580180347E+04  0.00000000000E+00 0.  1.
         23    2    1    2    0    0  0.13530419518E+04 -0.15357434977E+04  0.49977280134E+03  0.21089021065E+04  0.92003411348E+02 0.  0.
         13    1    3    3    0    0  0.70235698201E+03 -0.77326333088E+03  0.21058295392E+03  0.10656390991E+04  0.00000000000E+00 0. -1.
        -13    1    3    3    0    0  0.65068496980E+03 -0.76248016685E+03  0.28918984742E+03  0.10432630074E+04  0.00000000000E+00 0.  1.
         22    1    1    2    0    0 -0.13530419518E+04  0.15357434977E+04 -0.20265825635E+04  0.28803242007E+04  0.00000000000E+00 0.  1.
<mgrwt>
<rscale>  0 0.47498664E+04</rscale>
<asrwt>0</asrwt>
<pdfrwt beam="1">  1        2 0.50123353E+00 0.47498664E+04</pdfrwt>
<pdfrwt beam="2">  1       -2 0.26633974E+00 0.47498664E+04</pdfrwt>
<totfact> 0.44958701E-02</totfact>
</mgrwt>
</event>
<event>
 6    1  0.5026615E-004  0.2621979E+04  0.7818608E-02  0.8360773E-01
         -2   -1    0    0    0  501 -0.00000000000E+00  0.00000000000E+00  0.89558491002E+03  0.89558491002E+03  0.00000000000E+00 0. -1.
          2   -1    0    0  501    0  0.00000000000E+00 -0.00000000000E+00 -0.19190741306E+04  0.19190741306E+04  0.00000000000E+00 0.  1.
         23    2    1    2    0    0 -0.10199497092E+04  0.79473866276E+03 -0.29097631679E+03  0.13285627767E+04  0.92221925191E+02 0.  0.
         11    1    3    3    0    0 -0.19696076814E+03  0.12542994184E+03 -0.81209325718E+02  0.24722695865E+03  0.00000000000E+00 0. -1.
        -11    1    3    3    0    0 -0.82298894102E+03  0.66930872092E+03 -0.20976699108E+03  0.10813358181E+04  0.00000000000E+00 0.  1.
         22    1    1    2    0    0  0.10199497092E+04 -0.79473866276E+03 -0.73251290377E+03  0.14860962639E+04  0.00000000000E+00 0. -1.
<mgrwt>
<rscale>  0 0.26219793E+04</rscale>
<asrwt>0</asrwt>
<pdfrwt beam="1">  1        2 0.29524217E+00 0.26219793E+04</pdfrwt>
<pdfrwt beam="2">  1       -2 0.13778229E+00 0.26219793E+04</pdfrwt>
<totfact> 0.24496711E+00</totfact>
</mgrwt>
</event>
<event>
 6    1  0.5026615E-004  0.1180161E+04  0.7818608E-02  0.9130401E-01
         -2   -1    0    0    0  501 -0.00000000000E+00  0.00000000000E+00  0.48969085660E+03  0.48969085660E+03  0.00000000000E+00 0. -1.
          2   -1    0    0  501    0  0.00000000000E+00 -0.00000000000E+00 -0.71105006067E+03  0.71105006067E+03  0.00000000000E+00 0.  1.
         23    2    1    2    0    0 -0.26609245516E+03  0.20507635204E+03 -0.60042478992E+03  0.69423107212E+03  0.92657154551E+02 0.  0.
         11    1    3    3    0    0 -0.21415188356E+03  0.11856889465E+03 -0.46319285703E+03  0.52389620614E+03  0.00000000000E+00 0.  1.
        -11    1    3    3    0    0 -0.51940571599E+02  0.86507457389E+02 -0.13723193289E+03  0.17033486598E+03  0.00000000000E+00 0. -1.
         22    1    1    2    0    0  0.26609245516E+03 -0.20507635204E+03  0.37906558585E+03  0.50650984515E+03  0.00000000000E+00 0. -1.
<mgrwt>
<rscale>  0 0.11801605E+04</rscale>
<asrwt>0</asrwt>
<pdfrwt beam="1">  1        2 0.10939232E+00 0.11801605E+04</pdfrwt>
<pdfrwt beam="2">  1       -2 0.75337055E-01 0.11801605E+04</pdfrwt>
<totfact> 0.62771492E+01</totfact>
</mgrwt>
</event>
<event>
 6    1  0.5026615E-004  0.2504509E+04  0.7818608E-02  0.8401381E-01
         -1   -1    0    0    0  501 -0.00000000000E+00  0.00000000000E+00  0.12514941888E+04  0.12514941888E+04  0.00000000000E+00 0.  1.
          1   -1    0    0  501    0  0.00000000000E+00 -0.00000000000E+00 -0.12530149763E+04  0.12530149763E+04  0.00000000000E+00 0. -1.
         23    2    1    2    0    0  0.38117729892E+03  0.11199769651E+04 -0.40623993317E+03  0.12541323729E+04  0.90402378286E+02 0.  0.
         13    1    3    3    0    0  0.34320291031E+03  0.96899623401E+03 -0.38154479558E+03  0.10965027908E+04  0.00000000000E+00 0. -1.
        -13    1    3    3    0    0  0.37974388610E+02  0.15098073107E+03 -0.24695137590E+02  0.15762958214E+03  0.00000000000E+00 0.  1.
         22    1    1    2    0    0 -0.38117729892E+03 -0.11199769651E+04  0.40471914566E+03  0.12503767922E+04  0.00000000000E+00 0.  1.
<mgrwt>
<rscale>  0 0.25045087E+04</rscale>
<asrwt>0</asrwt>
<pdfrwt beam="1">  1        1 0.19277153E+00 0.25045087E+04</pdfrwt>
<pdfrwt beam="2">  1       -1 0.19253757E+00 0.25045087E+04</pdfrwt>
<totfact> 0.14727642E+00</totfact>
</mgrwt>
</event>
<event>
 6    1  0.5026615E-004  0.3187380E+04  0.7818608E-02  0.8192158E-01
         -2   -1    0    0    0  501 -0.00000000000E+00  0.00000000000E+00  0.87504180774E+03  0.87504180774E+03  0.00000000000E+00 0. -1.
          2   -1    0    0  501    0  0.00000000000E+00 -0.00000000000E+00 -0.29025439519E+04  0.29025439519E+04  0.00000000000E+00 0.  1.
         23    2    1    2    0    0  0.16263205269E+03 -0.15794488784E+04 -0.11580276155E+04  0.19673112224E+04  0.90429770211E+02 0.  0.
         13    1    3    3    0    0  0.48665174270E+02 -0.34809844072E+03 -0.21351843060E+03  0.41125532680E+03  0.00000000000E+00 0. -1.
        -13    1    3    3    0    0  0.11396687842E+03 -0.12313504377E+04 -0.94450918489E+03  0.15560558956E+04  0.00000000000E+00 0.  1.
         22    1    1    2    0    0 -0.16263205269E+03  0.15794488784E+04 -0.86947452863E+03  0.18102745372E+04  0.00000000000E+00 0. -1.
<mgrwt>
<rscale>  0 0.31873797E+04</rscale>
<asrwt>0</asrwt>
<pdfrwt beam="1">  1        2 0.44654523E+00 0.31873797E+04</pdfrwt>
<pdfrwt beam="2">  1       -2 0.13462181E+00 0.31873797E+04</pdfrwt>
<totfact> 0.67010112E-01</totfact>
</mgrwt>
</event>
<event>
 6    1  0.5026615E-004  0.3592772E+04  0.7818608E-02  0.8092149E-01
         -2   -1    0    0    0  501 -0.00000000000E+00  0.00000000000E+00  0.11524472307E+04  0.11524472307E+04  0.00000000000E+00 0. -1.
          2   -1    0    0  501    0  0.00000000000E+00 -0.00000000000E+00 -0.28001302610E+04  0.28001302610E+04  0.00000000000E+00 0.  1.
         23    2    1    2    0    0 -0.24319399300E+03  0.17441961783E+04 -0.12064323071E+04  0.21370704475E+04  0.10113139522E+03 0.  0.
         11    1    3    3    0    0 -0.53251082727E+02  0.74366272249E+03 -0.50970820825E+03  0.90314582443E+03  0.00000000000E+00 0. -1.
        -11    1    3    3    0    0 -0.18994291027E+03  0.10005334559E+04 -0.69672409886E+03  0.12339246231E+04  0.00000000000E+00 0.  1.
         22    1    1    2    0    0  0.24319399300E+03 -0.17441961783E+04 -0.44125072318E+03  0.18155070442E+04  0.00000000000E+00 0. -1.
<mgrwt>
<rscale>  0 0.35927718E+04</rscale>
<asrwt>0</asrwt>
<pdfrwt beam="1">  1        2 0.43078927E+00 0.35927718E+04</pdfrwt>
<pdfrwt beam="2">  1       -2 0.17729958E+00 0.35927718E+04</pdfrwt>
<totfact> 0.35683139E-01</totfact>
</mgrwt>
</event>
<event>
 6    1  0.5026615E-004  0.9276101E+03  0.7818608E-02  0.9391711E-01
         -2   -1    0    0    0  501 -0.00000000000E+00  0.00000000000E+00  0.19537884172E+03  0.19537884172E+03  0.00000000000E+00 0. -1.
          2   -1    0    0  501    0  0.00000000000E+00 -0.00000000000E+00 -0.11010155702E+04  0.11010155702E+04  0.00000000000E+00 0.  1.
         23    2    1    2    0    0 -0.22325998311E+03  0.67049820738E+01 -0.10180850563E+04  0.10463252149E+04  0.91702216980E+02 0.  0.
         11    1    3    3    0    0 -0.10012094486E+03 -0.16547624800E+02 -0.64047042427E+03  0.64846001562E+03  0.00000000000E+00 0. -1.
        -11    1    3    3    0    0 -0.12313903825E+03  0.23252606873E+02 -0.37761463203E+03  0.39786519927E+03  0.00000000000E+00 0.  1.
         22    1    1    2    0    0  0.22325998311E+03 -0.67049820738E+01  0.11244832787E+03  0.25006919699E+03  0.00000000000E+00 0. -1.
<mgrwt>
<rscale>  0 0.92761015E+03</rscale>
<asrwt>0</asrwt>
<pdfrwt beam="1">  1        2 0.16938701E+00 0.92761015E+03</pdfrwt>
<pdfrwt beam="2">  1       -2 0.30058283E-01 0.92761015E+03</pdfrwt>
<totfact> 0.22228717E+02</totfact>
</mgrwt>
</event>
<event>
 6    1  0.5026615E-004  0.1148422E+04  0.7818608E-02  0.9159241E-01
         -2   -1    0    0    0  501 -0.00000000000E+00  0.00000000000E+00  0.10003417749E+04  0.10003417749E+04  0.00000000000E+00 0. -1.
          2   -1    0    0  501    0  0.00000000000E+00 -0.00000000000E+00 -0.32960541929E+03  0.32960541929E+03  0.00000000000E+00 0.  1.
         23    2    1    2    0    0  0.51755718745E+03 -0.21519227057E+03  0.46094158676E+03  0.73145993395E+03  0.91615135100E+02 0.  0.
         13    1    3    3    0    0  0.39997637355E+03 -0.18981390388E+03  0.39976477580E+03  0.59650841861E+03  0.00000000000E+00 0. -1.
        -13    1    3    3    0    0  0.11758081390E+03 -0.25378366689E+02  0.61176810954E+02  0.13495151534E+03  0.00000000000E+00 0.  1.
         22    1    1    2    0    0 -0.51755718745E+03  0.21519227057E+03  0.20979476881E+03  0.59848726019E+03  0.00000000000E+00 0.  1.
<mgrwt>
<rscale>  0 0.11484216E+04</rscale>
<asrwt>0</asrwt>
<pdfrwt beam="1">  1        2 0.50708527E-01 0.11484216E+04</pdfrwt>
<pdfrwt beam="2">  1       -2 0.15389873E+00 0.11484216E+04</pdfrwt>
<totfact> 0.27347213E+01</totfact>
</mgrwt>
</event>
<event>
 6    1  0.5026615E-004  0.1671236E+04  0.7818608E-02  0.8777942E-01
         -2   -1    0    0    0  501 -0.00000000000E+00  0.00000000000E+00  0.24224727180E+03  0.24224727180E+03  0.00000000000E+00 0. -1.
          2   -1    0    0  501    0  0.00000000000E+00 -0.00000000000E+00 -0.28824159539E+04  0.28824159539E+04  0.00000000000E+00 0.  1.
         23    2    1    2    0    0  0.75138012264E+03  0.14921991663E+03 -0.19362521511E+04  0.20843088847E+04  0.91828437398E+02 0.  0.
         13    1    3    3    0    0  0.28727014391E+03  0.71389961093E+02 -0.63577734106E+03  0.70130841256E+03  0.00000000000E+00 0. -1.
        -13    1    3    3    0    0  0.46410997874E+03  0.77829955535E+02 -0.13004748101E+04  0.13830004722E+04  0.00000000000E+00 0.  1.
         22    1    1    2    0    0 -0.75138012264E+03 -0.14921991663E+03 -0.70391653095E+03  0.10403543410E+04  0.00000000000E+00 0.  1.
<mgrwt>
<rscale>  0 0.16712360E+04</rscale>
<asrwt>0</asrwt>
<pdfrwt beam="1">  1        2 0.44344861E+00 0.16712360E+04</pdfrwt>
<pdfrwt beam="2">  1       -2 0.37268811E-01 0.16712360E+04</pdfrwt>
<totfact> 0.13389873E+01</totfact>
</mgrwt>
</event>
<event>
 6    1  0.5026615E-004  0.2103212E+04  0.7818608E-02  0.8559830E-01
         -2   -1    0    0    0  501 -0.00000000000E+00  0.00000000000E+00  0.45129744351E+03  0.45129744351E+03  0.00000000000E+00 0. -1.
          2   -1    0    0  501    0  0.00000000000E+00 -0.00000000000E+00 -0.24504345949E+04  0.24504345949E+04  0.00000000000E+00 0.  1.
         23    2    1    2    0    0 -0.79616057400E+02 -0.84063998584E+03 -0.18618863239E+04  0.20462484956E+04  0.86590532562E+02 0.  0.
         11    1    3    3    0    0 -0.20182878960E+02 -0.61435452803E+03 -0.13674307738E+04  0.14992350569E+04  0.00000000000E+00 0. -1.
        -11    1    3    3    0    0 -0.59433178440E+02 -0.22628545781E+03 -0.49445555007E+03  0.54701343870E+03  0.00000000000E+00 0.  1.
         22    1    1    2    0    0  0.79616057400E+02  0.84063998584E+03 -0.13725082753E+03  0.85548354283E+03  0.00000000000E+00 0. -1.
<mgrwt>
<rscale>  0 0.21032117E+04</rscale>
<asrwt>0</asrwt>
<pdfrwt beam="1">  1        2 0.37698993E+00 0.21032117E+04</pdfrwt>
<pdfrwt beam="2">  1       -2 0.69430378E-01 0.21032117E+04</pdfrwt>
<totfact> 0.64848148E+00</totfact>
</mgrwt>
</event>
<event>
 6    1  0.5026615E-004  0.2842276E+04  0.7818608E-02  0.8290262E-01
          2   -1    0    0  501    0  0.00000000000E+00  0.00000000000E+00  0.12702500564E+04  0.12702500564E+04  0.00000000000E+00 0.  1.
         -2   -1    0    0    0  501 -0.00000000000E+00 -0.00000000000E+00 -0.15899495548E+04  0.15899495548E+04  0.00000000000E+00 0. -1.
         23    2    1    2    0    0  0.53849506266E+03 -0.11349734162E+04  0.50355183811E+03  0.13582394416E+04  0.11449165562E+03 0.  0.
         11    1    3    3    0    0  0.11619133019E+03 -0.33507522986E+03  0.10559419023E+03  0.37003509008E+03  0.00000000000E+00 0.  1.
        -11    1    3    3    0    0  0.42230373247E+03 -0.79989818629E+03  0.39795764788E+03  0.98820435154E+03  0.00000000000E+00 0. -1.
         22    1    1    2    0    0 -0.53849506266E+03  0.11349734162E+04 -0.82325133648E+03  0.15019601695E+04  0.00000000000E+00 0. -1.
<mgrwt>
<rscale>  0 0.28422762E+04</rscale>
<asrwt>0</asrwt>
<pdfrwt beam="1">  1        2 0.19542308E+00 0.28422762E+04</pdfrwt>
<pdfrwt beam="2">  1       -2 0.24460762E+00 0.28422762E+04</pdfrwt>
<totfact> 0.10351915E+00</totfact>
</mgrwt>
</event>
<event>
 6    1  0.5026615E-004  0.1775175E+04  0.7818608E-02  0.8719614E-01
         -2   -1    0    0    0  501 -0.00000000000E+00  0.00000000000E+00  0.73663935911E+03  0.73663935911E+03  0.00000000000E+00 0. -1.
          2   -1    0    0  501    0  0.00000000000E+00 -0.00000000000E+00 -0.10694671399E+04  0.10694671399E+04  0.00000000000E+00 0.  1.
         23    2    1    2    0    0 -0.41749317920E+03  0.58164278634E+03 -0.69648545076E+03  0.10030773673E+04  0.91996391284E+02 0.  0.
         11    1    3    3    0    0 -0.34343890380E+03  0.43730733635E+03 -0.49546896731E+03  0.74476673169E+03  0.00000000000E+00 0. -1.
        -11    1    3    3    0    0 -0.74054275402E+02  0.14433544999E+03 -0.20101648345E+03  0.25831063557E+03  0.00000000000E+00 0.  1.
         22    1    1    2    0    0  0.41749317920E+03 -0.58164278634E+03  0.36365766994E+03  0.80302913178E+03  0.00000000000E+00 0. -1.
<mgrwt>
<rscale>  0 0.17751750E+04</rscale>
<asrwt>0</asrwt>
<pdfrwt beam="1">  1        2 0.16453341E+00 0.17751750E+04</pdfrwt>
<pdfrwt beam="2">  1       -2 0.11332913E+00 0.17751750E+04</pdfrwt>
<totfact> 0.13157766E+01</totfact>
</mgrwt>
</event>
<event>
 6    1  0.5026615E-004  0.6182574E+03  0.7818608E-02  0.9868235E-01
          2   -1    0    0  501    0  0.00000000000E+00  0.00000000000E+00  0.48003395231E+03  0.48003395231E+03  0.00000000000E+00 0.  1.
         -2   -1    0    0    0  501 -0.00000000000E+00 -0.00000000000E+00 -0.19907042852E+03  0.19907042852E+03  0.00000000000E+00 0. -1.
         23    2    1    2    0    0 -0.29824775315E+03  0.45794261510E+02  0.15868629313E+03  0.35352711230E+03  0.93548077768E+02 0.  0.
         13    1    3    3    0    0 -0.70499733820E+02  0.11359540027E+02  0.86450800025E+02  0.11212935585E+03  0.00000000000E+00 0. -1.
        -13    1    3    3    0    0 -0.22774801933E+03  0.34434721483E+02  0.72235493103E+02  0.24139775645E+03  0.00000000000E+00 0.  1.
         22    1    1    2    0    0  0.29824775315E+03 -0.45794261510E+02  0.12227723066E+03  0.32557726854E+03  0.00000000000E+00 0.  1.
<mgrwt>
<rscale>  0 0.61825744E+03</rscale>
<asrwt>0</asrwt>
<pdfrwt beam="1">  1        2 0.73851377E-01 0.61825744E+03</pdfrwt>
<pdfrwt beam="2">  1       -2 0.30626220E-01 0.61825744E+03</pdfrwt>
<totfact> 0.64065789E+02</totfact>
</mgrwt>
</event>
<event>
 6    1  0.5026615E-004  0.7018358E+03  0.7818608E-02  0.9714098E-01
          2   -1    0    0  501    0  0.00000000000E+00  0.00000000000E+00  0.49504889677E+03  0.49504889677E+03  0.00000000000E+00 0.  1.
         -2   -1    0    0    0  501 -0.00000000000E+00 -0.00000000000E+00 -0.24874990538E+03  0.24874990538E+03  0.00000000000E+00 0. -1.
         23    2    1    2    0    0 -0.98952969456E+02 -0.31247853552E+03  0.97068605299E+01  0.33955832705E+03  0.88153893828E+02 0.  0.
         13    1    3    3    0    0 -0.91534388517E+02 -0.16218064745E+03 -0.15932093156E+02  0.18690890369E+03  0.00000000000E+00 0.  1.
        -13    1    3    3    0    0 -0.74185809393E+01 -0.15029788808E+03  0.25638953686E+02  0.15264942335E+03  0.00000000000E+00 0. -1.
         22    1    1    2    0    0  0.98952969456E+02  0.31247853552E+03  0.23659213086E+03  0.40424047510E+03  0.00000000000E+00 0.  1.
<mgrwt>
<rscale>  0 0.70183578E+03</rscale>
<asrwt>0</asrwt>
<pdfrwt beam="1">  1        2 0.76161369E-01 0.70183578E+03</pdfrwt>
<pdfrwt beam="2">  1       -2 0.38269216E-01 0.70183578E+03</pdfrwt>
<totfact> 0.40475771E+02</totfact>
</mgrwt>
</event>
<event>
 6    1  0.5026615E-004  0.2134325E+04  0.7818608E-02  0.8546272E-01
         -2   -1    0    0    0  501 -0.00000000000E+00  0.00000000000E+00  0.61039822596E+03  0.61039822596E+03  0.00000000000E+00 0. -1.
          2   -1    0    0  501    0  0.00000000000E+00 -0.00000000000E+00 -0.18657253964E+04  0.18657253964E+04  0.00000000000E+00 0.  1.
         23    2    1    2    0    0 -0.63995141269E+03  0.81714770367E+03 -0.35127323130E+03  0.10996855725E+04  0.92990833588E+02 0.  0.
         13    1    3    3    0    0 -0.29519344909E+03  0.42138965430E+03 -0.13426601791E+03  0.53172904445E+03  0.00000000000E+00 0. -1.
        -13    1    3    3    0    0 -0.34475796359E+03  0.39575804936E+03 -0.21700721339E+03  0.56795652805E+03  0.00000000000E+00 0.  1.
         22    1    1    2    0    0  0.63995141269E+03 -0.81714770367E+03 -0.90405393914E+03  0.13764380498E+04  0.00000000000E+00 0.  1.
<mgrwt>
<rscale>  0 0.21343247E+04</rscale>
<asrwt>0</asrwt>
<pdfrwt beam="1">  1        2 0.28703467E+00 0.21343247E+04</pdfrwt>
<pdfrwt beam="2">  1       -2 0.93907421E-01 0.21343247E+04</pdfrwt>
<totfact> 0.69808084E+00</totfact>
</mgrwt>
</event>
<event>
 6    1  0.5026615E-004  0.4695220E+04  0.7818608E-02  0.7877323E-01
         -2   -1    0    0    0  501 -0.00000000000E+00  0.00000000000E+00  0.13030788683E+04  0.13030788683E+04  0.00000000000E+00 0. -1.
          2   -1    0    0  501    0  0.00000000000E+00 -0.00000000000E+00 -0.42294235980E+04  0.42294235980E+04  0.00000000000E+00 0.  1.
         23    2    1    2    0    0  0.11163477698E+04 -0.18352134629E+04 -0.35036628256E+03  0.21784145489E+04  0.92155398930E+02 0.  0.
         11    1    3    3    0    0  0.89093539603E+03 -0.14050491975E+04 -0.29436798052E+03  0.16895507199E+04  0.00000000000E+00 0.  1.
        -11    1    3    3    0    0  0.22541237374E+03 -0.43016426541E+03 -0.55998302048E+02  0.48886382900E+03  0.00000000000E+00 0. -1.
         22    1    1    2    0    0 -0.11163477698E+04  0.18352134629E+04 -0.25759784472E+04  0.33540879174E+04  0.00000000000E+00 0. -1.
<mgrwt>
<rscale>  0 0.46952199E+04</rscale>
<asrwt>0</asrwt>
<pdfrwt beam="1">  1        2 0.65068055E+00 0.46952199E+04</pdfrwt>
<pdfrwt beam="2">  1       -2 0.20047367E+00 0.46952199E+04</pdfrwt>
<totfact> 0.21452601E-02</totfact>
</mgrwt>
</event>
<event>
 6    1  0.5026615E-004  0.6684650E+03  0.7818608E-02  0.9772735E-01
          2   -1    0    0  501    0  0.00000000000E+00  0.00000000000E+00  0.86562362901E+03  0.86562362901E+03  0.00000000000E+00 0.  1.
         -2   -1    0    0    0  501 -0.00000000000E+00 -0.00000000000E+00 -0.12905303973E+03  0.12905303973E+03  0.00000000000E+00 0. -1.
         23    2    1    2    0    0 -0.11851228190E+03 -0.27813812684E+03  0.56443033530E+03  0.64677115627E+03  0.91243337408E+02 0.  0.
         13    1    3    3    0    0 -0.57511339762E+02 -0.13948449685E+03  0.18833496485E+03  0.24131626147E+03  0.00000000000E+00 0.  1.
        -13    1    3    3    0    0 -0.61000942133E+02 -0.13865362998E+03  0.37609537045E+03  0.40545489481E+03  0.00000000000E+00 0. -1.
         22    1    1    2    0    0  0.11851228190E+03  0.27813812684E+03  0.17214025398E+03  0.34790551246E+03  0.00000000000E+00 0. -1.
<mgrwt>
<rscale>  0 0.66846499E+03</rscale>
<asrwt>0</asrwt>
<pdfrwt beam="1">  1        2 0.13317286E+00 0.66846499E+03</pdfrwt>
<pdfrwt beam="2">  1       -2 0.19854314E-01 0.66846499E+03</pdfrwt>
<totfact> 0.67329771E+02</totfact>
</mgrwt>
</event>
<event>
 6    1  0.5026615E-004  0.2182930E+04  0.7818608E-02  0.8525567E-01
         -2   -1    0    0    0  501 -0.00000000000E+00  0.00000000000E+00  0.11958231551E+04  0.11958231551E+04  0.00000000000E+00 0. -1.
          2   -1    0    0  501    0  0.00000000000E+00 -0.00000000000E+00 -0.99621422995E+03  0.99621422995E+03  0.00000000000E+00 0.  1.
         23    2    1    2    0    0  0.64424709393E+03 -0.86909574104E+03 -0.28629059132E+02  0.10863817865E+04  0.94994936242E+02 0.  0.
         11    1    3    3    0    0  0.39098033447E+03 -0.47729743311E+03  0.20065772276E+02  0.61731766280E+03  0.00000000000E+00 0. -1.
        -11    1    3    3    0    0  0.25326675947E+03 -0.39179830793E+03 -0.48694831408E+02  0.46906412371E+03  0.00000000000E+00 0.  1.
         22    1    1    2    0    0 -0.64424709393E+03  0.86909574104E+03  0.22823798429E+03  0.11056555985E+04  0.00000000000E+00 0. -1.
<mgrwt>
<rscale>  0 0.21829302E+04</rscale>
<asrwt>0</asrwt>
<pdfrwt beam="1">  1        2 0.15326373E+00 0.21829302E+04</pdfrwt>
<pdfrwt beam="2">  1       -2 0.18397279E+00 0.21829302E+04</pdfrwt>
<totfact> 0.39470798E+00</totfact>
</mgrwt>
</event>
<event>
 6    1  0.5026615E-004  0.4826390E+04  0.7818608E-02  0.7855861E-01
         -2   -1    0    0    0  501 -0.00000000000E+00  0.00000000000E+00  0.37532470572E+04  0.37532470572E+04  0.00000000000E+00 0. -1.
          2   -1    0    0  501    0  0.00000000000E+00 -0.00000000000E+00 -0.15515925887E+04  0.15515925887E+04  0.00000000000E+00 0.  1.
         23    2    1    2    0    0  0.24369266335E+03 -0.85158533389E+03 -0.13650149839E+04  0.16298274449E+04  0.92129794075E+02 0.  0.
         13    1    3    3    0    0  0.22808876244E+03 -0.66316341868E+03 -0.10886486962E+04  0.12949772921E+04  0.00000000000E+00 0. -1.
        -13    1    3    3    0    0  0.15603900915E+02 -0.18842191521E+03 -0.27636628771E+03  0.33485015281E+03  0.00000000000E+00 0.  1.
         22    1    1    2    0    0 -0.24369266335E+03  0.85158533389E+03  0.35666694524E+04  0.36750122010E+04  0.00000000000E+00 0. -1.
<mgrwt>
<rscale>  0 0.48263901E+04</rscale>
<asrwt>0</asrwt>
<pdfrwt beam="1">  1        2 0.23870655E+00 0.48263901E+04</pdfrwt>
<pdfrwt beam="2">  1       -2 0.57742262E+00 0.48263901E+04</pdfrwt>
<totfact> 0.55769263E-03</totfact>
</mgrwt>
</event>
<event>
 6    1  0.5026615E-004  0.6128651E+03  0.7818608E-02  0.9879069E-01
         -2   -1    0    0    0  501 -0.00000000000E+00  0.00000000000E+00  0.40286535456E+02  0.40286535456E+02  0.00000000000E+00 0. -1.
          2   -1    0    0  501    0  0.00000000000E+00 -0.00000000000E+00 -0.23308259487E+04  0.23308259487E+04  0.00000000000E+00 0.  1.
         23    2    1    2    0    0 -0.84470651547E+02 -0.28499602558E+03 -0.10255032227E+04  0.10716223576E+04  0.91430804516E+02 0.  0.
         13    1    3    3    0    0 -0.71600500530E+02 -0.11800081798E+03 -0.56471296657E+03  0.58133601241E+03  0.00000000000E+00 0.  1.
        -13    1    3    3    0    0 -0.12870151017E+02 -0.16699520761E+03 -0.46079025614E+03  0.49028634521E+03  0.00000000000E+00 0. -1.
         22    1    1    2    0    0  0.84470651547E+02  0.28499602558E+03 -0.12650361905E+04  0.12994901265E+04  0.00000000000E+00 0.  1.
<mgrwt>
<rscale>  0 0.61286508E+03</rscale>
<asrwt>0</asrwt>
<pdfrwt beam="1">  1        2 0.35858857E+00 0.61286508E+03</pdfrwt>
<pdfrwt beam="2">  1       -2 0.61979291E-02 0.61286508E+03</pdfrwt>
<totfact> 0.67054974E+02</totfact>
</mgrwt>
</event>
<event>
 6    1  0.5026615E-004  0.2082126E+04  0.7818608E-02  0.8569158E-01
         -2   -1    0    0    0  501 -0.00000000000E+00  0.00000000000E+00  0.70631815380E+03  0.70631815380E+03  0.00000000000E+00 0. -1.
          2   -1    0    0  501    0  0.00000000000E+00 -0.00000000000E+00 -0.15344528063E+04  0.15344528063E+04  0.00000000000E+00 0.  1.
         23    2    1    2    0    0 -0.57502582194E+01 -0.91062465026E+03  0.12379106364E+03  0.92341266099E+03  0.89979974999E+02 0.  0.
         13    1    3    3    0    0 -0.26673930743E+02 -0.16290555372E+03  0.46014757906E+02  0.17136824664E+03  0.00000000000E+00 0.  1.
        -13    1    3    3    0    0  0.20923672524E+02 -0.74771909655E+03  0.77776305738E+02  0.75204441434E+03  0.00000000000E+00 0. -1.
         22    1    1    2    0    0  0.57502582194E+01  0.91062465026E+03 -0.95192571611E+03  0.13173582991E+04  0.00000000000E+00 0.  1.
<mgrwt>
<rscale>  0 0.20821257E+04</rscale>
<asrwt>0</asrwt>
<pdfrwt beam="1">  1        2 0.23606966E+00 0.20821257E+04</pdfrwt>
<pdfrwt beam="2">  1       -2 0.10866433E+00 0.20821257E+04</pdfrwt>
<totfact> 0.75820182E+00</totfact>
</mgrwt>
</event>
<event>
 6    1  0.5026615E-004  0.4608402E+04  0.7818608E-02  0.7891929E-01
          2   -1    0    0  501    0  0.00000000000E+00  0.00000000000E+00  0.24495177356E+04  0.24495177356E+04  0.00000000000E+00 0.  1.
         -2   -1    0    0    0  501 -0.00000000000E+00 -0.00000000000E+00 -0.21675049901E+04  0.21675049901E+04  0.00000000000E+00 0. -1.
         23    2    1    2    0    0 -0.14979485998E+04 -0.68333101249E+03  0.17549356533E+04  0.24078841668E+04  0.85532061705E+02 0.  0.
         11    1    3    3    0    0 -0.83315683590E+03 -0.35116066219E+03  0.10119470709E+04  0.13570191591E+04  0.00000000000E+00 0.  1.
        -11    1    3    3    0    0 -0.66479176390E+03 -0.33217035030E+03  0.74298858233E+03  0.10508650077E+04  0.00000000000E+00 0. -1.
         22    1    1    2    0    0  0.14979485998E+04  0.68333101249E+03 -0.14729229077E+04  0.22091385589E+04  0.00000000000E+00 0. -1.
<mgrwt>
<rscale>  0 0.46084019E+04</rscale>
<asrwt>0</asrwt>
<pdfrwt beam="1">  1        2 0.37684888E+00 0.46084019E+04</pdfrwt>
<pdfrwt beam="2">  1       -2 0.33346231E+00 0.46084019E+04</pdfrwt>
<totfact> 0.55241919E-02</totfact>
</mgrwt>
</event>
<event>
 6    1  0.5026615E-004  0.3665992E+04  0.7818608E-02  0.8075541E-01
          2   -1    0    0  501    0  0.00000000000E+00  0.00000000000E+00  0.42877452852E+04  0.42877452852E+04  0.00000000000E+00 0.  1.
         -2   -1    0    0    0  501 -0.00000000000E+00 -0.00000000000E+00 -0.78359918403E+03  0.78359918403E+03  0.00000000000E+00 0. -1.
         23    2    1    2    0    0  0.10210689162E+04  0.12438039905E+04  0.54237154109E+03  0.17006266461E+04  0.91290757345E+02 0.  0.
         13    1    3    3    0    0  0.52603497716E+03  0.57456809213E+03  0.24344300655E+03  0.81615304149E+03  0.00000000000E+00 0.  1.
        -13    1    3    3    0    0  0.49503393904E+03  0.66923589838E+03  0.29892853453E+03  0.88447360460E+03  0.00000000000E+00 0. -1.
         22    1    1    2    0    0 -0.10210689162E+04 -0.12438039905E+04  0.29617745601E+04  0.33707178231E+04  0.00000000000E+00 0.  1.
<mgrwt>
<rscale>  0 0.36659917E+04</rscale>
<asrwt>0</asrwt>
<pdfrwt beam="1">  1        2 0.65965311E+00 0.36659917E+04</pdfrwt>
<pdfrwt beam="2">  1       -2 0.12055372E+00 0.36659917E+04</pdfrwt>
<totfact> 0.82428461E-02</totfact>
</mgrwt>
</event>
<event>
 6    1  0.5026615E-004  0.2652033E+04  0.7818608E-02  0.8350739E-01
         -2   -1    0    0    0  501 -0.00000000000E+00  0.00000000000E+00  0.14379220301E+04  0.14379220301E+04  0.00000000000E+00 0. -1.
          2   -1    0    0  501    0  0.00000000000E+00 -0.00000000000E+00 -0.12228198981E+04  0.12228198981E+04  0.00000000000E+00 0.  1.
         23    2    1    2    0    0 -0.37845819360E+03  0.10762349365E+04  0.78257374454E+03  0.13865612998E+04  0.92834958517E+02 0.  0.
         13    1    3    3    0    0 -0.15712666391E+03  0.32832042089E+03  0.27092794807E+03  0.45374556783E+03  0.00000000000E+00 0.  1.
        -13    1    3    3    0    0 -0.22133152969E+03  0.74791451560E+03  0.51164579647E+03  0.93281573192E+03  0.00000000000E+00 0. -1.
         22    1    1    2    0    0  0.37845819360E+03 -0.10762349365E+04 -0.56747161260E+03  0.12741806284E+04  0.00000000000E+00 0.  1.
<mgrwt>
<rscale>  0 0.26520329E+04</rscale>
<asrwt>0</asrwt>
<pdfrwt beam="1">  1        2 0.18812614E+00 0.26520329E+04</pdfrwt>
<pdfrwt beam="2">  1       -2 0.22121877E+00 0.26520329E+04</pdfrwt>
<totfact> 0.15697474E+00</totfact>
</mgrwt>
</event>
<event>
 6    1  0.5026615E-004  0.5222105E+04  0.7818608E-02  0.7795130E-01
          2   -1    0    0  501    0  0.00000000000E+00  0.00000000000E+00  0.37634922565E+04  0.37634922565E+04  0.00000000000E+00 0.  1.
         -2   -1    0    0    0  501 -0.00000000000E+00 -0.00000000000E+00 -0.18115075001E+04  0.18115075001E+04  0.00000000000E+00 0. -1.
         23    2    1    2    0    0 -0.10336685834E+03 -0.23931010044E+04  0.20835444853E+04  0.31760572632E+04  0.92547243956E+02 0.  0.
         13    1    3    3    0    0 -0.67123068437E+02 -0.17957026941E+04  0.16135197840E+04  0.24150568865E+04  0.00000000000E+00 0. -1.
        -13    1    3    3    0    0 -0.36243789906E+02 -0.59739831032E+03  0.47002470126E+03  0.76100037666E+03  0.00000000000E+00 0.  1.
         22    1    1    2    0    0  0.10336685834E+03  0.23931010044E+04 -0.13155972882E+03  0.23989424935E+04  0.00000000000E+00 0. -1.
<mgrwt>
<rscale>  0 0.52221047E+04</rscale>
<asrwt>0</asrwt>
<pdfrwt beam="1">  1        2 0.57899881E+00 0.52221047E+04</pdfrwt>
<pdfrwt beam="2">  1       -2 0.27869346E+00 0.52221047E+04</pdfrwt>
<totfact> 0.16005605E-02</totfact>
</mgrwt>
</event>
<event>
 6    1  0.5026615E-004  0.4687232E+04  0.7818608E-02  0.7878654E-01
         -2   -1    0    0    0  501 -0.00000000000E+00  0.00000000000E+00  0.22882557963E+04  0.22882557963E+04  0.00000000000E+00 0. -1.
          2   -1    0    0  501    0  0.00000000000E+00 -0.00000000000E+00 -0.24003155773E+04  0.24003155773E+04  0.00000000000E+00 0.  1.
         23    2    1    2    0    0 -0.59194141812E+03  0.12896113681E+04  0.18085946755E+04  0.23006003385E+04  0.90857547372E+02 0.  0.
         13    1    3    3    0    0 -0.22863743629E+03  0.50165329857E+03  0.63187362107E+03  0.83856745838E+03  0.00000000000E+00 0. -1.
        -13    1    3    3    0    0 -0.36330398183E+03  0.78795806952E+03  0.11767210544E+04  0.14620328801E+04  0.00000000000E+00 0.  1.
         22    1    1    2    0    0  0.59194141812E+03 -0.12896113681E+04 -0.19206544565E+04  0.23879710351E+04  0.00000000000E+00 0.  1.
<mgrwt>
<rscale>  0 0.46872320E+04</rscale>
<asrwt>0</asrwt>
<pdfrwt beam="1">  1        2 0.36927932E+00 0.46872320E+04</pdfrwt>
<pdfrwt beam="2">  1       -2 0.35203935E+00 0.46872320E+04</pdfrwt>
<totfact> 0.44797770E-02</totfact>
</mgrwt>
</event>
<event>
 6    1  0.5026615E-004  0.2444042E+04  0.7818608E-02  0.8423197E-01
         -2   -1    0    0    0  501 -0.00000000000E+00  0.00000000000E+00  0.65252461597E+03  0.65252461597E+03  0.00000000000E+00 0. -1.
          2   -1    0    0  501    0  0.00000000000E+00 -0.00000000000E+00 -0.22885493587E+04  0.22885493587E+04  0.00000000000E+00 0.  1.
         23    2    1    2    0    0  0.61452078900E+03  0.73510855101E+03 -0.17286131459E+04  0.19784769696E+04  0.90814806609E+02 0.  0.
         13    1    3    3    0    0  0.23092997550E+03  0.34412214753E+03 -0.72148246975E+03  0.83203705456E+03  0.00000000000E+00 0.  1.
        -13    1    3    3    0    0  0.38359081350E+03  0.39098640348E+03 -0.10071306761E+04  0.11464399150E+04  0.00000000000E+00 0. -1.
         22    1    1    2    0    0 -0.61452078900E+03 -0.73510855101E+03  0.92588403121E+02  0.96259700513E+03  0.00000000000E+00 0. -1.
<mgrwt>
<rscale>  0 0.24440416E+04</rscale>
<asrwt>0</asrwt>
<pdfrwt beam="1">  1        2 0.35208452E+00 0.24440416E+04</pdfrwt>
<pdfrwt beam="2">  1       -2 0.10038840E+00 0.24440416E+04</pdfrwt>
<totfact> 0.33741568E+00</totfact>
</mgrwt>
</event>
<event>
 6    1  0.5026615E-004  0.2916697E+04  0.7818608E-02  0.8267927E-01
         -2   -1    0    0    0  501 -0.00000000000E+00  0.00000000000E+00  0.10956811305E+04  0.10956811305E+04  0.00000000000E+00 0. -1.
          2   -1    0    0  501    0  0.00000000000E+00 -0.00000000000E+00 -0.19410583985E+04  0.19410583985E+04  0.00000000000E+00 0.  1.
         23    2    1    2    0    0  0.14484964690E+04  0.14822738175E+02 -0.58396868032E+03  0.15647693581E+04  0.95509109985E+02 0.  0.
         11    1    3    3    0    0  0.50321756304E+03 -0.30263154884E+02 -0.23387489994E+03  0.55573486765E+03  0.00000000000E+00 0.  1.
        -11    1    3    3    0    0  0.94527890595E+03  0.45085893059E+02 -0.35009378038E+03  0.10090344904E+04  0.00000000000E+00 0. -1.
         22    1    1    2    0    0 -0.14484964690E+04 -0.14822738175E+02 -0.26140858769E+03  0.14719701709E+04  0.00000000000E+00 0. -1.
<mgrwt>
<rscale>  0 0.29166975E+04</rscale>
<asrwt>0</asrwt>
<pdfrwt beam="1">  1        2 0.29862437E+00 0.29166975E+04</pdfrwt>
<pdfrwt beam="2">  1       -2 0.16856633E+00 0.29166975E+04</pdfrwt>
<totfact> 0.13552316E+00</totfact>
</mgrwt>
</event>
<event>
 6    1  0.5026615E-004  0.1090309E+04  0.7818608E-02  0.9214689E-01
          2   -1    0    0  501    0  0.00000000000E+00  0.00000000000E+00  0.12901115951E+04  0.12901115951E+04  0.00000000000E+00 0.  1.
         -2   -1    0    0    0  501 -0.00000000000E+00 -0.00000000000E+00 -0.23036249482E+03  0.23036249482E+03  0.00000000000E+00 0. -1.
         23    2    1    2    0    0 -0.29470273372E+03 -0.15508101306E+02  0.11663243690E+04  0.12067090657E+04  0.93509535262E+02 0.  0.
         11    1    3    3    0    0 -0.61441792837E+02  0.27558509345E+02  0.17782742892E+03  0.19015036108E+03  0.00000000000E+00 0. -1.
        -11    1    3    3    0    0 -0.23326094089E+03 -0.43066610651E+02  0.98849694007E+03  0.10165587047E+04  0.00000000000E+00 0.  1.
         22    1    1    2    0    0  0.29470273372E+03  0.15508101306E+02 -0.10657526875E+03  0.31376502415E+03  0.00000000000E+00 0. -1.
<mgrwt>
<rscale>  0 0.10903088E+04</rscale>
<asrwt>0</asrwt>
<pdfrwt beam="1">  1        2 0.19847870E+00 0.10903088E+04</pdfrwt>
<pdfrwt beam="2">  1       -2 0.35440385E-01 0.10903088E+04</pdfrwt>
<totfact> 0.12435376E+02</totfact>
</mgrwt>
</event>
<event>
 6    1  0.5026615E-004  0.3439034E+04  0.7818608E-02  0.8128392E-01
         -2   -1    0    0    0  501 -0.00000000000E+00  0.00000000000E+00  0.12867309632E+04  0.12867309632E+04  0.00000000000E+00 0. -1.
          2   -1    0    0  501    0  0.00000000000E+00 -0.00000000000E+00 -0.22978682692E+04  0.22978682692E+04  0.00000000000E+00 0.  1.
         23    2    1    2    0    0  0.11626939388E+04 -0.10544077519E+04  0.22292779974E+03  0.15879646671E+04  0.91115736794E+02 0.  0.
         11    1    3    3    0    0  0.31440696097E+03 -0.33185495159E+03  0.42003686528E+02  0.45906835622E+03  0.00000000000E+00 0. -1.
        -11    1    3    3    0    0  0.84828697778E+03 -0.72255280030E+03  0.18092411321E+03  0.11288963108E+04  0.00000000000E+00 0.  1.
         22    1    1    2    0    0 -0.11626939388E+04  0.10544077519E+04 -0.12340651057E+04  0.19966345653E+04  0.00000000000E+00 0. -1.
<mgrwt>
<rscale>  0 0.34390337E+04</rscale>
<asrwt>0</asrwt>
<pdfrwt beam="1">  1        2 0.35351819E+00 0.34390337E+04</pdfrwt>
<pdfrwt beam="2">  1       -2 0.19795861E+00 0.34390337E+04</pdfrwt>
<totfact> 0.51502304E-01</totfact>
</mgrwt>
</event>
<event>
 6    1  0.5026615E-004  0.5360287E+04  0.7818608E-02  0.7775212E-01
          2   -1    0    0  501    0  0.00000000000E+00  0.00000000000E+00  0.27881691413E+04  0.27881691413E+04  0.00000000000E+00 0.  1.
         -2   -1    0    0    0  501 -0.00000000000E+00 -0.00000000000E+00 -0.25763037077E+04  0.25763037077E+04  0.00000000000E+00 0. -1.
         23    2    1    2    0    0 -0.14940858658E+04 -0.14527812612E+04  0.17914700597E+04  0.27495126692E+04  0.87114727208E+02 0.  0.
         13    1    3    3    0    0 -0.96824475044E+03 -0.89396685980E+03  0.11644951133E+04  0.17586140884E+04  0.00000000000E+00 0. -1.
        -13    1    3    3    0    0 -0.52584111536E+03 -0.55881440142E+03  0.62697494641E+03  0.99089858072E+03  0.00000000000E+00 0.  1.
         22    1    1    2    0    0  0.14940858658E+04  0.14527812612E+04 -0.15796046262E+04  0.26149601799E+04  0.00000000000E+00 0. -1.
<mgrwt>
<rscale>  0 0.53602875E+04</rscale>
<asrwt>0</asrwt>
<pdfrwt beam="1">  1        2 0.42894910E+00 0.53602875E+04</pdfrwt>
<pdfrwt beam="2">  1       -2 0.39635441E+00 0.53602875E+04</pdfrwt>
<totfact> 0.13051686E-02</totfact>
</mgrwt>
</event>
<event>
 6    1  0.5026615E-004  0.4575489E+04  0.7818608E-02  0.7897553E-01
         -2   -1    0    0    0  501 -0.00000000000E+00  0.00000000000E+00  0.14236118146E+04  0.14236118146E+04  0.00000000000E+00 0. -1.
          2   -1    0    0  501    0  0.00000000000E+00 -0.00000000000E+00 -0.36764059991E+04  0.36764059991E+04  0.00000000000E+00 0.  1.
         23    2    1    2    0    0 -0.45867817970E+03  0.98214427494E+03  0.11175904384E+04  0.15596102728E+04  0.91557445097E+02 0.  0.
         13    1    3    3    0    0 -0.13259196333E+03  0.30811931193E+03  0.28828393847E+03  0.44229601886E+03  0.00000000000E+00 0. -1.
        -13    1    3    3    0    0 -0.32608621637E+03  0.67402496301E+03  0.82930649991E+03  0.11173142539E+04  0.00000000000E+00 0.  1.
         22    1    1    2    0    0  0.45867817970E+03 -0.98214427494E+03 -0.33703846228E+04  0.35404075408E+04  0.00000000000E+00 0.  1.
<mgrwt>
<rscale>  0 0.45754891E+04</rscale>
<asrwt>0</asrwt>
<pdfrwt beam="1">  1        2 0.56560092E+00 0.45754891E+04</pdfrwt>
<pdfrwt beam="2">  1       -2 0.21901720E+00 0.45754891E+04</pdfrwt>
<totfact> 0.45754570E-02</totfact>
</mgrwt>
</event>
<event>
 6    1  0.5026615E-004  0.3991823E+04  0.7818608E-02  0.8006198E-01
         -2   -1    0    0    0  501 -0.00000000000E+00  0.00000000000E+00  0.11942315135E+04  0.11942315135E+04  0.00000000000E+00 0. -1.
          2   -1    0    0  501    0  0.00000000000E+00 -0.00000000000E+00 -0.33357540333E+04  0.33357540333E+04  0.00000000000E+00 0.  1.
         23    2    1    2    0    0  0.78273787900E+03  0.97206973989E+02  0.10080209512E+04  0.12831791377E+04  0.91184858328E+02 0.  0.
         11    1    3    3    0    0  0.53875747594E+03  0.54142802439E+02  0.75464730570E+03  0.92880763182E+03  0.00000000000E+00 0. -1.
        -11    1    3    3    0    0  0.24398040307E+03  0.43064171550E+02  0.25337364547E+03  0.35437150587E+03  0.00000000000E+00 0.  1.
         22    1    1    2    0    0 -0.78273787900E+03 -0.97206973989E+02 -0.31495434710E+04  0.32468064091E+04  0.00000000000E+00 0.  1.
<mgrwt>
<rscale>  0 0.39918229E+04</rscale>
<asrwt>0</asrwt>
<pdfrwt beam="1">  1        2 0.51319292E+00 0.39918229E+04</pdfrwt>
<pdfrwt beam="2">  1       -2 0.18372793E+00 0.39918229E+04</pdfrwt>
<totfact> 0.14203568E-01</totfact>
</mgrwt>
</event>
<event>
 6    1  0.5026615E-004  0.1105469E+04  0.7818608E-02  0.9199878E-01
          2   -1    0    0  501    0  0.00000000000E+00  0.00000000000E+00  0.65147113439E+03  0.65147113439E+03  0.00000000000E+00 0.  1.
         -2   -1    0    0    0  501 -0.00000000000E+00 -0.00000000000E+00 -0.46896219536E+03  0.46896219536E+03  0.00000000000E+00 0. -1.
         23    2    1    2    0    0 -0.38327245892E+02  0.25830741195E+03 -0.39781195601E+03  0.48406548167E+03  0.88731850811E+02 0.  0.
         13    1    3    3    0    0 -0.33916959315E+02  0.45175405570E+02 -0.46652042732E+02  0.73263841618E+02  0.00000000000E+00 0. -1.
        -13    1    3    3    0    0 -0.44102865775E+01  0.21313200638E+03 -0.35115991328E+03  0.41080164005E+03  0.00000000000E+00 0.  1.
         22    1    1    2    0    0  0.38327245892E+02 -0.25830741195E+03  0.58032089505E+03  0.63636784808E+03  0.00000000000E+00 0.  1.
<mgrwt>
<rscale>  0 0.11054688E+04</rscale>
<asrwt>0</asrwt>
<pdfrwt beam="1">  1        2 0.10022633E+00 0.11054688E+04</pdfrwt>
<pdfrwt beam="2">  1       -2 0.72148030E-01 0.11054688E+04</pdfrwt>
<totfact> 0.77467537E+01</totfact>
</mgrwt>
</event>
<event>
 6    1  0.5026615E-004  0.4381795E+04  0.7818608E-02  0.7931664E-01
         -2   -1    0    0    0  501 -0.00000000000E+00  0.00000000000E+00  0.17832180245E+04  0.17832180245E+04  0.00000000000E+00 0. -1.
          2   -1    0    0  501    0  0.00000000000E+00 -0.00000000000E+00 -0.26917809061E+04  0.26917809061E+04  0.00000000000E+00 0.  1.
         23    2    1    2    0    0  0.19617372219E+04  0.79644557668E+03 -0.10260683574E+04  0.23544928538E+04  0.89899056060E+02 0.  0.
         11    1    3    3    0    0  0.89407328598E+03  0.41055095454E+03 -0.48551864157E+03  0.10971086903E+04  0.00000000000E+00 0. -1.
        -11    1    3    3    0    0  0.10676639359E+04  0.38589462213E+03 -0.54054971581E+03  0.12573841636E+04  0.00000000000E+00 0.  1.
         22    1    1    2    0    0 -0.19617372219E+04 -0.79644557668E+03  0.11750547576E+03  0.21205060767E+04  0.00000000000E+00 0. -1.
<mgrwt>
<rscale>  0 0.43817952E+04</rscale>
<asrwt>0</asrwt>
<pdfrwt beam="1">  1        2 0.41412014E+00 0.43817952E+04</pdfrwt>
<pdfrwt beam="2">  1       -2 0.27434123E+00 0.43817952E+04</pdfrwt>
<totfact> 0.93665143E-02</totfact>
</mgrwt>
</event>
<event>
 6    1  0.5026615E-004  0.1140620E+04  0.7818608E-02  0.9166481E-01
          2   -1    0    0  501    0  0.00000000000E+00  0.00000000000E+00  0.11337150566E+04  0.11337150566E+04  0.00000000000E+00 0.  1.
         -2   -1    0    0    0  501 -0.00000000000E+00 -0.00000000000E+00 -0.28689180326E+03  0.28689180326E+03  0.00000000000E+00 0. -1.
         23    2    1    2    0    0 -0.10347773329E+03 -0.15906568610E+03 -0.23936696927E+03  0.31796515310E+03  0.88293594483E+02 0.  0.
         13    1    3    3    0    0 -0.62431103212E+02 -0.33240659377E+02 -0.12224996113E+03  0.14123610402E+03  0.00000000000E+00 0. -1.
        -13    1    3    3    0    0 -0.41046630078E+02 -0.12582502673E+03 -0.11711700814E+03  0.17672904908E+03  0.00000000000E+00 0.  1.
         22    1    1    2    0    0  0.10347773329E+03  0.15906568610E+03  0.10861902226E+04  0.11026417067E+04  0.00000000000E+00 0.  1.
<mgrwt>
<rscale>  0 0.11406201E+04</rscale>
<asrwt>0</asrwt>
<pdfrwt beam="1">  1        2 0.17441770E+00 0.11406201E+04</pdfrwt>
<pdfrwt beam="2">  1       -2 0.44137201E-01 0.11406201E+04</pdfrwt>
<totfact> 0.10009593E+02</totfact>
</mgrwt>
</event>
<event>
 6    1  0.5034244E-004  0.1919589E+04  0.7818608E-02  0.8645167E-01
          2   -1    0    0  501    0  0.00000000000E+00  0.00000000000E+00  0.13899551801E+04  0.13899551801E+04  0.00000000000E+00 0.  1.
         -2   -1    0    0    0  501 -0.00000000000E+00 -0.00000000000E+00 -0.66275914765E+03  0.66275914765E+03  0.00000000000E+00 0. -1.
         23    2    1    2    0    0 -0.35496410470E+03 -0.51907404633E+03  0.11375477969E+04  0.13018308802E+04  0.72878454755E+02 0.  0.
         11    1    3    3    0    0 -0.13949996698E+03 -0.21102896281E+03  0.38597748801E+03  0.46148898706E+03  0.00000000000E+00 0. -1.
        -11    1    3    3    0    0 -0.21546413772E+03 -0.30804508352E+03  0.75157030887E+03  0.84034189310E+03  0.00000000000E+00 0.  1.
         22    1    1    2    0    0  0.35496410470E+03  0.51907404633E+03 -0.41035176447E+03  0.75088344755E+03  0.00000000000E+00 0. -1.
<mgrwt>
<rscale>  0 0.19195890E+04</rscale>
<asrwt>0</asrwt>
<pdfrwt beam="1">  1        2 0.21383926E+00 0.19195890E+04</pdfrwt>
<pdfrwt beam="2">  1       -2 0.10196295E+00 0.19195890E+04</pdfrwt>
<totfact> 0.10815320E+01</totfact>
</mgrwt>
</event>
<event>
 6    1  0.5026615E-004  0.3556635E+04  0.7818608E-02  0.8100498E-01
          2   -1    0    0  501    0  0.00000000000E+00  0.00000000000E+00  0.25602343460E+04  0.25602343460E+04  0.00000000000E+00 0.  1.
         -2   -1    0    0    0  501 -0.00000000000E+00 -0.00000000000E+00 -0.12352042705E+04  0.12352042705E+04  0.00000000000E+00 0. -1.
         23    2    1    2    0    0  0.10327430340E+04  0.69782076097E+03  0.20139559766E+04  0.23713140131E+04  0.11661682679E+03 0.  0.
         13    1    3    3    0    0  0.90170398074E+03  0.62135348571E+03  0.18327855947E+04  0.21350066181E+04  0.00000000000E+00 0.  1.
        -13    1    3    3    0    0  0.13103905324E+03  0.76467275262E+02  0.18117038195E+03  0.23630739505E+03  0.00000000000E+00 0. -1.
         22    1    1    2    0    0 -0.10327430340E+04 -0.69782076097E+03 -0.68892590111E+03  0.14241246034E+04  0.00000000000E+00 0. -1.
<mgrwt>
<rscale>  0 0.35566346E+04</rscale>
<asrwt>0</asrwt>
<pdfrwt beam="1">  1        2 0.39388220E+00 0.35566346E+04</pdfrwt>
<pdfrwt beam="2">  1       -2 0.19003143E+00 0.35566346E+04</pdfrwt>
<totfact> 0.40683041E-01</totfact>
</mgrwt>
</event>
<event>
 6    1  0.5026615E-004  0.2953410E+04  0.7818608E-02  0.8257162E-01
         -2   -1    0    0    0  501 -0.00000000000E+00  0.00000000000E+00  0.10602666885E+04  0.10602666885E+04  0.00000000000E+00 0. -1.
          2   -1    0    0  501    0  0.00000000000E+00 -0.00000000000E+00 -0.20567063837E+04  0.20567063837E+04  0.00000000000E+00 0.  1.
         23    2    1    2    0    0  0.22343040657E+03 -0.12983718015E+04  0.20196064898E+03  0.13360031492E+04  0.91792317020E+02 0.  0.
         13    1    3    3    0    0  0.11672729236E+03 -0.60342202665E+03  0.13873756535E+03  0.63007262682E+03  0.00000000000E+00 0. -1.
        -13    1    3    3    0    0  0.10670311422E+03 -0.69494977484E+03  0.63223083636E+02  0.70593052238E+03  0.00000000000E+00 0.  1.
         22    1    1    2    0    0 -0.22343040657E+03  0.12983718015E+04 -0.11984003442E+04  0.17809699230E+04  0.00000000000E+00 0.  1.
<mgrwt>
<rscale>  0 0.29534097E+04</rscale>
<asrwt>0</asrwt>
<pdfrwt beam="1">  1        2 0.31641636E+00 0.29534097E+04</pdfrwt>
<pdfrwt beam="2">  1       -2 0.16311795E+00 0.29534097E+04</pdfrwt>
<totfact> 0.12755849E+00</totfact>
</mgrwt>
</event>
<event>
 6    1  0.5026615E-004  0.2117490E+04  0.7818608E-02  0.8553578E-01
          2   -1    0    0  501    0  0.00000000000E+00  0.00000000000E+00  0.72848131394E+03  0.72848131394E+03  0.00000000000E+00 0.  1.
         -2   -1    0    0    0  501 -0.00000000000E+00 -0.00000000000E+00 -0.15387364171E+04  0.15387364171E+04  0.00000000000E+00 0. -1.
         23    2    1    2    0    0 -0.27438477145E+03  0.75830560237E+03  0.32542505191E+03  0.87434881978E+03  0.90939567063E+02 0.  0.
         13    1    3    3    0    0 -0.10892801761E+03  0.25346495774E+03  0.15488618285E+03  0.31638509362E+03  0.00000000000E+00 0.  1.
        -13    1    3    3    0    0 -0.16545675384E+03  0.50484064462E+03  0.17053886905E+03  0.55796372616E+03  0.00000000000E+00 0. -1.
         22    1    1    2    0    0  0.27438477145E+03 -0.75830560237E+03 -0.11356801551E+04  0.13928689113E+04  0.00000000000E+00 0. -1.
<mgrwt>
<rscale>  0 0.21174898E+04</rscale>
<asrwt>0</asrwt>
<pdfrwt beam="1">  1        2 0.11207405E+00 0.21174898E+04</pdfrwt>
<pdfrwt beam="2">  1       -2 0.23672868E+00 0.21174898E+04</pdfrwt>
<totfact> 0.27803655E+00</totfact>
</mgrwt>
</event>
<event>
 6    1  0.5026615E-004  0.2166440E+04  0.7818608E-02  0.8532528E-01
         -2   -1    0    0    0  501 -0.00000000000E+00  0.00000000000E+00  0.79569084837E+03  0.79569084837E+03  0.00000000000E+00 0. -1.
          2   -1    0    0  501    0  0.00000000000E+00 -0.00000000000E+00 -0.14746498974E+04  0.14746498974E+04  0.00000000000E+00 0.  1.
         23    2    1    2    0    0  0.26878196661E+03 -0.39926312601E+03 -0.13548180614E+04  0.14406177836E+04  0.90514250527E+02 0.  0.
         11    1    3    3    0    0  0.18719650015E+03 -0.34259024317E+03 -0.10769969225E+04  0.11455710260E+04  0.00000000000E+00 0. -1.
        -11    1    3    3    0    0  0.81585466461E+02 -0.56672882842E+02 -0.27782113885E+03  0.29504675762E+03  0.00000000000E+00 0.  1.
         22    1    1    2    0    0 -0.26878196661E+03  0.39926312601E+03  0.67585901236E+03  0.82972296217E+03  0.00000000000E+00 0. -1.
<mgrwt>
<rscale>  0 0.21664399E+04</rscale>
<asrwt>0</asrwt>
<pdfrwt beam="1">  1        2 0.22686921E+00 0.21664399E+04</pdfrwt>
<pdfrwt beam="2">  1       -2 0.12241398E+00 0.21664399E+04</pdfrwt>
<totfact> 0.60772000E+00</totfact>
</mgrwt>
</event>
<event>
 6    1  0.5026615E-004  0.3249128E+04  0.7818608E-02  0.8175962E-01
         -2   -1    0    0    0  501 -0.00000000000E+00  0.00000000000E+00  0.13722547230E+04  0.13722547230E+04  0.00000000000E+00 0. -1.
          2   -1    0    0  501    0  0.00000000000E+00 -0.00000000000E+00 -0.19232635175E+04  0.19232635175E+04  0.00000000000E+00 0.  1.
         23    2    1    2    0    0 -0.48562801559E+03 -0.13770082143E+04  0.44414854515E+03  0.15285082455E+04  0.84162549438E+02 0.  0.
         11    1    3    3    0    0 -0.36178214065E+03 -0.90840998676E+03  0.30383582568E+03  0.10239195429E+04  0.00000000000E+00 0. -1.
        -11    1    3    3    0    0 -0.12384587494E+03 -0.46859822753E+03  0.14031271947E+03  0.50458870263E+03  0.00000000000E+00 0.  1.
         22    1    1    2    0    0  0.48562801559E+03  0.13770082143E+04 -0.99515733962E+03  0.17670099950E+04  0.00000000000E+00 0.  1.
<mgrwt>
<rscale>  0 0.32491275E+04</rscale>
<asrwt>0</asrwt>
<pdfrwt beam="1">  1        2 0.29588669E+00 0.32491275E+04</pdfrwt>
<pdfrwt beam="2">  1       -2 0.21111611E+00 0.32491275E+04</pdfrwt>
<totfact> 0.69630859E-01</totfact>
</mgrwt>
</event>
<event>
 6    1  0.5026615E-004  0.2484573E+04  0.7818608E-02  0.8408502E-01
          2   -1    0    0  501    0  0.00000000000E+00  0.00000000000E+00  0.24250556514E+04  0.24250556514E+04  0.00000000000E+00 0.  1.
         -2   -1    0    0    0  501 -0.00000000000E+00 -0.00000000000E+00 -0.63638786697E+03  0.63638786697E+03  0.00000000000E+00 0. -1.
         23    2    1    2    0    0 -0.13088725061E+03  0.99498425400E+03  0.17942897446E+04  0.20578715257E+04  0.90743543402E+02 0.  0.
         11    1    3    3    0    0  0.97541997208E+01  0.16336694511E+03  0.31773350247E+03  0.35740520667E+03  0.00000000000E+00 0.  1.
        -11    1    3    3    0    0 -0.14064145033E+03  0.83161730889E+03  0.14765562421E+04  0.17004663190E+04  0.00000000000E+00 0. -1.
         22    1    1    2    0    0  0.13088725061E+03 -0.99498425400E+03 -0.56219601355E+01  0.10035719927E+04  0.00000000000E+00 0. -1.
<mgrwt>
<rscale>  0 0.24845732E+04</rscale>
<asrwt>0</asrwt>
<pdfrwt beam="1">  1        2 0.37308548E+00 0.24845732E+04</pdfrwt>
<pdfrwt beam="2">  1       -2 0.97905827E-01 0.24845732E+04</pdfrwt>
<totfact> 0.29818621E+00</totfact>
</mgrwt>
</event>
<event>
 6    1  0.5026615E-004  0.4024689E+04  0.7818608E-02  0.7999584E-01
          2   -1    0    0  501    0  0.00000000000E+00  0.00000000000E+00  0.30849205610E+04  0.30849205610E+04  0.00000000000E+00 0.  1.
         -2   -1    0    0    0  501 -0.00000000000E+00 -0.00000000000E+00 -0.13126855816E+04  0.13126855816E+04  0.00000000000E+00 0. -1.
         23    2    1    2    0    0 -0.10346828985E+02  0.18951646039E+04  0.16229079331E+04  0.24965394685E+04  0.84399204351E+02 0.  0.
         13    1    3    3    0    0 -0.23911280806E+01  0.48659975718E+03  0.36894206849E+03  0.61065808034E+03  0.00000000000E+00 0.  1.
        -13    1    3    3    0    0 -0.79557009045E+01  0.14085648467E+04  0.12539658646E+04  0.18858813882E+04  0.00000000000E+00 0. -1.
         22    1    1    2    0    0  0.10346828985E+02 -0.18951646039E+04  0.14932704624E+03  0.19010666741E+04  0.00000000000E+00 0. -1.
<mgrwt>
<rscale>  0 0.40246892E+04</rscale>
<asrwt>0</asrwt>
<pdfrwt beam="1">  1        2 0.47460316E+00 0.40246892E+04</pdfrwt>
<pdfrwt beam="2">  1       -2 0.20195163E+00 0.40246892E+04</pdfrwt>
<totfact> 0.15631353E-01</totfact>
</mgrwt>
</event>
<event>
 6    1  0.5026615E-004  0.5981315E+04  0.7818608E-02  0.7692723E-01
         -2   -1    0    0    0  501 -0.00000000000E+00  0.00000000000E+00  0.51162783906E+04  0.51162783906E+04  0.00000000000E+00 0. -1.
          2   -1    0    0  501    0  0.00000000000E+00 -0.00000000000E+00 -0.17481518978E+04  0.17481518978E+04  0.00000000000E+00 0.  1.
         23    2    1    2    0    0  0.64737887481E+03 -0.63670208790E+01  0.50344520959E+04  0.50767555524E+04  0.92731257171E+02 0.  0.
         13    1    3    3    0    0  0.31992177521E+03 -0.38383460076E+02  0.22572494670E+04  0.22801312218E+04  0.00000000000E+00 0.  1.
        -13    1    3    3    0    0  0.32745709960E+03  0.32016439197E+02  0.27772026289E+04  0.27966243306E+04  0.00000000000E+00 0. -1.
         22    1    1    2    0    0 -0.64737887481E+03  0.63670208790E+01 -0.16663256030E+04  0.17876747360E+04  0.00000000000E+00 0.  1.
<mgrwt>
<rscale>  0 0.59813148E+04</rscale>
<asrwt>0</asrwt>
<pdfrwt beam="1">  1        2 0.26894645E+00 0.59813148E+04</pdfrwt>
<pdfrwt beam="2">  1       -2 0.78711975E+00 0.59813148E+04</pdfrwt>
<totfact> 0.58349624E-04</totfact>
</mgrwt>
</event>
<event>
 6    1  0.5026615E-004  0.1938221E+04  0.7818608E-02  0.8636062E-01
          2   -1    0    0  501    0  0.00000000000E+00  0.00000000000E+00  0.54115098277E+03  0.54115098277E+03  0.00000000000E+00 0.  1.
         -2   -1    0    0    0  501 -0.00000000000E+00 -0.00000000000E+00 -0.17355146664E+04  0.17355146664E+04  0.00000000000E+00 0. -1.
         23    2    1    2    0    0  0.42126140509E+03  0.27390436388E+03  0.37155682341E+03  0.63210132804E+03  0.94935999041E+02 0.  0.
         11    1    3    3    0    0  0.28388003385E+03  0.13199044767E+03  0.24475873700E+03  0.39738670238E+03  0.00000000000E+00 0. -1.
        -11    1    3    3    0    0  0.13738137124E+03  0.14191391621E+03  0.12679808641E+03  0.23471462566E+03  0.00000000000E+00 0.  1.
         22    1    1    2    0    0 -0.42126140509E+03 -0.27390436388E+03 -0.15659205070E+04  0.16445643211E+04  0.00000000000E+00 0. -1.
<mgrwt>
<rscale>  0 0.19382213E+04</rscale>
<asrwt>0</asrwt>
<pdfrwt beam="1">  1        2 0.83253997E-01 0.19382213E+04</pdfrwt>
<pdfrwt beam="2">  1       -2 0.26700226E+00 0.19382213E+04</pdfrwt>
<totfact> 0.26496629E+00</totfact>
</mgrwt>
</event>
<event>
 6    1  0.5471080E-004  0.9857236E+03  0.7818608E-02  0.9324343E-01
         -2   -1    0    0    0  501 -0.00000000000E+00  0.00000000000E+00  0.27592607526E+03  0.27592607526E+03  0.00000000000E+00 0. -1.
          2   -1    0    0  501    0  0.00000000000E+00 -0.00000000000E+00 -0.88035443408E+03  0.88035443408E+03  0.00000000000E+00 0.  1.
         23    2    1    2    0    0 -0.14196419008E+03 -0.54258820651E+01  0.24401355317E+03  0.29602650645E+03  0.88914604699E+02 0.  0.
         11    1    3    3    0    0 -0.55772354555E+02 -0.11202433826E+02  0.17925025597E+03  0.18806037414E+03  0.00000000000E+00 0. -1.
        -11    1    3    3    0    0 -0.86191835527E+02  0.57765517610E+01  0.64763297197E+02  0.10796613231E+03  0.00000000000E+00 0.  1.
         22    1    1    2    0    0  0.14196419008E+03  0.54258820651E+01 -0.84844191199E+03  0.86025400289E+03  0.00000000000E+00 0.  1.
<mgrwt>
<rscale>  0 0.98572358E+03</rscale>
<asrwt>0</asrwt>
<pdfrwt beam="1">  1        2 0.13543914E+00 0.98572358E+03</pdfrwt>
<pdfrwt beam="2">  1       -2 0.42450166E-01 0.98572358E+03</pdfrwt>
<totfact> 0.15883107E+02</totfact>
</mgrwt>
</event>
<event>
 6    1  0.5026615E-004  0.2826196E+04  0.7818608E-02  0.8295182E-01
          2   -1    0    0  501    0  0.00000000000E+00  0.00000000000E+00  0.32336609468E+04  0.32336609468E+04  0.00000000000E+00 0.  1.
         -2   -1    0    0    0  501 -0.00000000000E+00 -0.00000000000E+00 -0.61751848464E+03  0.61751848464E+03  0.00000000000E+00 0. -1.
         23    2    1    2    0    0 -0.10286327244E+04 -0.16245096329E+03  0.26072478159E+04  0.28097598657E+04  0.11195415343E+03 0.  0.
         11    1    3    3    0    0 -0.73772290860E+03 -0.70489048682E+02  0.17845175820E+04  0.19322802065E+04  0.00000000000E+00 0.  1.
        -11    1    3    3    0    0 -0.29090981577E+03 -0.91961914611E+02  0.82273023390E+03  0.87747965927E+03  0.00000000000E+00 0. -1.
         22    1    1    2    0    0  0.10286327244E+04  0.16245096329E+03  0.88946462802E+01  0.10414195657E+04  0.00000000000E+00 0. -1.
<mgrwt>
<rscale>  0 0.28261956E+04</rscale>
<asrwt>0</asrwt>
<pdfrwt beam="1">  1        2 0.49748629E+00 0.28261956E+04</pdfrwt>
<pdfrwt beam="2">  1       -2 0.95002846E-01 0.28261956E+04</pdfrwt>
<totfact> 0.99694208E-01</totfact>
</mgrwt>
</event>
<event>
 6    1  0.5026615E-004  0.2303227E+04  0.7818608E-02  0.8476650E-01
         -2   -1    0    0    0  501 -0.00000000000E+00  0.00000000000E+00  0.36032235868E+03  0.36032235868E+03  0.00000000000E+00 0. -1.
          2   -1    0    0  501    0  0.00000000000E+00 -0.00000000000E+00 -0.36806297042E+04  0.36806297042E+04  0.00000000000E+00 0.  1.
         23    2    1    2    0    0 -0.59340245719E+03 -0.59719452701E+03 -0.28888727313E+03  0.89479958174E+03  0.91883924673E+02 0.  0.
         13    1    3    3    0    0 -0.22399650758E+03 -0.28219639962E+03 -0.10038447109E+03  0.37401375029E+03  0.00000000000E+00 0.  1.
        -13    1    3    3    0    0 -0.36940594960E+03 -0.31499812739E+03 -0.18850280204E+03  0.52078583145E+03  0.00000000000E+00 0. -1.
         22    1    1    2    0    0  0.59340245719E+03  0.59719452701E+03 -0.30314200724E+04  0.31461524812E+04  0.00000000000E+00 0.  1.
<mgrwt>
<rscale>  0 0.23032266E+04</rscale>
<asrwt>0</asrwt>
<pdfrwt beam="1">  1        2 0.56625072E+00 0.23032266E+04</pdfrwt>
<pdfrwt beam="2">  1       -2 0.55434209E-01 0.23032266E+04</pdfrwt>
<totfact> 0.16782678E+00</totfact>
</mgrwt>
</event>
<event>
 6    1  0.5026615E-004  0.2260283E+04  0.7818608E-02  0.8493748E-01
         -2   -1    0    0    0  501 -0.00000000000E+00  0.00000000000E+00  0.31136509917E+03  0.31136509917E+03  0.00000000000E+00 0. -1.
          2   -1    0    0  501    0  0.00000000000E+00 -0.00000000000E+00 -0.41020014400E+04  0.41020014400E+04  0.00000000000E+00 0.  1.
         23    2    1    2    0    0 -0.60665613070E+03  0.93008670076E+03 -0.15068791922E+04  0.18739493529E+04  0.88928879416E+02 0.  0.
         11    1    3    3    0    0 -0.19469276821E+03  0.37206983680E+03 -0.54228802786E+03  0.68586991668E+03  0.00000000000E+00 0. -1.
        -11    1    3    3    0    0 -0.41196336250E+03  0.55801686396E+03 -0.96459116435E+03  0.11880794363E+04  0.00000000000E+00 0.  1.
         22    1    1    2    0    0  0.60665613070E+03 -0.93008670076E+03 -0.22837571486E+04  0.25394171862E+04  0.00000000000E+00 0. -1.
<mgrwt>
<rscale>  0 0.22602832E+04</rscale>
<asrwt>0</asrwt>
<pdfrwt beam="1">  1        2 0.63107707E+00 0.22602832E+04</pdfrwt>
<pdfrwt beam="2">  1       -2 0.47902329E-01 0.22602832E+04</pdfrwt>
<totfact> 0.10662816E+00</totfact>
</mgrwt>
</event>
<event>
 6    1  0.5026615E-004  0.2112479E+04  0.7818608E-02  0.8555766E-01
         -2   -1    0    0    0  501 -0.00000000000E+00  0.00000000000E+00  0.28691837214E+04  0.28691837214E+04  0.00000000000E+00 0. -1.
          2   -1    0    0  501    0  0.00000000000E+00 -0.00000000000E+00 -0.38883614958E+03  0.38883614958E+03  0.00000000000E+00 0.  1.
         23    2    1    2    0    0 -0.10151096340E+04  0.74660123281E+00  0.16836449444E+04  0.19676000932E+04  0.79634801131E+02 0.  0.
         11    1    3    3    0    0 -0.70292162739E+03 -0.21253526510E+02  0.11065865702E+04  0.13111385755E+04  0.00000000000E+00 0. -1.
        -11    1    3    3    0    0 -0.31218800658E+03  0.22000127742E+02  0.57705837412E+03  0.65646151770E+03  0.00000000000E+00 0.  1.
         22    1    1    2    0    0  0.10151096340E+04 -0.74660123281E+00  0.79670262749E+03  0.12904197778E+04  0.00000000000E+00 0.  1.
<mgrwt>
<rscale>  0 0.21124794E+04</rscale>
<asrwt>0</asrwt>
<pdfrwt beam="1">  1        2 0.59820948E-01 0.21124794E+04</pdfrwt>
<pdfrwt beam="2">  1       -2 0.44141287E+00 0.21124794E+04</pdfrwt>
<totfact> 0.29937430E-01</totfact>
</mgrwt>
</event>
<event>
 6    1  0.5026615E-004  0.2728851E+03  0.7818608E-02  0.1099640E+00
          2   -1    0    0  501    0  0.00000000000E+00  0.00000000000E+00  0.78937381379E+03  0.78937381379E+03  0.00000000000E+00 0.  1.
         -2   -1    0    0    0  501 -0.00000000000E+00 -0.00000000000E+00 -0.23583967351E+02  0.23583967351E+02  0.00000000000E+00 0. -1.
         23    2    1    2    0    0 -0.33714308341E+02  0.28221218691E+02  0.76222388568E+03  0.76884646913E+03  0.90590007277E+02 0.  0.
         11    1    3    3    0    0 -0.30629208417E+02 -0.28612532034E+02  0.25258003670E+03  0.25603417807E+03  0.00000000000E+00 0. -1.
        -11    1    3    3    0    0 -0.30850999241E+01  0.56833750725E+02  0.50964384897E+03  0.51281229106E+03  0.00000000000E+00 0.  1.
         22    1    1    2    0    0  0.33714308341E+02 -0.28221218691E+02  0.35659607584E+01  0.44111312013E+02  0.00000000000E+00 0. -1.
<mgrwt>
<rscale>  0 0.27288508E+03</rscale>
<asrwt>0</asrwt>
<pdfrwt beam="1">  1        2 0.12144210E+00 0.27288508E+03</pdfrwt>
<pdfrwt beam="2">  1       -2 0.36283033E-02 0.27288508E+03</pdfrwt>
<totfact> 0.11446603E+04</totfact>
</mgrwt>
</event>
<event>
 6    1  0.5026615E-004  0.2101390E+04  0.7818608E-02  0.8560632E-01
          1   -1    0    0  501    0  0.00000000000E+00  0.00000000000E+00  0.15645857465E+04  0.15645857465E+04  0.00000000000E+00 0.  1.
         -1   -1    0    0    0  501 -0.00000000000E+00 -0.00000000000E+00 -0.70559221549E+03  0.70559221549E+03  0.00000000000E+00 0. -1.
         23    2    1    2    0    0 -0.72558429432E+02  0.42719751320E+03 -0.60145355256E+03  0.74680403387E+03  0.90594967594E+02 0.  0.
         11    1    3    3    0    0 -0.38582534783E+02  0.32308345761E+03 -0.38390513719E+03  0.50324416235E+03  0.00000000000E+00 0. -1.
        -11    1    3    3    0    0 -0.33975894649E+02  0.10411405558E+03 -0.21754841537E+03  0.24355987152E+03  0.00000000000E+00 0.  1.
         22    1    1    2    0    0  0.72558429432E+02 -0.42719751320E+03  0.14604470836E+04  0.15233739282E+04  0.00000000000E+00 0.  1.
<mgrwt>
<rscale>  0 0.21013896E+04</rscale>
<asrwt>0</asrwt>
<pdfrwt beam="1">  1        1 0.24070550E+00 0.21013896E+04</pdfrwt>
<pdfrwt beam="2">  1       -1 0.10855265E+00 0.21013896E+04</pdfrwt>
<totfact> 0.42736880E+00</totfact>
</mgrwt>
</event>
<event>
 6    1  0.5026615E-004  0.1168236E+04  0.7818608E-02  0.9141123E-01
          2   -1    0    0  501    0  0.00000000000E+00  0.00000000000E+00  0.39959888742E+03  0.39959888742E+03  0.00000000000E+00 0.  1.
         -2   -1    0    0    0  501 -0.00000000000E+00 -0.00000000000E+00 -0.85384103884E+03  0.85384103884E+03  0.00000000000E+00 0. -1.
         23    2    1    2    0    0  0.57605328239E+03 -0.67453275571E+02 -0.20357936783E+03  0.62160200430E+03  0.92504941511E+02 0.  0.
         13    1    3    3    0    0  0.21661990264E+02 -0.19864787009E+02 -0.20471372557E+02  0.35817993794E+02  0.00000000000E+00 0. -1.
        -13    1    3    3    0    0  0.55439129213E+03 -0.47588488563E+02 -0.18310799528E+03  0.58578401051E+03  0.00000000000E+00 0.  1.
         22    1    1    2    0    0 -0.57605328239E+03  0.67453275571E+02 -0.25066278358E+03  0.63183792195E+03  0.00000000000E+00 0. -1.
<mgrwt>
<rscale>  0 0.11682362E+04</rscale>
<asrwt>0</asrwt>
<pdfrwt beam="1">  1        2 0.61476752E-01 0.11682362E+04</pdfrwt>
<pdfrwt beam="2">  1       -2 0.13136016E+00 0.11682362E+04</pdfrwt>
<totfact> 0.33271233E+01</totfact>
</mgrwt>
</event>
<event>
 6    1  0.5579926E-004  0.3159942E+04  0.7818608E-02  0.8199477E-01
         -1   -1    0    0    0  501 -0.00000000000E+00  0.00000000000E+00  0.11384159564E+04  0.11384159564E+04  0.00000000000E+00 0.  1.
          1   -1    0    0  501    0  0.00000000000E+00 -0.00000000000E+00 -0.21927913540E+04  0.21927913540E+04  0.00000000000E+00 0. -1.
         23    2    1    2    0    0 -0.20462310005E+03 -0.92743949931E+03 -0.18569303239E+04  0.20877809765E+04  0.92868401201E+02 0.  0.
         13    1    3    3    0    0 -0.49039236225E+01 -0.16358659460E+03 -0.28267704554E+03  0.32663578260E+03  0.00000000000E+00 0.  1.
        -13    1    3    3    0    0 -0.19971917642E+03 -0.76385290471E+03 -0.15742532784E+04  0.17611451939E+04  0.00000000000E+00 0. -1.
         22    1    1    2    0    0  0.20462310005E+03  0.92743949931E+03  0.80255492634E+03  0.12434263339E+04  0.00000000000E+00 0.  1.
<mgrwt>
<rscale>  0 0.31599422E+04</rscale>
<asrwt>0</asrwt>
<pdfrwt beam="1">  1        1 0.33735251E+00 0.31599422E+04</pdfrwt>
<pdfrwt beam="2">  1       -1 0.17514092E+00 0.31599422E+04</pdfrwt>
<totfact> 0.41737144E-01</totfact>
</mgrwt>
</event>
<event>
 6    1  0.5026615E-004  0.8394312E+04  0.7818608E-02  0.7448568E-01
         -2   -1    0    0    0  501 -0.00000000000E+00  0.00000000000E+00  0.43877144048E+04  0.43877144048E+04  0.00000000000E+00 0. -1.
          2   -1    0    0  501    0  0.00000000000E+00 -0.00000000000E+00 -0.40148736960E+04  0.40148736960E+04  0.00000000000E+00 0.  1.
         23    2    1    2    0    0 -0.40152451895E+04  0.36379613726E+03  0.13526914043E+04  0.42535341186E+04  0.90757378077E+02 0.  0.
         13    1    3    3    0    0 -0.14968840943E+04  0.16770661868E+03  0.47358372182E+03  0.15789455479E+04  0.00000000000E+00 0.  1.
        -13    1    3    3    0    0 -0.25183610952E+04  0.19608951858E+03  0.87910768246E+03  0.26745885707E+04  0.00000000000E+00 0. -1.
         22    1    1    2    0    0  0.40152451895E+04 -0.36379613726E+03 -0.97985069548E+03  0.41490539822E+04  0.00000000000E+00 0.  1.
<mgrwt>
<rscale>  0 0.83943122E+04</rscale>
<asrwt>0</asrwt>
<pdfrwt beam="1">  1        2 0.61767288E+00 0.83943122E+04</pdfrwt>
<pdfrwt beam="2">  1       -2 0.67503298E+00 0.83943122E+04</pdfrwt>
<totfact> 0.53513361E-05</totfact>
</mgrwt>
</event>
<event>
 6    1  0.5026615E-004  0.7855269E+03  0.7818608E-02  0.9581206E-01
          2   -1    0    0  501    0  0.00000000000E+00  0.00000000000E+00  0.98273549434E+03  0.98273549434E+03  0.00000000000E+00 0.  1.
         -2   -1    0    0    0  501 -0.00000000000E+00 -0.00000000000E+00 -0.15697317634E+03  0.15697317634E+03  0.00000000000E+00 0. -1.
         23    2    1    2    0    0  0.29060131389E+03  0.18307363837E+03  0.67979746425E+03  0.76651861290E+03  0.86377721757E+02 0.  0.
         13    1    3    3    0    0  0.19956947528E+03  0.16675398087E+03  0.46789500136E+03  0.53531355101E+03  0.00000000000E+00 0. -1.
        -13    1    3    3    0    0  0.91031838612E+02  0.16319657496E+02  0.21190246290E+03  0.23120506189E+03  0.00000000000E+00 0.  1.
         22    1    1    2    0    0 -0.29060131389E+03 -0.18307363837E+03  0.14596485374E+03  0.37319005778E+03  0.00000000000E+00 0. -1.
<mgrwt>
<rscale>  0 0.78552686E+03</rscale>
<asrwt>0</asrwt>
<pdfrwt beam="1">  1        2 0.15119007E+00 0.78552686E+03</pdfrwt>
<pdfrwt beam="2">  1       -2 0.24149720E-01 0.78552686E+03</pdfrwt>
<totfact> 0.39633024E+02</totfact>
</mgrwt>
</event>
<event>
 6    1  0.5026615E-004  0.1033830E+04  0.7818608E-02  0.9272200E-01
          2   -1    0    0  501    0  0.00000000000E+00  0.00000000000E+00  0.34760359766E+03  0.34760359766E+03  0.00000000000E+00 0.  1.
         -2   -1    0    0    0  501 -0.00000000000E+00 -0.00000000000E+00 -0.76869442273E+03  0.76869442273E+03  0.00000000000E+00 0. -1.
         23    2    1    2    0    0 -0.43449140346E+03  0.26864783738E+03 -0.16321569225E+03  0.54406203381E+03  0.91704385015E+02 0.  0.
         13    1    3    3    0    0 -0.16234060606E+03  0.11681376247E+03 -0.10889298693E+03  0.22772266045E+03  0.00000000000E+00 0. -1.
        -13    1    3    3    0    0 -0.27215079740E+03  0.15183407491E+03 -0.54322705324E+02  0.31633937337E+03  0.00000000000E+00 0.  1.
         22    1    1    2    0    0  0.43449140346E+03 -0.26864783738E+03 -0.25787513282E+03  0.57223598657E+03  0.00000000000E+00 0.  1.
<mgrwt>
<rscale>  0 0.10338297E+04</rscale>
<asrwt>0</asrwt>
<pdfrwt beam="1">  1        2 0.53477476E-01 0.10338297E+04</pdfrwt>
<pdfrwt beam="2">  1       -2 0.11826068E+00 0.10338297E+04</pdfrwt>
<totfact> 0.51080904E+01</totfact>
</mgrwt>
</event>
<event>
 6    1  0.5026615E-004  0.1970776E+04  0.7818608E-02  0.8620407E-01
         -2   -1    0    0    0  501 -0.00000000000E+00  0.00000000000E+00  0.90407445201E+03  0.90407445201E+03  0.00000000000E+00 0. -1.
          2   -1    0    0  501    0  0.00000000000E+00 -0.00000000000E+00 -0.10740144974E+04  0.10740144974E+04  0.00000000000E+00 0.  1.
         23    2    1    2    0    0 -0.81525992830E+03 -0.12873317613E+03 -0.62155870249E+03  0.10372486905E+04  0.91261404411E+02 0.  0.
         11    1    3    3    0    0 -0.35461974807E+03 -0.35299027535E+02 -0.21809555528E+03  0.41781198918E+03  0.00000000000E+00 0.  1.
        -11    1    3    3    0    0 -0.46064018023E+03 -0.93434148590E+02 -0.40346314722E+03  0.61943670131E+03  0.00000000000E+00 0. -1.
         22    1    1    2    0    0  0.81525992830E+03  0.12873317613E+03  0.45161865712E+03  0.94084025891E+03  0.00000000000E+00 0. -1.
<mgrwt>
<rscale>  0 0.19707756E+04</rscale>
<asrwt>0</asrwt>
<pdfrwt beam="1">  1        2 0.16523300E+00 0.19707756E+04</pdfrwt>
<pdfrwt beam="2">  1       -2 0.13908838E+00 0.19707756E+04</pdfrwt>
<totfact> 0.76922926E+00</totfact>
</mgrwt>
</event>
<event>
 6    1  0.5948839E-004  0.3322324E+04  0.7818608E-02  0.8157238E-01
          2   -1    0    0  501    0  0.00000000000E+00  0.00000000000E+00  0.23588743189E+04  0.23588743189E+04  0.00000000000E+00 0. -1.
         -2   -1    0    0    0  501 -0.00000000000E+00 -0.00000000000E+00 -0.11698205000E+04  0.11698205000E+04  0.00000000000E+00 0.  1.
         23    2    1    2    0    0 -0.13454301859E+03  0.40275259632E+03 -0.11090948390E+04  0.11916456685E+04  0.98064059152E+02 0.  0.
         11    1    3    3    0    0 -0.11195723673E+03  0.19427964443E+03 -0.62828657789E+03  0.66710046249E+03  0.00000000000E+00 0. -1.
        -11    1    3    3    0    0 -0.22585781853E+02  0.20847295188E+03 -0.48080826110E+03  0.52454520601E+03  0.00000000000E+00 0.  1.
         22    1    1    2    0    0  0.13454301859E+03 -0.40275259632E+03  0.22981486579E+04  0.23370491504E+04  0.00000000000E+00 0. -1.
<mgrwt>
<rscale>  0 0.33223242E+04</rscale>
<asrwt>0</asrwt>
<pdfrwt beam="1">  1        2 0.36290374E+00 0.33223242E+04</pdfrwt>
<pdfrwt beam="2">  1       -2 0.17997239E+00 0.33223242E+04</pdfrwt>
<totfact> 0.63468336E-01</totfact>
</mgrwt>
</event>
<event>
 6    1  0.5026615E-004  0.9903760E+03  0.7818608E-02  0.9319164E-01
         -2   -1    0    0    0  501 -0.00000000000E+00  0.00000000000E+00  0.22132804477E+03  0.22132804477E+03  0.00000000000E+00 0. -1.
          2   -1    0    0  501    0  0.00000000000E+00 -0.00000000000E+00 -0.11079082402E+04  0.11079082402E+04  0.00000000000E+00 0.  1.
         23    2    1    2    0    0 -0.41533150121E+03  0.24184752027E+03 -0.31449289422E+03  0.58205868951E+03  0.94318919410E+02 0.  0.
         13    1    3    3    0    0 -0.22939807368E+03  0.90240100006E+02 -0.12530011587E+03  0.27652643797E+03  0.00000000000E+00 0. -1.
        -13    1    3    3    0    0 -0.18593342753E+03  0.15160742026E+03 -0.18919277836E+03  0.30553225155E+03  0.00000000000E+00 0.  1.
         22    1    1    2    0    0  0.41533150121E+03 -0.24184752027E+03 -0.57208730120E+03  0.74717759546E+03  0.00000000000E+00 0. -1.
<mgrwt>
<rscale>  0 0.99037602E+03</rscale>
<asrwt>0</asrwt>
<pdfrwt beam="1">  1        2 0.17044742E+00 0.99037602E+03</pdfrwt>
<pdfrwt beam="2">  1       -2 0.34050468E-01 0.99037602E+03</pdfrwt>
<totfact> 0.17351047E+02</totfact>
</mgrwt>
</event>
<event>
 6    1  0.5026615E-004  0.2377241E+04  0.7818608E-02  0.8448074E-01
         -2   -1    0    0    0  501 -0.00000000000E+00  0.00000000000E+00  0.71975544567E+03  0.71975544567E+03  0.00000000000E+00 0. -1.
          2   -1    0    0  501    0  0.00000000000E+00 -0.00000000000E+00 -0.19629142101E+04  0.19629142101E+04  0.00000000000E+00 0.  1.
         23    2    1    2    0    0 -0.15330950043E+03  0.58363799331E+03 -0.17759407129E+04  0.18776890878E+04  0.87257002070E+02 0.  0.
         11    1    3    3    0    0 -0.27121231339E+02  0.15856467474E+03 -0.36928677727E+03  0.40280397358E+03  0.00000000000E+00 0. -1.
        -11    1    3    3    0    0 -0.12618826909E+03  0.42507331857E+03 -0.14066539356E+04  0.14748851142E+04  0.00000000000E+00 0.  1.
         22    1    1    2    0    0  0.15330950043E+03 -0.58363799331E+03  0.53278194851E+03  0.80498056797E+03  0.00000000000E+00 0. -1.
<mgrwt>
<rscale>  0 0.23772406E+04</rscale>
<asrwt>0</asrwt>
<pdfrwt beam="1">  1        2 0.30198680E+00 0.23772406E+04</pdfrwt>
<pdfrwt beam="2">  1       -2 0.11073161E+00 0.23772406E+04</pdfrwt>
<totfact> 0.40808790E+00</totfact>
</mgrwt>
</event>
<event>
 6    1  0.5026615E-004  0.3138610E+04  0.7818608E-02  0.8205221E-01
         -1   -1    0    0    0  501 -0.00000000000E+00  0.00000000000E+00  0.10679122526E+04  0.10679122526E+04  0.00000000000E+00 0.  1.
          1   -1    0    0  501    0  0.00000000000E+00 -0.00000000000E+00 -0.23061060846E+04  0.23061060846E+04  0.00000000000E+00 0. -1.
         23    2    1    2    0    0  0.17655524659E+03 -0.46494665202E+03 -0.22181468996E+04  0.22750846910E+04  0.92127837618E+02 0.  0.
         13    1    3    3    0    0  0.53032700319E+02 -0.50105117639E+02 -0.32171575375E+03  0.32988485313E+03  0.00000000000E+00 0. -1.
        -13    1    3    3    0    0  0.12352254627E+03 -0.41484153438E+03 -0.18964311459E+04  0.19451998378E+04  0.00000000000E+00 0.  1.
         22    1    1    2    0    0 -0.17655524659E+03  0.46494665202E+03  0.97995306761E+03  0.10989336463E+04  0.00000000000E+00 0.  1.
<mgrwt>
<rscale>  0 0.31386105E+04</rscale>
<asrwt>0</asrwt>
<pdfrwt beam="1">  1        1 0.35478555E+00 0.31386105E+04</pdfrwt>
<pdfrwt beam="2">  1       -1 0.16429419E+00 0.31386105E+04</pdfrwt>
<totfact> 0.42046429E-01</totfact>
</mgrwt>
</event>
<event>
 6    1  0.5026615E-004  0.3849968E+04  0.7818608E-02  0.8035516E-01
          2   -1    0    0  501    0  0.00000000000E+00  0.00000000000E+00  0.28152156712E+04  0.28152156712E+04  0.00000000000E+00 0.  1.
         -2   -1    0    0    0  501 -0.00000000000E+00 -0.00000000000E+00 -0.13162628996E+04  0.13162628996E+04  0.00000000000E+00 0. -1.
         23    2    1    2    0    0  0.64208859040E+03  0.45992491131E+03  0.26325062278E+04  0.27499026157E+04  0.89814665547E+02 0.  0.
         13    1    3    3    0    0  0.11021186518E+03  0.41996648267E+02  0.35623612168E+03  0.37525264567E+03  0.00000000000E+00 0. -1.
        -13    1    3    3    0    0  0.53187672523E+03  0.41792826305E+03  0.22762701061E+04  0.23746499700E+04  0.00000000000E+00 0.  1.
         22    1    1    2    0    0 -0.64208859040E+03 -0.45992491131E+03 -0.11335534562E+04  0.13815759552E+04  0.00000000000E+00 0. -1.
<mgrwt>
<rscale>  0 0.38499683E+04</rscale>
<asrwt>0</asrwt>
<pdfrwt beam="1">  1        2 0.43311010E+00 0.38499683E+04</pdfrwt>
<pdfrwt beam="2">  1       -2 0.20250199E+00 0.38499683E+04</pdfrwt>
<totfact> 0.23144199E-01</totfact>
</mgrwt>
</event>
<event>
 6    1  0.5026615E-004  0.1360340E+04  0.7818608E-02  0.8983038E-01
         -2   -1    0    0    0  501 -0.00000000000E+00  0.00000000000E+00  0.34749129012E+03  0.34749129012E+03  0.00000000000E+00 0. -1.
          2   -1    0    0  501    0  0.00000000000E+00 -0.00000000000E+00 -0.13313455406E+04  0.13313455406E+04  0.00000000000E+00 0.  1.
         23    2    1    2    0    0  0.22339100805E+03 -0.30184877816E+03  0.20129702109E+03  0.43561530426E+03  0.90686135942E+02 0.  0.
         11    1    3    3    0    0  0.47354318722E+02 -0.11428649684E+03  0.32369413799E+02  0.12787342887E+03  0.00000000000E+00 0. -1.
        -11    1    3    3    0    0  0.17603668932E+03 -0.18756228132E+03  0.16892760729E+03  0.30774187539E+03  0.00000000000E+00 0.  1.
         22    1    1    2    0    0 -0.22339100805E+03  0.30184877816E+03 -0.11851512716E+04  0.12432215265E+04  0.00000000000E+00 0.  1.
<mgrwt>
<rscale>  0 0.13603396E+04</rscale>
<asrwt>0</asrwt>
<pdfrwt beam="1">  1        2 0.20482239E+00 0.13603396E+04</pdfrwt>
<pdfrwt beam="2">  1       -2 0.53460200E-01 0.13603396E+04</pdfrwt>
<totfact> 0.51013130E+01</totfact>
</mgrwt>
</event>
<event>
 6    1  0.5026615E-004  0.1179734E+04  0.7818608E-02  0.9130782E-01
         -2   -1    0    0    0  501 -0.00000000000E+00  0.00000000000E+00  0.17208544096E+03  0.17208544096E+03  0.00000000000E+00 0. -1.
          2   -1    0    0  501    0  0.00000000000E+00 -0.00000000000E+00 -0.20219215232E+04  0.20219215232E+04  0.00000000000E+00 0.  1.
         23    2    1    2    0    0  0.39178488339E+03  0.11279815445E+03 -0.17140392387E+04  0.17642865886E+04  0.92508573705E+02 0.  0.
         11    1    3    3    0    0  0.26980452894E+03  0.49432813939E+02 -0.98901894201E+03  0.10263510874E+04  0.00000000000E+00 0.  1.
        -11    1    3    3    0    0  0.12198035445E+03  0.63365340507E+02 -0.72502029672E+03  0.73793550118E+03  0.00000000000E+00 0. -1.
         22    1    1    2    0    0 -0.39178488339E+03 -0.11279815445E+03 -0.13579684352E+03  0.42972037560E+03  0.00000000000E+00 0. -1.
<mgrwt>
<rscale>  0 0.11797343E+04</rscale>
<asrwt>0</asrwt>
<pdfrwt beam="1">  1        2 0.31106484E+00 0.11797343E+04</pdfrwt>
<pdfrwt beam="2">  1       -2 0.26474684E-01 0.11797343E+04</pdfrwt>
<totfact> 0.83077148E+01</totfact>
</mgrwt>
</event>
<event>
 6    1  0.5026615E-004  0.1965223E+04  0.7818608E-02  0.8623055E-01
          2   -1    0    0  501    0  0.00000000000E+00  0.00000000000E+00  0.35372171963E+04  0.35372171963E+04  0.00000000000E+00 0.  1.
         -2   -1    0    0    0  501 -0.00000000000E+00 -0.00000000000E+00 -0.27296193762E+03  0.27296193762E+03  0.00000000000E+00 0. -1.
         23    2    1    2    0    0 -0.82215502033E+03 -0.20855717408E+03  0.25894425492E+04  0.27262939162E+04  0.89614897035E+02 0.  0.
         13    1    3    3    0    0 -0.45161950422E+03 -0.71832284909E+02  0.13356633798E+04  0.14117778572E+04  0.00000000000E+00 0.  1.
        -13    1    3    3    0    0 -0.37053551610E+03 -0.13672488917E+03  0.12537791693E+04  0.13145160590E+04  0.00000000000E+00 0. -1.
         22    1    1    2    0    0  0.82215502033E+03  0.20855717408E+03  0.67481270955E+03  0.10838852178E+04  0.00000000000E+00 0. -1.
<mgrwt>
<rscale>  0 0.19652233E+04</rscale>
<asrwt>0</asrwt>
<pdfrwt beam="1">  1        2 0.54418723E+00 0.19652233E+04</pdfrwt>
<pdfrwt beam="2">  1       -2 0.41994147E-01 0.19652233E+04</pdfrwt>
<totfact> 0.38565818E+00</totfact>
</mgrwt>
</event>
<event>
 6    1  0.5026615E-004  0.3772356E+04  0.7818608E-02  0.8052113E-01
          2   -1    0    0  501    0  0.00000000000E+00  0.00000000000E+00  0.28293216194E+04  0.28293216194E+04  0.00000000000E+00 0.  1.
         -2   -1    0    0    0  501 -0.00000000000E+00 -0.00000000000E+00 -0.12574274356E+04  0.12574274356E+04  0.00000000000E+00 0. -1.
         23    2    1    2    0    0  0.16837534640E+04  0.81100642101E+03  0.52001167916E+03  0.19421712537E+04  0.94126987142E+02 0.  0.
         11    1    3    3    0    0  0.14764771299E+04  0.73355821332E+03  0.48181527603E+03  0.17176257822E+04  0.00000000000E+00 0. -1.
        -11    1    3    3    0    0  0.20727633409E+03  0.77448207689E+02  0.38196403126E+02  0.22454547148E+03  0.00000000000E+00 0.  1.
         22    1    1    2    0    0 -0.16837534640E+04 -0.81100642101E+03  0.10518825047E+04  0.21445778014E+04  0.00000000000E+00 0. -1.
<mgrwt>
<rscale>  0 0.37723556E+04</rscale>
<asrwt>0</asrwt>
<pdfrwt beam="1">  1        2 0.43528025E+00 0.37723556E+04</pdfrwt>
<pdfrwt beam="2">  1       -2 0.19345037E+00 0.37723556E+04</pdfrwt>
<totfact> 0.26205235E-01</totfact>
</mgrwt>
</event>
<event>
 6    1  0.5026615E-004  0.8962683E+03  0.7818608E-02  0.9430258E-01
         -2   -1    0    0    0  501 -0.00000000000E+00  0.00000000000E+00  0.10387880701E+03  0.10387880701E+03  0.00000000000E+00 0. -1.
          2   -1    0    0  501    0  0.00000000000E+00 -0.00000000000E+00 -0.19332549333E+04  0.19332549333E+04  0.00000000000E+00 0.  1.
         23    2    1    2    0    0  0.31840684197E+03  0.17397143553E+03 -0.34447609996E+03  0.50854711678E+03  0.91144989724E+02 0.  0.
         13    1    3    3    0    0  0.69800908749E+02  0.94848003339E+01 -0.10367616030E+03  0.12534302739E+03  0.00000000000E+00 0.  1.
        -13    1    3    3    0    0  0.24860593322E+03  0.16448663520E+03 -0.24079993965E+03  0.38320408940E+03  0.00000000000E+00 0. -1.
         22    1    1    2    0    0 -0.31840684197E+03 -0.17397143553E+03 -0.14849000264E+04  0.15285866235E+04  0.00000000000E+00 0.  1.
<mgrwt>
<rscale>  0 0.89626830E+03</rscale>
<asrwt>0</asrwt>
<pdfrwt beam="1">  1        2 0.29742382E+00 0.89626830E+03</pdfrwt>
<pdfrwt beam="2">  1       -2 0.15981356E-01 0.89626830E+03</pdfrwt>
<totfact> 0.23139550E+02</totfact>
</mgrwt>
</event>
<event>
 6    1  0.5026615E-004  0.8430676E+03  0.7818608E-02  0.9499689E-01
          2   -1    0    0  501    0  0.00000000000E+00  0.00000000000E+00  0.27039831300E+03  0.27039831300E+03  0.00000000000E+00 0.  1.
         -2   -1    0    0    0  501 -0.00000000000E+00 -0.00000000000E+00 -0.65714447934E+03  0.65714447934E+03  0.00000000000E+00 0. -1.
         23    2    1    2    0    0  0.32877339326E+03  0.22904813124E+03 -0.32150174331E+03  0.52157256526E+03  0.90108708466E+02 0.  0.
         11    1    3    3    0    0  0.21881505722E+03  0.11843291883E+03 -0.15358668420E+03  0.29239571661E+03  0.00000000000E+00 0. -1.
        -11    1    3    3    0    0  0.10995833604E+03  0.11061521241E+03 -0.16791505912E+03  0.22917684865E+03  0.00000000000E+00 0.  1.
         22    1    1    2    0    0 -0.32877339326E+03 -0.22904813124E+03 -0.65244423033E+02  0.40597022708E+03  0.00000000000E+00 0.  1.
<mgrwt>
<rscale>  0 0.84306763E+03</rscale>
<asrwt>0</asrwt>
<pdfrwt beam="1">  1        2 0.41599741E-01 0.84306763E+03</pdfrwt>
<pdfrwt beam="2">  1       -2 0.10109915E+00 0.84306763E+03</pdfrwt>
<totfact> 0.99779007E+01</totfact>
</mgrwt>
</event>
<event>
 6    1  0.5026615E-004  0.1721768E+04  0.7818608E-02  0.8749046E-01
         -2   -1    0    0    0  501 -0.00000000000E+00  0.00000000000E+00  0.10311267235E+04  0.10311267235E+04  0.00000000000E+00 0. -1.
          2   -1    0    0  501    0  0.00000000000E+00 -0.00000000000E+00 -0.71874887805E+03  0.71874887805E+03  0.00000000000E+00 0.  1.
         23    2    1    2    0    0  0.64448814125E+03 -0.32193600566E+03  0.63144495455E+03  0.96195963141E+03  0.87383327243E+02 0.  0.
         11    1    3    3    0    0  0.13791112549E+03 -0.61889408885E+02  0.18162610602E+03  0.23630027476E+03  0.00000000000E+00 0.  1.
        -11    1    3    3    0    0  0.50657701576E+03 -0.26004659678E+03  0.44981884853E+03  0.72565935664E+03  0.00000000000E+00 0. -1.
         22    1    1    2    0    0 -0.64448814125E+03  0.32193600566E+03 -0.31906710907E+03  0.78791597017E+03  0.00000000000E+00 0.  1.
<mgrwt>
<rscale>  0 0.17217679E+04</rscale>
<asrwt>0</asrwt>
<pdfrwt beam="1">  1        2 0.11057675E+00 0.17217679E+04</pdfrwt>
<pdfrwt beam="2">  1       -2 0.15863488E+00 0.17217679E+04</pdfrwt>
<totfact> 0.96971221E+00</totfact>
</mgrwt>
</event>
<event>
 6    1  0.5026615E-004  0.1512055E+04  0.7818608E-02  0.8876476E-01
          2   -1    0    0  501    0  0.00000000000E+00  0.00000000000E+00  0.23501355566E+03  0.23501355566E+03  0.00000000000E+00 0.  1.
         -2   -1    0    0    0  501 -0.00000000000E+00 -0.00000000000E+00 -0.24321035655E+04  0.24321035655E+04  0.00000000000E+00 0. -1.
         23    2    1    2    0    0 -0.70975822562E+03 -0.25172058922E+03 -0.11594671526E+04  0.13850168179E+04  0.82386369411E+02 0.  0.
         13    1    3    3    0    0 -0.60684160179E+03 -0.19635351676E+03 -0.93304567136E+03  0.11302148725E+04  0.00000000000E+00 0. -1.
        -13    1    3    3    0    0 -0.10291662383E+03 -0.55367072463E+02 -0.22642148128E+03  0.25480194535E+03  0.00000000000E+00 0.  1.
         22    1    1    2    0    0  0.70975822562E+03  0.25172058922E+03 -0.10376228572E+04  0.12821003032E+04  0.00000000000E+00 0.  1.
<mgrwt>
<rscale>  0 0.15120546E+04</rscale>
<asrwt>0</asrwt>
<pdfrwt beam="1">  1        2 0.36155931E-01 0.15120546E+04</pdfrwt>
<pdfrwt beam="2">  1       -2 0.37416978E+00 0.15120546E+04</pdfrwt>
<totfact> 0.15327998E+00</totfact>
</mgrwt>
</event>
<event>
 6    1  0.5026615E-004  0.1849756E+04  0.7818608E-02  0.8680278E-01
         -2   -1    0    0    0  501 -0.00000000000E+00  0.00000000000E+00  0.91673081960E+03  0.91673081960E+03  0.00000000000E+00 0. -1.
          2   -1    0    0  501    0  0.00000000000E+00 -0.00000000000E+00 -0.93309788325E+03  0.93309788325E+03  0.00000000000E+00 0.  1.
         23    2    1    2    0    0 -0.30930512855E+03 -0.71988718902E+03 -0.49419314879E+03  0.93210053226E+03  0.10333105283E+03 0.  0.
         11    1    3    3    0    0 -0.61920073180E+02 -0.62990744233E+02 -0.52179802696E+02  0.10258977108E+03  0.00000000000E+00 0. -1.
        -11    1    3    3    0    0 -0.24738505537E+03 -0.65689644478E+03 -0.44201334609E+03  0.82951076118E+03  0.00000000000E+00 0.  1.
         22    1    1    2    0    0  0.30930512855E+03  0.71988718902E+03  0.47782608514E+03  0.91772817059E+03  0.00000000000E+00 0. -1.
<mgrwt>
<rscale>  0 0.18497563E+04</rscale>
<asrwt>0</asrwt>
<pdfrwt beam="1">  1        2 0.14355352E+00 0.18497563E+04</pdfrwt>
<pdfrwt beam="2">  1       -2 0.14103551E+00 0.18497563E+04</pdfrwt>
<totfact> 0.92286683E+00</totfact>
</mgrwt>
</event>
<event>
 6    1  0.5026615E-004  0.2299877E+04  0.7818608E-02  0.8477970E-01
         -2   -1    0    0    0  501 -0.00000000000E+00  0.00000000000E+00  0.58555468482E+03  0.58555468482E+03  0.00000000000E+00 0. -1.
          2   -1    0    0  501    0  0.00000000000E+00 -0.00000000000E+00 -0.22582997753E+04  0.22582997753E+04  0.00000000000E+00 0.  1.
         23    2    1    2    0    0  0.43496109575E+03 -0.10380119585E+04 -0.11189464926E+04  0.15895208251E+04  0.88742432032E+02 0.  0.
         11    1    3    3    0    0  0.10328123963E+03 -0.34821663164E+03 -0.34178923785E+03  0.49874013285E+03  0.00000000000E+00 0. -1.
        -11    1    3    3    0    0  0.33167985611E+03 -0.68979532691E+03 -0.77715725478E+03  0.10907806923E+04  0.00000000000E+00 0.  1.
         22    1    1    2    0    0 -0.43496109575E+03  0.10380119585E+04 -0.55379859785E+03  0.12543336350E+04  0.00000000000E+00 0.  1.
<mgrwt>
<rscale>  0 0.22998765E+04</rscale>
<asrwt>0</asrwt>
<pdfrwt beam="1">  1        2 0.34743073E+00 0.22998765E+04</pdfrwt>
<pdfrwt beam="2">  1       -2 0.90085336E-01 0.22998765E+04</pdfrwt>
<totfact> 0.45760387E+00</totfact>
</mgrwt>
</event>
<event>
 6    1  0.5026615E-004  0.1713523E+04  0.7818608E-02  0.8753689E-01
          2   -1    0    0  501    0  0.00000000000E+00  0.00000000000E+00  0.18779674130E+04  0.18779674130E+04  0.00000000000E+00 0.  1.
         -2   -1    0    0    0  501 -0.00000000000E+00 -0.00000000000E+00 -0.39086973161E+03  0.39086973161E+03  0.00000000000E+00 0. -1.
         23    2    1    2    0    0 -0.85349356356E+03 -0.25687279578E+02  0.71029851132E+03  0.11144853568E+04  0.91883273465E+02 0.  0.
         11    1    3    3    0    0 -0.69502603093E+03 -0.34375194177E+02  0.53310403834E+03  0.87660866602E+03  0.00000000000E+00 0. -1.
        -11    1    3    3    0    0 -0.15846753264E+03  0.86879145984E+01  0.17719447297E+03  0.23787669077E+03  0.00000000000E+00 0.  1.
         22    1    1    2    0    0  0.85349356356E+03  0.25687279578E+02  0.77679917003E+03  0.11543517878E+04  0.00000000000E+00 0.  1.
<mgrwt>
<rscale>  0 0.17135234E+04</rscale>
<asrwt>0</asrwt>
<pdfrwt beam="1">  1        2 0.28891806E+00 0.17135234E+04</pdfrwt>
<pdfrwt beam="2">  1       -2 0.60133806E-01 0.17135234E+04</pdfrwt>
<totfact> 0.19136619E+01</totfact>
</mgrwt>
</event>
<event>
 6    1  0.5026615E-004  0.4292704E+04  0.7818608E-02  0.7947969E-01
         -2   -1    0    0    0  501 -0.00000000000E+00  0.00000000000E+00  0.15684314816E+04  0.15684314816E+04  0.00000000000E+00 0. -1.
          2   -1    0    0  501    0  0.00000000000E+00 -0.00000000000E+00 -0.29372188569E+04  0.29372188569E+04  0.00000000000E+00 0.  1.
         23    2    1    2    0    0 -0.15224155874E+04  0.11875214104E+04  0.29698932108E+03  0.19555977266E+04  0.90573123988E+02 0.  0.
         11    1    3    3    0    0 -0.94508476069E+03  0.68127088467E+03  0.17447721288E+03  0.11780312054E+04  0.00000000000E+00 0. -1.
        -11    1    3    3    0    0 -0.57733082671E+03  0.50625052568E+03  0.12251210821E+03  0.77756652119E+03  0.00000000000E+00 0.  1.
         22    1    1    2    0    0  0.15224155874E+04 -0.11875214104E+04 -0.16657766964E+04  0.25500526118E+04  0.00000000000E+00 0.  1.
<mgrwt>
<rscale>  0 0.42927038E+04</rscale>
<asrwt>0</asrwt>
<pdfrwt beam="1">  1        2 0.45187982E+00 0.42927038E+04</pdfrwt>
<pdfrwt beam="2">  1       -2 0.24129715E+00 0.42927038E+04</pdfrwt>
<totfact> 0.10670994E-01</totfact>
</mgrwt>
</event>
<event>
 6    1  0.5026615E-004  0.2300850E+04  0.7818608E-02  0.8477586E-01
          2   -1    0    0  501    0  0.00000000000E+00  0.00000000000E+00  0.25555766143E+04  0.25555766143E+04  0.00000000000E+00 0.  1.
         -2   -1    0    0    0  501 -0.00000000000E+00 -0.00000000000E+00 -0.51787845413E+03  0.51787845413E+03  0.00000000000E+00 0. -1.
         23    2    1    2    0    0  0.11226777565E+04  0.19614184319E+03  0.12118435418E+04  0.16660060220E+04  0.90190508300E+02 0.  0.
         11    1    3    3    0    0  0.19627510836E+03  0.20652173959E+02  0.16604300288E+03  0.25791608956E+03  0.00000000000E+00 0. -1.
        -11    1    3    3    0    0  0.92640264818E+03  0.17548966923E+03  0.10458005389E+04  0.14080899324E+04  0.00000000000E+00 0.  1.
         22    1    1    2    0    0 -0.11226777565E+04 -0.19614184319E+03  0.82585461839E+03  0.14074490465E+04  0.00000000000E+00 0.  1.
<mgrwt>
<rscale>  0 0.23008503E+04</rscale>
<asrwt>0</asrwt>
<pdfrwt beam="1">  1        2 0.39316563E+00 0.23008503E+04</pdfrwt>
<pdfrwt beam="2">  1       -2 0.79673610E-01 0.23008503E+04</pdfrwt>
<totfact> 0.40866086E+00</totfact>
</mgrwt>
</event>
<event>
 6    1  0.5026615E-004  0.1005266E+04  0.7818608E-02  0.9302788E-01
         -4   -1    0    0    0  501 -0.00000000000E+00  0.00000000000E+00  0.30912625022E+03  0.30912625022E+03  0.00000000000E+00 0. -1.
          4   -1    0    0  501    0  0.00000000000E+00 -0.00000000000E+00 -0.81727149567E+03  0.81727149567E+03  0.00000000000E+00 0.  1.
         23    2    1    2    0    0  0.28331438462E+03 -0.38284514283E+03 -0.91425542979E+02  0.49355277724E+03  0.91642075991E+02 0.  0.
         11    1    3    3    0    0  0.23243589612E+03 -0.32981854533E+03 -0.10907339973E+03  0.41797574712E+03  0.00000000000E+00 0. -1.
        -11    1    3    3    0    0  0.50878488498E+02 -0.53026597505E+02  0.17647856753E+02  0.75577030126E+02  0.00000000000E+00 0.  1.
         22    1    1    2    0    0 -0.28331438462E+03  0.38284514283E+03 -0.41671970247E+03  0.63284496865E+03  0.00000000000E+00 0.  1.
<mgrwt>
<rscale>  0 0.10052663E+04</rscale>
<asrwt>0</asrwt>
<pdfrwt beam="1">  1        4 0.12573408E+00 0.10052663E+04</pdfrwt>
<pdfrwt beam="2">  1       -4 0.47557885E-01 0.10052663E+04</pdfrwt>
<totfact> 0.39998091E+00</totfact>
</mgrwt>
</event>
<event>
 6    1  0.5026615E-004  0.6029971E+04  0.7818608E-02  0.7686697E-01
          2   -1    0    0  501    0  0.00000000000E+00  0.00000000000E+00  0.38362063351E+04  0.38362063351E+04  0.00000000000E+00 0.  1.
         -2   -1    0    0    0  501 -0.00000000000E+00 -0.00000000000E+00 -0.23695641561E+04  0.23695641561E+04  0.00000000000E+00 0. -1.
         23    2    1    2    0    0  0.11855587899E+04 -0.61388830327E+03 -0.20477662279E+04  0.24463190759E+04  0.93391669623E+02 0.  0.
         13    1    3    3    0    0  0.57494868055E+03 -0.30765005418E+03 -0.10840032826E+04  0.12650208132E+04  0.00000000000E+00 0. -1.
        -13    1    3    3    0    0  0.61061010931E+03 -0.30623824909E+03 -0.96376294528E+03  0.11812982627E+04  0.00000000000E+00 0.  1.
         22    1    1    2    0    0 -0.11855587899E+04  0.61388830327E+03  0.35144084070E+04  0.37594514153E+04  0.00000000000E+00 0.  1.
<mgrwt>
<rscale>  0 0.60299708E+04</rscale>
<asrwt>0</asrwt>
<pdfrwt beam="1">  1        2 0.59018559E+00 0.60299708E+04</pdfrwt>
<pdfrwt beam="2">  1       -2 0.36454833E+00 0.60299708E+04</pdfrwt>
<totfact> 0.38777856E-03</totfact>
</mgrwt>
</event>
<event>
 6    1  0.8680299E-004  0.3027692E+04  0.7818608E-02  0.8235867E-01
         -2   -1    0    0    0  501 -0.00000000000E+00  0.00000000000E+00  0.19755674377E+04  0.19755674377E+04  0.00000000000E+00 0. -1.
          2   -1    0    0  501    0  0.00000000000E+00 -0.00000000000E+00 -0.11600360263E+04  0.11600360263E+04  0.00000000000E+00 0.  1.
         23    2    1    2    0    0 -0.61126195749E+03 -0.11509032672E+03 -0.10196331813E+04  0.11978944955E+04  0.91719320704E+02 0.  0.
         11    1    3    3    0    0 -0.31920848660E+03 -0.10378798739E+03 -0.51484256696E+03  0.61459651235E+03  0.00000000000E+00 0. -1.
        -11    1    3    3    0    0 -0.29205347090E+03 -0.11302339336E+02 -0.50479061437E+03  0.58329798310E+03  0.00000000000E+00 0.  1.
         22    1    1    2    0    0  0.61126195749E+03  0.11509032672E+03  0.18351645928E+04  0.19377089685E+04  0.00000000000E+00 0. -1.
<mgrwt>
<rscale>  0 0.30276918E+04</rscale>
<asrwt>0</asrwt>
<pdfrwt beam="1">  1        2 0.17846708E+00 0.30276918E+04</pdfrwt>
<pdfrwt beam="2">  1       -2 0.30393345E+00 0.30276918E+04</pdfrwt>
<totfact> 0.51405968E-01</totfact>
</mgrwt>
</event>
<event>
 6    1  0.5026615E-004  0.6374145E+04  0.7818608E-02  0.7645667E-01
         -2   -1    0    0    0  501 -0.00000000000E+00  0.00000000000E+00  0.20530102531E+04  0.20530102531E+04  0.00000000000E+00 0. -1.
          2   -1    0    0  501    0  0.00000000000E+00 -0.00000000000E+00 -0.49475800775E+04  0.49475800775E+04  0.00000000000E+00 0.  1.
         23    2    1    2    0    0  0.97515073748E+03 -0.26470785358E+04 -0.30749131744E+04  0.41738488392E+04  0.89327302155E+02 0.  0.
         11    1    3    3    0    0  0.52692287070E+03 -0.15375939163E+04 -0.18064311667E+04  0.24300280499E+04  0.00000000000E+00 0.  1.
        -11    1    3    3    0    0  0.44822786679E+03 -0.11094846194E+04 -0.12684820077E+04  0.17438207893E+04  0.00000000000E+00 0. -1.
         22    1    1    2    0    0 -0.97515073748E+03  0.26470785358E+04  0.18034335001E+03  0.28267414914E+04  0.00000000000E+00 0.  1.
<mgrwt>
<rscale>  0 0.63741455E+04</rscale>
<asrwt>0</asrwt>
<pdfrwt beam="1">  1        2 0.76116617E+00 0.63741455E+04</pdfrwt>
<pdfrwt beam="2">  1       -2 0.31584773E+00 0.63741455E+04</pdfrwt>
<totfact> 0.64876986E-04</totfact>
</mgrwt>
</event>
<event>
 6    1  0.5026615E-004  0.1126232E+04  0.7818608E-02  0.9179995E-01
          1   -1    0    0  501    0  0.00000000000E+00  0.00000000000E+00  0.88074768048E+03  0.88074768048E+03  0.00000000000E+00 0.  1.
         -1   -1    0    0    0  501 -0.00000000000E+00 -0.00000000000E+00 -0.36003452140E+03  0.36003452140E+03  0.00000000000E+00 0. -1.
         23    2    1    2    0    0  0.17877034058E+03 -0.52366776244E+03  0.35688554467E+03  0.66369793824E+03  0.83312070850E+02 0.  0.
         13    1    3    3    0    0  0.90883003563E+02 -0.14727251262E+03  0.10986980028E+03  0.20498850291E+03  0.00000000000E+00 0.  1.
        -13    1    3    3    0    0  0.87887337015E+02 -0.37639524981E+03  0.24701574440E+03  0.45870943534E+03  0.00000000000E+00 0. -1.
         22    1    1    2    0    0 -0.17877034058E+03  0.52366776244E+03  0.16382761441E+03  0.57708426363E+03  0.00000000000E+00 0.  1.
<mgrwt>
<rscale>  0 0.11262319E+04</rscale>
<asrwt>0</asrwt>
<pdfrwt beam="1">  1        1 0.13549964E+00 0.11262319E+04</pdfrwt>
<pdfrwt beam="2">  1       -1 0.55389927E-01 0.11262319E+04</pdfrwt>
<totfact> 0.61869664E+01</totfact>
</mgrwt>
</event>
<event>
 6    1  0.5026615E-004  0.2131972E+04  0.7818608E-02  0.8547289E-01
         -2   -1    0    0    0  501 -0.00000000000E+00  0.00000000000E+00  0.13594177310E+04  0.13594177310E+04  0.00000000000E+00 0. -1.
          2   -1    0    0  501    0  0.00000000000E+00 -0.00000000000E+00 -0.83589212874E+03  0.83589212874E+03  0.00000000000E+00 0.  1.
         23    2    1    2    0    0  0.43435406882E+03  0.73080761435E+03 -0.39656058303E+03  0.94259208841E+03  0.92066947475E+02 0.  0.
         11    1    3    3    0    0  0.29630890506E+03  0.50340828654E+03 -0.22459630079E+03  0.62582934455E+03  0.00000000000E+00 0. -1.
        -11    1    3    3    0    0  0.13804516377E+03  0.22739932781E+03 -0.17196428224E+03  0.31676274385E+03  0.00000000000E+00 0.  1.
         22    1    1    2    0    0 -0.43435406882E+03 -0.73080761435E+03  0.92008618531E+03  0.12527177714E+04  0.00000000000E+00 0. -1.
<mgrwt>
<rscale>  0 0.21319724E+04</rscale>
<asrwt>0</asrwt>
<pdfrwt beam="1">  1        2 0.12859879E+00 0.21319724E+04</pdfrwt>
<pdfrwt beam="2">  1       -2 0.20914119E+00 0.21319724E+04</pdfrwt>
<totfact> 0.34599562E+00</totfact>
</mgrwt>
</event>
<event>
 6    1  0.5026615E-004  0.1840853E+04  0.7818608E-02  0.8684871E-01
          2   -1    0    0  501    0  0.00000000000E+00  0.00000000000E+00  0.34540258218E+04  0.34540258218E+04  0.00000000000E+00 0.  1.
         -2   -1    0    0    0  501 -0.00000000000E+00 -0.00000000000E+00 -0.24527457787E+03  0.24527457787E+03  0.00000000000E+00 0. -1.
         23    2    1    2    0    0  0.28138474846E+03  0.87350959197E+03  0.15501710997E+04  0.18037570795E+04  0.91174445343E+02 0.  0.
         11    1    3    3    0    0  0.69028056144E+02  0.26310218500E+03  0.53789850574E+03  0.60276233689E+03  0.00000000000E+00 0. -1.
        -11    1    3    3    0    0  0.21235669231E+03  0.61040740697E+03  0.10122725940E+04  0.12009947426E+04  0.00000000000E+00 0.  1.
         22    1    1    2    0    0 -0.28138474846E+03 -0.87350959197E+03  0.16585801442E+04  0.18955433202E+04  0.00000000000E+00 0.  1.
<mgrwt>
<rscale>  0 0.18408528E+04</rscale>
<asrwt>0</asrwt>
<pdfrwt beam="1">  1        2 0.53138855E+00 0.18408528E+04</pdfrwt>
<pdfrwt beam="2">  1       -2 0.37734553E-01 0.18408528E+04</pdfrwt>
<totfact> 0.54964670E+00</totfact>
</mgrwt>
</event>
<event>
 6    1  0.5026615E-004  0.1498762E+04  0.7818608E-02  0.8885276E-01
          2   -1    0    0  501    0  0.00000000000E+00  0.00000000000E+00  0.18597009237E+04  0.18597009237E+04  0.00000000000E+00 0.  1.
         -2   -1    0    0    0  501 -0.00000000000E+00 -0.00000000000E+00 -0.30196909632E+03  0.30196909632E+03  0.00000000000E+00 0. -1.
         23    2    1    2    0    0  0.18119321408E+03 -0.38643059394E+02  0.18247538729E+04  0.18366699590E+04  0.96465406526E+02 0.  0.
         13    1    3    3    0    0  0.63062366097E+02  0.12704131637E+02  0.98461489876E+03  0.98671412063E+03  0.00000000000E+00 0.  1.
        -13    1    3    3    0    0  0.11813084798E+03 -0.51347191030E+02  0.84013897415E+03  0.84995583836E+03  0.00000000000E+00 0. -1.
         22    1    1    2    0    0 -0.18119321408E+03  0.38643059394E+02 -0.26702204554E+03  0.32500006103E+03  0.00000000000E+00 0. -1.
<mgrwt>
<rscale>  0 0.14987624E+04</rscale>
<asrwt>0</asrwt>
<pdfrwt beam="1">  1        2 0.28610783E+00 0.14987624E+04</pdfrwt>
<pdfrwt beam="2">  1       -2 0.46456785E-01 0.14987624E+04</pdfrwt>
<totfact> 0.33938135E+01</totfact>
</mgrwt>
</event>
<event>
 6    1  0.5026615E-004  0.1846806E+04  0.7818608E-02  0.8681797E-01
         -2   -1    0    0    0  501 -0.00000000000E+00  0.00000000000E+00  0.10470766196E+04  0.10470766196E+04  0.00000000000E+00 0. -1.
          2   -1    0    0  501    0  0.00000000000E+00 -0.00000000000E+00 -0.81433682100E+03  0.81433682100E+03  0.00000000000E+00 0.  1.
         23    2    1    2    0    0 -0.23284525446E+03  0.14351648770E+03  0.10031407043E+04  0.10438980278E+04  0.92832780516E+02 0.  0.
         11    1    3    3    0    0 -0.16702370820E+03  0.71005879800E+02  0.76852830294E+03  0.78966733912E+03  0.00000000000E+00 0. -1.
        -11    1    3    3    0    0 -0.65821546259E+02  0.72510607896E+02  0.23461240132E+03  0.25423068867E+03  0.00000000000E+00 0.  1.
         22    1    1    2    0    0  0.23284525446E+03 -0.14351648770E+03 -0.77040090565E+03  0.81751541281E+03  0.00000000000E+00 0.  1.
<mgrwt>
<rscale>  0 0.18468059E+04</rscale>
<asrwt>0</asrwt>
<pdfrwt beam="1">  1        2 0.12528259E+00 0.18468059E+04</pdfrwt>
<pdfrwt beam="2">  1       -2 0.16108871E+00 0.18468059E+04</pdfrwt>
<totfact> 0.78196412E+00</totfact>
</mgrwt>
</event>
<event>
 6    1  0.5026615E-004  0.1701509E+04  0.7818608E-02  0.8760504E-01
         -2   -1    0    0    0  501 -0.00000000000E+00  0.00000000000E+00  0.27443394871E+03  0.27443394871E+03  0.00000000000E+00 0. -1.
          2   -1    0    0  501    0  0.00000000000E+00 -0.00000000000E+00 -0.26373680175E+04  0.26373680175E+04  0.00000000000E+00 0.  1.
         23    2    1    2    0    0  0.41529821805E+03 -0.40001476485E+03 -0.22500044504E+04  0.23242328037E+04  0.83986172528E+02 0.  0.
         13    1    3    3    0    0  0.11651247447E+03 -0.86787889162E+02 -0.44819608115E+03  0.47115498678E+03  0.00000000000E+00 0.  1.
        -13    1    3    3    0    0  0.29878574358E+03 -0.31322687568E+03 -0.18018083692E+04  0.18530778170E+04  0.00000000000E+00 0. -1.
         22    1    1    2    0    0 -0.41529821805E+03  0.40001476485E+03 -0.11292961844E+03  0.58756916251E+03  0.00000000000E+00 0. -1.
<mgrwt>
<rscale>  0 0.17015091E+04</rscale>
<asrwt>0</asrwt>
<pdfrwt beam="1">  1        2 0.40574893E+00 0.17015091E+04</pdfrwt>
<pdfrwt beam="2">  1       -2 0.42220607E-01 0.17015091E+04</pdfrwt>
<totfact> 0.14668492E+01</totfact>
</mgrwt>
</event>
<event>
 6    1  0.5026615E-004  0.1995854E+04  0.7818608E-02  0.8608562E-01
         -2   -1    0    0    0  501 -0.00000000000E+00  0.00000000000E+00  0.64719414635E+03  0.64719414635E+03  0.00000000000E+00 0. -1.
          2   -1    0    0  501    0  0.00000000000E+00 -0.00000000000E+00 -0.15387317160E+04  0.15387317160E+04  0.00000000000E+00 0.  1.
         23    2    1    2    0    0 -0.49726315634E+03 -0.44071517588E+03 -0.12590827617E+04  0.14265906392E+04  0.91492831618E+02 0.  0.
         11    1    3    3    0    0 -0.21564788023E+03 -0.17582011006E+03 -0.43582443873E+03  0.51706833276E+03  0.00000000000E+00 0. -1.
        -11    1    3    3    0    0 -0.28161527611E+03 -0.26489506582E+03 -0.82325832298E+03  0.90952230649E+03  0.00000000000E+00 0.  1.
         22    1    1    2    0    0  0.49726315634E+03  0.44071517588E+03  0.36754519204E+03  0.75933522313E+03  0.00000000000E+00 0. -1.
<mgrwt>
<rscale>  0 0.19958539E+04</rscale>
<asrwt>0</asrwt>
<pdfrwt beam="1">  1        2 0.23672796E+00 0.19958539E+04</pdfrwt>
<pdfrwt beam="2">  1       -2 0.99568330E-01 0.19958539E+04</pdfrwt>
<totfact> 0.93629400E+00</totfact>
</mgrwt>
</event>
<event>
 6    1  0.5026615E-004  0.2342207E+04  0.7818608E-02  0.8461463E-01
         -2   -1    0    0    0  501 -0.00000000000E+00  0.00000000000E+00  0.42068879767E+03  0.42068879767E+03  0.00000000000E+00 0. -1.
          2   -1    0    0  501    0  0.00000000000E+00 -0.00000000000E+00 -0.32600895185E+04  0.32600895185E+04  0.00000000000E+00 0.  1.
         23    2    1    2    0    0  0.74756730695E+03 -0.72533134532E+03 -0.22563955670E+04  0.24871043874E+04  0.96978554495E+02 0.  0.
         13    1    3    3    0    0  0.51491179412E+02 -0.55587887664E+02 -0.11242575274E+03  0.13557619515E+03  0.00000000000E+00 0. -1.
        -13    1    3    3    0    0  0.69607612754E+03 -0.66974345765E+03 -0.21439698142E+04  0.23515281922E+04  0.00000000000E+00 0.  1.
         22    1    1    2    0    0 -0.74756730695E+03  0.72533134532E+03 -0.58300515386E+03  0.11936739288E+04  0.00000000000E+00 0. -1.
<mgrwt>
<rscale>  0 0.23422068E+04</rscale>
<asrwt>0</asrwt>
<pdfrwt beam="1">  1        2 0.50155225E+00 0.23422068E+04</pdfrwt>
<pdfrwt beam="2">  1       -2 0.64721351E-01 0.23422068E+04</pdfrwt>
<totfact> 0.23604494E+00</totfact>
</mgrwt>
</event>
<event>
 6    1  0.5026615E-004  0.1556097E+04  0.7818608E-02  0.8847983E-01
          2   -1    0    0  501    0  0.00000000000E+00  0.00000000000E+00  0.41454827675E+03  0.41454827675E+03  0.00000000000E+00 0.  1.
         -2   -1    0    0    0  501 -0.00000000000E+00 -0.00000000000E+00 -0.14602871632E+04  0.14602871632E+04  0.00000000000E+00 0. -1.
         23    2    1    2    0    0 -0.44643499412E+03  0.16726870393E+03 -0.12614648554E+04  0.13515566261E+04  0.90159353075E+02 0.  0.
         11    1    3    3    0    0 -0.18452980489E+03  0.56092759052E+02 -0.39497812789E+03  0.43955132581E+03  0.00000000000E+00 0.  1.
        -11    1    3    3    0    0 -0.26190518923E+03  0.11117594487E+03 -0.86648672748E+03  0.91200530029E+03  0.00000000000E+00 0. -1.
         22    1    1    2    0    0  0.44643499412E+03 -0.16726870393E+03  0.21572596897E+03  0.52327881380E+03  0.00000000000E+00 0.  1.
<mgrwt>
<rscale>  0 0.15560971E+04</rscale>
<asrwt>0</asrwt>
<pdfrwt beam="1">  1        2 0.63776657E-01 0.15560971E+04</pdfrwt>
<pdfrwt beam="2">  1       -2 0.22465957E+00 0.15560971E+04</pdfrwt>
<totfact> 0.67824600E+00</totfact>
</mgrwt>
</event>
<event>
 6    1  0.5026615E-004  0.2695480E+04  0.7818608E-02  0.8336473E-01
          2   -1    0    0  501    0  0.00000000000E+00  0.00000000000E+00  0.14767071313E+04  0.14767071313E+04  0.00000000000E+00 0.  1.
         -2   -1    0    0    0  501 -0.00000000000E+00 -0.00000000000E+00 -0.12300361435E+04  0.12300361435E+04  0.00000000000E+00 0. -1.
         23    2    1    2    0    0 -0.11767770090E+04 -0.96877418686E+02 -0.52587210982E+03  0.12957109573E+04  0.90200031745E+02 0.  0.
         11    1    3    3    0    0 -0.11236822706E+04 -0.78510653809E+02 -0.48586260656E+03  0.12267388640E+04  0.00000000000E+00 0.  1.
        -11    1    3    3    0    0 -0.53094738452E+02 -0.18366764876E+02 -0.40009503255E+02  0.68972093298E+02  0.00000000000E+00 0. -1.
         22    1    1    2    0    0  0.11767770090E+04  0.96877418686E+02  0.77254309760E+03  0.14110323174E+04  0.00000000000E+00 0.  1.
<mgrwt>
<rscale>  0 0.26954800E+04</rscale>
<asrwt>0</asrwt>
<pdfrwt beam="1">  1        2 0.22718571E+00 0.26954800E+04</pdfrwt>
<pdfrwt beam="2">  1       -2 0.18923633E+00 0.26954800E+04</pdfrwt>
<totfact> 0.18013835E+00</totfact>
</mgrwt>
</event>
<event>
 6    1  0.5026615E-004  0.1679840E+04  0.7818608E-02  0.8772947E-01
          2   -1    0    0  501    0  0.00000000000E+00  0.00000000000E+00  0.17542441474E+04  0.17542441474E+04  0.00000000000E+00 0.  1.
         -2   -1    0    0    0  501 -0.00000000000E+00 -0.00000000000E+00 -0.40214768144E+03  0.40214768144E+03  0.00000000000E+00 0. -1.
         23    2    1    2    0    0 -0.29609276133E+03 -0.74516493715E+03  0.98810948493E+03  0.12758078015E+04  0.91561373887E+02 0.  0.
         13    1    3    3    0    0 -0.10725579122E+03 -0.30783049783E+03  0.47010364939E+03  0.57206718252E+03  0.00000000000E+00 0.  1.
        -13    1    3    3    0    0 -0.18883697011E+03 -0.43733443931E+03  0.51800583554E+03  0.70374061894E+03  0.00000000000E+00 0. -1.
         22    1    1    2    0    0  0.29609276133E+03  0.74516493715E+03  0.36398698100E+03  0.88058402734E+03  0.00000000000E+00 0. -1.
<mgrwt>
<rscale>  0 0.16798395E+04</rscale>
<asrwt>0</asrwt>
<pdfrwt beam="1">  1        2 0.26988371E+00 0.16798395E+04</pdfrwt>
<pdfrwt beam="2">  1       -2 0.61868875E-01 0.16798395E+04</pdfrwt>
<totfact> 0.21155993E+01</totfact>
</mgrwt>
</event>
<event>
 6    1  0.5026615E-004  0.4481630E+03  0.7818608E-02  0.1028271E+00
          2   -1    0    0  501    0  0.00000000000E+00  0.00000000000E+00  0.13372573701E+04  0.13372573701E+04  0.00000000000E+00 0.  1.
         -2   -1    0    0    0  501 -0.00000000000E+00 -0.00000000000E+00 -0.37548880331E+02  0.37548880331E+02  0.00000000000E+00 0. -1.
         23    2    1    2    0    0  0.24509228928E+02  0.14813321793E+03  0.11483570660E+04  0.11616128968E+04  0.89868895552E+02 0.  0.
         11    1    3    3    0    0 -0.21072549714E+02  0.17994624273E+02  0.37784046112E+03  0.37885521365E+03  0.00000000000E+00 0.  1.
        -11    1    3    3    0    0  0.45581778642E+02  0.13013859366E+03  0.77051660491E+03  0.78275768316E+03  0.00000000000E+00 0. -1.
         22    1    1    2    0    0 -0.24509228928E+02 -0.14813321793E+03  0.15135142374E+03  0.21319335362E+03  0.00000000000E+00 0. -1.
<mgrwt>
<rscale>  0 0.44816299E+03</rscale>
<asrwt>0</asrwt>
<pdfrwt beam="1">  1        2 0.20573187E+00 0.44816299E+03</pdfrwt>
<pdfrwt beam="2">  1       -2 0.57767518E-02 0.44816299E+03</pdfrwt>
<totfact> 0.26242320E+03</totfact>
</mgrwt>
</event>
<event>
 6    1  0.5026615E-004  0.1917268E+04  0.7818608E-02  0.8646308E-01
         -2   -1    0    0    0  501 -0.00000000000E+00  0.00000000000E+00  0.27475660533E+03  0.27475660533E+03  0.00000000000E+00 0. -1.
          2   -1    0    0  501    0  0.00000000000E+00 -0.00000000000E+00 -0.33447040470E+04  0.33447040470E+04  0.00000000000E+00 0.  1.
         23    2    1    2    0    0 -0.99505970838E+02  0.24153049947E+03 -0.32756953746E+04  0.32869390255E+04  0.74495298363E+02 0.  0.
         13    1    3    3    0    0 -0.58260435741E+01  0.44498404174E+02 -0.94184862332E+03  0.94291721801E+03  0.00000000000E+00 0.  1.
        -13    1    3    3    0    0 -0.93679927264E+02  0.19703209530E+03 -0.23338467513E+04  0.23440218074E+04  0.00000000000E+00 0. -1.
         22    1    1    2    0    0  0.99505970838E+02 -0.24153049947E+03  0.20574793295E+03  0.33252162685E+03  0.00000000000E+00 0. -1.
<mgrwt>
<rscale>  0 0.19172684E+04</rscale>
<asrwt>0</asrwt>
<pdfrwt beam="1">  1        2 0.51456986E+00 0.19172684E+04</pdfrwt>
<pdfrwt beam="2">  1       -2 0.42270247E-01 0.19172684E+04</pdfrwt>
<totfact> 0.51847735E+00</totfact>
</mgrwt>
</event>
<event>
 6    1  0.5026615E-004  0.1701188E+04  0.7818608E-02  0.8760687E-01
         -2   -1    0    0    0  501 -0.00000000000E+00  0.00000000000E+00  0.35087808983E+03  0.35087808983E+03  0.00000000000E+00 0. -1.
          2   -1    0    0  501    0  0.00000000000E+00 -0.00000000000E+00 -0.20619981361E+04  0.20619981361E+04  0.00000000000E+00 0.  1.
         23    2    1    2    0    0  0.28744686699E+03  0.58599506556E+03 -0.16260421435E+04  0.17546557707E+04  0.93743815305E+02 0.  0.
         13    1    3    3    0    0  0.22445053422E+03  0.35563571883E+03 -0.10460772260E+04  0.11274450627E+04  0.00000000000E+00 0. -1.
        -13    1    3    3    0    0  0.62996332763E+02  0.23035934673E+03 -0.57996491754E+03  0.62721070793E+03  0.00000000000E+00 0.  1.
         22    1    1    2    0    0 -0.28744686699E+03 -0.58599506556E+03 -0.85077902786E+02  0.65822045528E+03  0.00000000000E+00 0. -1.
<mgrwt>
<rscale>  0 0.17011878E+04</rscale>
<asrwt>0</asrwt>
<pdfrwt beam="1">  1        2 0.31723048E+00 0.17011878E+04</pdfrwt>
<pdfrwt beam="2">  1       -2 0.53981245E-01 0.17011878E+04</pdfrwt>
<totfact> 0.18978887E+01</totfact>
</mgrwt>
</event>
<event>
 6    1  0.5026615E-004  0.3573468E+04  0.7818608E-02  0.8096596E-01
          2   -1    0    0  501    0  0.00000000000E+00  0.00000000000E+00  0.18333834310E+04  0.18333834310E+04  0.00000000000E+00 0.  1.
         -2   -1    0    0    0  501 -0.00000000000E+00 -0.00000000000E+00 -0.17412717748E+04  0.17412717748E+04  0.00000000000E+00 0. -1.
         23    2    1    2    0    0  0.32478874048E+03  0.72620305228E+03  0.16451597787E+04  0.18297147857E+04  0.91907020201E+02 0.  0.
         11    1    3    3    0    0  0.18406185295E+03  0.30165934718E+03  0.74521892942E+03  0.82475958935E+03  0.00000000000E+00 0. -1.
        -11    1    3    3    0    0  0.14072688753E+03  0.42454370510E+03  0.89994084926E+03  0.10049551963E+04  0.00000000000E+00 0.  1.
         22    1    1    2    0    0 -0.32478874048E+03 -0.72620305228E+03 -0.15530481225E+04  0.17449404201E+04  0.00000000000E+00 0. -1.
<mgrwt>
<rscale>  0 0.35734682E+04</rscale>
<asrwt>0</asrwt>
<pdfrwt beam="1">  1        2 0.28205899E+00 0.35734682E+04</pdfrwt>
<pdfrwt beam="2">  1       -2 0.26788796E+00 0.35734682E+04</pdfrwt>
<totfact> 0.33720904E-01</totfact>
</mgrwt>
</event>
<event>
 6    1  0.5026615E-004  0.3988822E+04  0.7818608E-02  0.8006805E-01
          2   -1    0    0  501    0  0.00000000000E+00  0.00000000000E+00  0.11407111127E+04  0.11407111127E+04  0.00000000000E+00 0.  1.
         -2   -1    0    0    0  501 -0.00000000000E+00 -0.00000000000E+00 -0.34870129861E+04  0.34870129861E+04  0.00000000000E+00 0. -1.
         23    2    1    2    0    0 -0.12094728926E+03  0.12446848207E+04 -0.29751624538E+04  0.32279619122E+04  0.65405886107E+02 0.  0.
         13    1    3    3    0    0 -0.12827665146E+03  0.11488306019E+04 -0.27598458887E+04  0.29921590834E+04  0.00000000000E+00 0.  1.
        -13    1    3    3    0    0  0.73293621949E+01  0.95854218860E+02 -0.21531656513E+03  0.23580282874E+03  0.00000000000E+00 0. -1.
         22    1    1    2    0    0  0.12094728926E+03 -0.12446848207E+04  0.62886058042E+03  0.13997621867E+04  0.00000000000E+00 0.  1.
<mgrwt>
<rscale>  0 0.39888216E+04</rscale>
<asrwt>0</asrwt>
<pdfrwt beam="1">  1        2 0.17549402E+00 0.39888216E+04</pdfrwt>
<pdfrwt beam="2">  1       -2 0.53646354E+00 0.39888216E+04</pdfrwt>
<totfact> 0.16382731E-02</totfact>
</mgrwt>
</event>
<event>
 6    1  0.5026615E-004  0.3746329E+04  0.7818608E-02  0.8057772E-01
          2   -1    0    0  501    0  0.00000000000E+00  0.00000000000E+00  0.26001615798E+04  0.26001615798E+04  0.00000000000E+00 0.  1.
         -2   -1    0    0    0  501 -0.00000000000E+00 -0.00000000000E+00 -0.13494332042E+04  0.13494332042E+04  0.00000000000E+00 0. -1.
         23    2    1    2    0    0  0.14215380747E+04 -0.10297637819E+04 -0.60318929743E+02  0.17586979400E+04  0.90532461329E+02 0.  0.
         11    1    3    3    0    0  0.11195735268E+04 -0.78514115264E+03 -0.15715266052E+02  0.13675300659E+04  0.00000000000E+00 0.  1.
        -11    1    3    3    0    0  0.30196454782E+03 -0.24462262927E+03 -0.44603663690E+02  0.39116787407E+03  0.00000000000E+00 0. -1.
         22    1    1    2    0    0 -0.14215380747E+04  0.10297637819E+04  0.13110473053E+04  0.21908968440E+04  0.00000000000E+00 0.  1.
<mgrwt>
<rscale>  0 0.37463285E+04</rscale>
<asrwt>0</asrwt>
<pdfrwt beam="1">  1        2 0.40002486E+00 0.37463285E+04</pdfrwt>
<pdfrwt beam="2">  1       -2 0.20760511E+00 0.37463285E+04</pdfrwt>
<totfact> 0.29070540E-01</totfact>
</mgrwt>
</event>
<event>
 6    1  0.5026615E-004  0.1478911E+04  0.7818608E-02  0.8898599E-01
         -2   -1    0    0    0  501 -0.00000000000E+00  0.00000000000E+00  0.26325910328E+03  0.26325910328E+03  0.00000000000E+00 0. -1.
          2   -1    0    0  501    0  0.00000000000E+00 -0.00000000000E+00 -0.20770203071E+04  0.20770203071E+04  0.00000000000E+00 0.  1.
         23    2    1    2    0    0 -0.51050765827E+03 -0.51782372222E+03 -0.71513430638E+03  0.10228043494E+04  0.77150402512E+02 0.  0.
         13    1    3    3    0    0 -0.18445501176E+03 -0.15609016693E+03 -0.19733774799E+03  0.31197752861E+03  0.00000000000E+00 0. -1.
        -13    1    3    3    0    0 -0.32605264651E+03 -0.36173355529E+03 -0.51779655839E+03  0.71082682082E+03  0.00000000000E+00 0.  1.
         22    1    1    2    0    0  0.51050765827E+03  0.51782372222E+03 -0.10986268974E+04  0.13174750609E+04  0.00000000000E+00 0.  1.
<mgrwt>
<rscale>  0 0.14789111E+04</rscale>
<asrwt>0</asrwt>
<pdfrwt beam="1">  1        2 0.31954158E+00 0.14789111E+04</pdfrwt>
<pdfrwt beam="2">  1       -2 0.40501402E-01 0.14789111E+04</pdfrwt>
<totfact> 0.33824812E+01</totfact>
</mgrwt>
</event>
<event>
 6    1  0.5026615E-004  0.4160582E+03  0.7818608E-02  0.1038357E+00
          2   -1    0    0  501    0  0.00000000000E+00  0.00000000000E+00  0.80857358385E+03  0.80857358385E+03  0.00000000000E+00 0.  1.
         -2   -1    0    0    0  501 -0.00000000000E+00 -0.00000000000E+00 -0.53521556520E+02  0.53521556520E+02  0.00000000000E+00 0. -1.
         23    2    1    2    0    0  0.10703089835E+03  0.14915124675E+03  0.55131257945E+03  0.58784804334E+03  0.88983448969E+02 0.  0.
         11    1    3    3    0    0  0.65001273219E+02  0.12573090111E+03  0.48929117944E+03  0.50935182663E+03  0.00000000000E+00 0.  1.
        -11    1    3    3    0    0  0.42029625127E+02  0.23420345643E+02  0.62021400003E+02  0.78496216703E+02  0.00000000000E+00 0. -1.
         22    1    1    2    0    0 -0.10703089835E+03 -0.14915124675E+03  0.20373944789E+03  0.27424709704E+03  0.00000000000E+00 0. -1.
<mgrwt>
<rscale>  0 0.41605825E+03</rscale>
<asrwt>0</asrwt>
<pdfrwt beam="1">  1        2 0.12439593E+00 0.41605825E+03</pdfrwt>
<pdfrwt beam="2">  1       -2 0.82340862E-02 0.41605825E+03</pdfrwt>
<totfact> 0.31772022E+03</totfact>
</mgrwt>
</event>
<event>
 6    1  0.5026615E-004  0.3198167E+04  0.7818608E-02  0.8189301E-01
          2   -1    0    0  501    0  0.00000000000E+00  0.00000000000E+00  0.31205845598E+04  0.31205845598E+04  0.00000000000E+00 0.  1.
         -2   -1    0    0    0  501 -0.00000000000E+00 -0.00000000000E+00 -0.81941977213E+03  0.81941977213E+03  0.00000000000E+00 0. -1.
         23    2    1    2    0    0 -0.40471247634E+03  0.14156286721E+04  0.19160904948E+04  0.24181374071E+04  0.90493145933E+02 0.  0.
         13    1    3    3    0    0 -0.32012872745E+03  0.11976632641E+04  0.16519546201E+04  0.20653894943E+04  0.00000000000E+00 0.  1.
        -13    1    3    3    0    0 -0.84583748883E+02  0.21796540803E+03  0.26413587469E+03  0.35274791278E+03  0.00000000000E+00 0. -1.
         22    1    1    2    0    0  0.40471247634E+03 -0.14156286721E+04  0.38507429288E+03  0.15218669248E+04  0.00000000000E+00 0. -1.
<mgrwt>
<rscale>  0 0.31981674E+04</rscale>
<asrwt>0</asrwt>
<pdfrwt beam="1">  1        2 0.48008993E+00 0.31981674E+04</pdfrwt>
<pdfrwt beam="2">  1       -2 0.12606458E+00 0.31981674E+04</pdfrwt>
<totfact> 0.57656356E-01</totfact>
</mgrwt>
</event>
<event>
 6    1  0.5026615E-004  0.3243664E+04  0.7818608E-02  0.8177380E-01
         -2   -1    0    0    0  501 -0.00000000000E+00  0.00000000000E+00  0.11812793615E+04  0.11812793615E+04  0.00000000000E+00 0. -1.
          2   -1    0    0  501    0  0.00000000000E+00 -0.00000000000E+00 -0.22266860897E+04  0.22266860897E+04  0.00000000000E+00 0.  1.
         23    2    1    2    0    0 -0.91464004040E+03 -0.11096179137E+04  0.26212805878E+03  0.14643951445E+04  0.89015179188E+02 0.  0.
         13    1    3    3    0    0 -0.28027278369E+03 -0.40642536549E+03  0.89973406327E+02  0.50182628951E+03  0.00000000000E+00 0. -1.
        -13    1    3    3    0    0 -0.63436725671E+03 -0.70319254816E+03  0.17215465245E+03  0.96256885496E+03  0.00000000000E+00 0.  1.
         22    1    1    2    0    0  0.91464004040E+03  0.11096179137E+04 -0.13075347871E+04  0.19435703067E+04  0.00000000000E+00 0.  1.
<mgrwt>
<rscale>  0 0.32436636E+04</rscale>
<asrwt>0</asrwt>
<pdfrwt beam="1">  1        2 0.34256709E+00 0.32436636E+04</pdfrwt>
<pdfrwt beam="2">  1       -2 0.18173529E+00 0.32436636E+04</pdfrwt>
<totfact> 0.73826040E-01</totfact>
</mgrwt>
</event>
<event>
 6    1  0.5026615E-004  0.1027550E+04  0.7818608E-02  0.9278834E-01
          2   -1    0    0  501    0  0.00000000000E+00  0.00000000000E+00  0.22909203045E+04  0.22909203045E+04  0.00000000000E+00 0. -1.
         -2   -1    0    0    0  501 -0.00000000000E+00 -0.00000000000E+00 -0.11522216745E+03  0.11522216745E+03  0.00000000000E+00 0.  1.
         23    2    1    2    0    0  0.72534725633E+02 -0.46567407076E+03  0.64162987644E+03  0.80131255734E+03  0.91100436917E+02 0.  0.
         13    1    3    3    0    0  0.94068374213E+02 -0.35658339124E+03  0.49705595386E+03  0.61892260841E+03  0.00000000000E+00 0. -1.
        -13    1    3    3    0    0 -0.21533648579E+02 -0.10909067952E+03  0.14457392258E+03  0.18238994893E+03  0.00000000000E+00 0.  1.
         22    1    1    2    0    0 -0.72534725633E+02  0.46567407076E+03  0.15340682606E+04  0.16048299146E+04  0.00000000000E+00 0. -1.
<mgrwt>
<rscale>  0 0.10275501E+04</rscale>
<asrwt>0</asrwt>
<pdfrwt beam="1">  1        2 0.35244924E+00 0.10275501E+04</pdfrwt>
<pdfrwt beam="2">  1       -2 0.17726489E-01 0.10275501E+04</pdfrwt>
<totfact> 0.12156270E+02</totfact>
</mgrwt>
</event>
<event>
 6    1  0.5026615E-004  0.5041419E+04  0.7818608E-02  0.7822150E-01
         -2   -1    0    0    0  501 -0.00000000000E+00  0.00000000000E+00  0.27003185320E+04  0.27003185320E+04  0.00000000000E+00 0. -1.
          2   -1    0    0  501    0  0.00000000000E+00 -0.00000000000E+00 -0.23530468552E+04  0.23530468552E+04  0.00000000000E+00 0.  1.
         23    2    1    2    0    0  0.14865988570E+04  0.14695522959E+04 -0.12363628460E+04  0.24308745075E+04  0.10486978699E+03 0.  0.
         11    1    3    3    0    0  0.72717083019E+03  0.68180926376E+03 -0.64203457630E+03  0.11856853232E+04  0.00000000000E+00 0.  1.
        -11    1    3    3    0    0  0.75942802678E+03  0.78774303217E+03 -0.59432826968E+03  0.12451891843E+04  0.00000000000E+00 0. -1.
         22    1    1    2    0    0 -0.14865988570E+04 -0.14695522959E+04  0.15836345228E+04  0.26224908797E+04  0.00000000000E+00 0. -1.
<mgrwt>
<rscale>  0 0.50414189E+04</rscale>
<asrwt>0</asrwt>
<pdfrwt beam="1">  1        2 0.36200721E+00 0.50414189E+04</pdfrwt>
<pdfrwt beam="2">  1       -2 0.41543362E+00 0.50414189E+04</pdfrwt>
<totfact> 0.18057139E-02</totfact>
</mgrwt>
</event>
<event>
 6    1  0.5026615E-004  0.1020669E+04  0.7818608E-02  0.9286161E-01
          2   -1    0    0  501    0  0.00000000000E+00  0.00000000000E+00  0.11780743179E+04  0.11780743179E+04  0.00000000000E+00 0.  1.
         -2   -1    0    0    0  501 -0.00000000000E+00 -0.00000000000E+00 -0.22107378169E+03  0.22107378169E+03  0.00000000000E+00 0. -1.
         23    2    1    2    0    0 -0.25918408669E+03  0.37994456465E+03  0.77285633886E+03  0.90372570564E+03  0.88763548407E+02 0.  0.
         13    1    3    3    0    0 -0.11700283165E+03  0.23541159186E+03  0.38693805664E+03  0.46779198355E+03  0.00000000000E+00 0. -1.
        -13    1    3    3    0    0 -0.14218125504E+03  0.14453297279E+03  0.38591828222E+03  0.43593372209E+03  0.00000000000E+00 0.  1.
         22    1    1    2    0    0  0.25918408669E+03 -0.37994456465E+03  0.18414419734E+03  0.49542239394E+03  0.00000000000E+00 0. -1.
<mgrwt>
<rscale>  0 0.10206691E+04</rscale>
<asrwt>0</asrwt>
<pdfrwt beam="1">  1        2 0.18124220E+00 0.10206691E+04</pdfrwt>
<pdfrwt beam="2">  1       -2 0.34011352E-01 0.10206691E+04</pdfrwt>
<totfact> 0.15736092E+02</totfact>
</mgrwt>
</event>
<event>
 6    1  0.5026615E-004  0.1429861E+04  0.7818608E-02  0.8932483E-01
         -2   -1    0    0    0  501 -0.00000000000E+00  0.00000000000E+00  0.32903655681E+03  0.32903655681E+03  0.00000000000E+00 0. -1.
          2   -1    0    0  501    0  0.00000000000E+00 -0.00000000000E+00 -0.15534011306E+04  0.15534011306E+04  0.00000000000E+00 0.  1.
         23    2    1    2    0    0  0.67999325041E+03  0.15213399158E+03 -0.42138798346E+03  0.81927872629E+03  0.90079002809E+02 0.  0.
         11    1    3    3    0    0  0.25134362066E+03  0.86010456166E+02 -0.19861900750E+03  0.33169402219E+03  0.00000000000E+00 0.  1.
        -11    1    3    3    0    0  0.42864962976E+03  0.66123535416E+02 -0.22276897597E+03  0.48758470411E+03  0.00000000000E+00 0. -1.
         22    1    1    2    0    0 -0.67999325041E+03 -0.15213399158E+03 -0.80297659031E+03  0.10631589611E+04  0.00000000000E+00 0.  1.
<mgrwt>
<rscale>  0 0.14298612E+04</rscale>
<asrwt>0</asrwt>
<pdfrwt beam="1">  1        2 0.23898479E+00 0.14298612E+04</pdfrwt>
<pdfrwt beam="2">  1       -2 0.50621008E-01 0.14298612E+04</pdfrwt>
<totfact> 0.42435571E+01</totfact>
</mgrwt>
</event>
<event>
 6    1  0.5026615E-004  0.1977197E+04  0.7818608E-02  0.8617357E-01
         -2   -1    0    0    0  501 -0.00000000000E+00  0.00000000000E+00  0.58729087827E+03  0.58729087827E+03  0.00000000000E+00 0.  1.
          2   -1    0    0  501    0  0.00000000000E+00 -0.00000000000E+00 -0.16641276236E+04  0.16641276236E+04  0.00000000000E+00 0. -1.
         23    2    1    2    0    0 -0.75580670703E+03  0.62841961633E+03 -0.63661807365E+03  0.11744099265E+04  0.88323898915E+02 0.  0.
         13    1    3    3    0    0 -0.24659063375E+03  0.18297217366E+03 -0.24387836186E+03  0.39212550589E+03  0.00000000000E+00 0. -1.
        -13    1    3    3    0    0 -0.50921607328E+03  0.44544744267E+03 -0.39273971179E+03  0.78228442058E+03  0.00000000000E+00 0.  1.
         22    1    1    2    0    0  0.75580670703E+03 -0.62841961633E+03 -0.44021867167E+03  0.10770085754E+04  0.00000000000E+00 0.  1.
<mgrwt>
<rscale>  0 0.19771970E+04</rscale>
<asrwt>0</asrwt>
<pdfrwt beam="1">  1        2 0.25601963E+00 0.19771970E+04</pdfrwt>
<pdfrwt beam="2">  1       -2 0.90352444E-01 0.19771970E+04</pdfrwt>
<totfact> 0.10010130E+01</totfact>
</mgrwt>
</event>
<event>
 6    1  0.5026615E-004  0.1024605E+04  0.7818608E-02  0.9281963E-01
         -2   -1    0    0    0  501 -0.00000000000E+00  0.00000000000E+00  0.28598888190E+03  0.28598888190E+03  0.00000000000E+00 0. -1.
          2   -1    0    0  501    0  0.00000000000E+00 -0.00000000000E+00 -0.91770571176E+03  0.91770571176E+03  0.00000000000E+00 0.  1.
         23    2    1    2    0    0 -0.83884291187E+02 -0.47764249337E+03 -0.14092423004E+03  0.51372625972E+03  0.94213085812E+02 0.  0.
         11    1    3    3    0    0 -0.93499012601E+02 -0.27194630037E+03 -0.70387485463E+02  0.29605954427E+03  0.00000000000E+00 0. -1.
        -11    1    3    3    0    0  0.96147214144E+01 -0.20569619300E+03 -0.70536744573E+02  0.21766671545E+03  0.00000000000E+00 0.  1.
         22    1    1    2    0    0  0.83884291187E+02  0.47764249337E+03 -0.49079259982E+03  0.68996833393E+03  0.00000000000E+00 0.  1.
<mgrwt>
<rscale>  0 0.10246046E+04</rscale>
<asrwt>0</asrwt>
<pdfrwt beam="1">  1        2 0.14118549E+00 0.10246046E+04</pdfrwt>
<pdfrwt beam="2">  1       -2 0.43998290E-01 0.10246046E+04</pdfrwt>
<totfact> 0.13926632E+02</totfact>
</mgrwt>
</event>
<event>
 6    1  0.5026615E-004  0.4656546E+04  0.7818608E-02  0.7883789E-01
          2   -1    0    0  501    0  0.00000000000E+00  0.00000000000E+00  0.26562636911E+04  0.26562636911E+04  0.00000000000E+00 0.  1.
         -2   -1    0    0    0  501 -0.00000000000E+00 -0.00000000000E+00 -0.20407823209E+04  0.20407823209E+04  0.00000000000E+00 0. -1.
         23    2    1    2    0    0 -0.11093764638E+04 -0.18939723095E+04 -0.47279263056E+03  0.22471097785E+04  0.90123456966E+02 0.  0.
         11    1    3    3    0    0 -0.91667551252E+03 -0.15464689741E+04 -0.42117039198E+03  0.18464140332E+04  0.00000000000E+00 0.  1.
        -11    1    3    3    0    0 -0.19270095132E+03 -0.34750333539E+03 -0.51622238582E+02  0.40069574525E+03  0.00000000000E+00 0. -1.
         22    1    1    2    0    0  0.11093764638E+04  0.18939723095E+04  0.10882740007E+04  0.24499362335E+04  0.00000000000E+00 0.  1.
<mgrwt>
<rscale>  0 0.46565464E+04</rscale>
<asrwt>0</asrwt>
<pdfrwt beam="1">  1        2 0.40865595E+00 0.46565464E+04</pdfrwt>
<pdfrwt beam="2">  1       -2 0.31396651E+00 0.46565464E+04</pdfrwt>
<totfact> 0.55022986E-02</totfact>
</mgrwt>
</event>
<event>
 6    1  0.5026615E-004  0.2907053E+04  0.7818608E-02  0.8270782E-01
         -1   -1    0    0    0  501 -0.00000000000E+00  0.00000000000E+00  0.11846911570E+04  0.11846911570E+04  0.00000000000E+00 0. -1.
          1   -1    0    0  501    0  0.00000000000E+00 -0.00000000000E+00 -0.17833668078E+04  0.17833668078E+04  0.00000000000E+00 0.  1.
         23    2    1    2    0    0 -0.66464591263E+03 -0.12911264360E+04 -0.31560837917E+03  0.14885686126E+04  0.86407189194E+02 0.  0.
         13    1    3    3    0    0 -0.45247622917E+03 -0.83524494844E+03 -0.24298446369E+03  0.98051532954E+03  0.00000000000E+00 0. -1.
        -13    1    3    3    0    0 -0.21216968346E+03 -0.45588148757E+03 -0.72623915480E+02  0.50805328302E+03  0.00000000000E+00 0.  1.
         22    1    1    2    0    0  0.66464591263E+03  0.12911264360E+04 -0.28306727167E+03  0.14794893522E+04  0.00000000000E+00 0. -1.
<mgrwt>
<rscale>  0 0.29070527E+04</rscale>
<asrwt>0</asrwt>
<pdfrwt beam="1">  1        1 0.27436412E+00 0.29070527E+04</pdfrwt>
<pdfrwt beam="2">  1       -1 0.18226018E+00 0.29070527E+04</pdfrwt>
<totfact> 0.71919786E-01</totfact>
</mgrwt>
</event>
<event>
 6    1  0.5026615E-004  0.2425619E+04  0.7818608E-02  0.8429974E-01
         -2   -1    0    0    0  501 -0.00000000000E+00  0.00000000000E+00  0.84661543744E+03  0.84661543744E+03  0.00000000000E+00 0. -1.
          2   -1    0    0  501    0  0.00000000000E+00 -0.00000000000E+00 -0.17373963400E+04  0.17373963400E+04  0.00000000000E+00 0.  1.
         23    2    1    2    0    0 -0.11495941870E+04  0.16053727243E+03 -0.77750003345E+02  0.11668462072E+04  0.90255180427E+02 0.  0.
         13    1    3    3    0    0 -0.65333040666E+03  0.62097774036E+02 -0.78163005109E+02  0.66091316311E+03  0.00000000000E+00 0.  1.
        -13    1    3    3    0    0 -0.49626378031E+03  0.98439498393E+02  0.41300176417E+00  0.50593304405E+03  0.00000000000E+00 0. -1.
         22    1    1    2    0    0  0.11495941870E+04 -0.16053727243E+03 -0.81303089926E+03  0.14171655703E+04  0.00000000000E+00 0.  1.
<mgrwt>
<rscale>  0 0.24256187E+04</rscale>
<asrwt>0</asrwt>
<pdfrwt beam="1">  1        2 0.26729174E+00 0.24256187E+04</pdfrwt>
<pdfrwt beam="2">  1       -2 0.13024853E+00 0.24256187E+04</pdfrwt>
<totfact> 0.36260201E+00</totfact>
</mgrwt>
</event>
<event>
 6    1  0.5026615E-004  0.2273128E+04  0.7818608E-02  0.8488592E-01
         -2   -1    0    0    0  501 -0.00000000000E+00  0.00000000000E+00  0.57312130290E+03  0.57312130290E+03  0.00000000000E+00 0. -1.
          2   -1    0    0  501    0  0.00000000000E+00 -0.00000000000E+00 -0.22539350262E+04  0.22539350262E+04  0.00000000000E+00 0.  1.
         23    2    1    2    0    0 -0.15124172811E+02  0.11108503187E+04 -0.55485716198E+03  0.12452866401E+04  0.93033190676E+02 0.  0.
         11    1    3    3    0    0  0.13976832722E+02  0.88545253104E+03 -0.47111398612E+03  0.10030802184E+04  0.00000000000E+00 0.  1.
        -11    1    3    3    0    0 -0.29101005532E+02  0.22539778767E+03 -0.83743175860E+02  0.24220642170E+03  0.00000000000E+00 0. -1.
         22    1    1    2    0    0  0.15124172811E+02 -0.11108503187E+04 -0.11259565613E+04  0.15817696890E+04  0.00000000000E+00 0.  1.
<mgrwt>
<rscale>  0 0.22731284E+04</rscale>
<asrwt>0</asrwt>
<pdfrwt beam="1">  1        2 0.34675923E+00 0.22731284E+04</pdfrwt>
<pdfrwt beam="2">  1       -2 0.88172509E-01 0.22731284E+04</pdfrwt>
<totfact> 0.48460289E+00</totfact>
</mgrwt>
</event>
<event>
 6    1  0.5026615E-004  0.1865542E+04  0.7818608E-02  0.8672201E-01
          2   -1    0    0  501    0  0.00000000000E+00  0.00000000000E+00  0.82535218792E+03  0.82535218792E+03  0.00000000000E+00 0.  1.
         -2   -1    0    0    0  501 -0.00000000000E+00 -0.00000000000E+00 -0.10541704286E+04  0.10541704286E+04  0.00000000000E+00 0. -1.
         23    2    1    2    0    0  0.31200391674E+03  0.72456085104E+02 -0.99493360164E+03  0.10491437424E+04  0.90627766931E+02 0.  0.
         13    1    3    3    0    0  0.11488294358E+03  0.73037120178E+00 -0.24806030904E+03  0.27337253170E+03  0.00000000000E+00 0.  1.
        -13    1    3    3    0    0  0.19712097316E+03  0.71725713902E+02 -0.74687329259E+03  0.77577121066E+03  0.00000000000E+00 0. -1.
         22    1    1    2    0    0 -0.31200391674E+03 -0.72456085104E+02  0.76611536096E+03  0.83037887415E+03  0.00000000000E+00 0.  1.
<mgrwt>
<rscale>  0 0.18655421E+04</rscale>
<asrwt>0</asrwt>
<pdfrwt beam="1">  1        2 0.12697726E+00 0.18655421E+04</pdfrwt>
<pdfrwt beam="2">  1       -2 0.16218006E+00 0.18655421E+04</pdfrwt>
<totfact> 0.75277310E+00</totfact>
</mgrwt>
</event>
<event>
 6    1  0.5026615E-004  0.1857016E+04  0.7818608E-02  0.8676553E-01
         -2   -1    0    0    0  501 -0.00000000000E+00  0.00000000000E+00  0.13806706552E+04  0.13806706552E+04  0.00000000000E+00 0. -1.
          2   -1    0    0  501    0  0.00000000000E+00 -0.00000000000E+00 -0.62442630083E+03  0.62442630083E+03  0.00000000000E+00 0.  1.
         23    2    1    2    0    0  0.50347898304E+03  0.60152726516E+03  0.91093980347E+03  0.12055615791E+04  0.90781376418E+02 0.  0.
         13    1    3    3    0    0  0.19955694898E+02  0.42622097157E+02  0.85724941703E+02  0.97793857450E+02  0.00000000000E+00 0. -1.
        -13    1    3    3    0    0  0.48352328814E+03  0.55890516800E+03  0.82521486177E+03  0.11077677216E+04  0.00000000000E+00 0.  1.
         22    1    1    2    0    0 -0.50347898304E+03 -0.60152726516E+03 -0.15469544906E+03  0.79953537699E+03  0.00000000000E+00 0.  1.
<mgrwt>
<rscale>  0 0.18570160E+04</rscale>
<asrwt>0</asrwt>
<pdfrwt beam="1">  1        2 0.96065585E-01 0.18570160E+04</pdfrwt>
<pdfrwt beam="2">  1       -2 0.21241087E+00 0.18570160E+04</pdfrwt>
<totfact> 0.49020558E+00</totfact>
</mgrwt>
</event>
<event>
 6    1  0.5026615E-004  0.1374708E+04  0.7818608E-02  0.8972333E-01
         -2   -1    0    0    0  501 -0.00000000000E+00  0.00000000000E+00  0.12652687696E+04  0.12652687696E+04  0.00000000000E+00 0. -1.
          2   -1    0    0  501    0  0.00000000000E+00 -0.00000000000E+00 -0.37340304367E+03  0.37340304367E+03  0.00000000000E+00 0.  1.
         23    2    1    2    0    0 -0.39009671632E+03  0.26398585276E+03 -0.14815159014E+03  0.49696256996E+03  0.56204303604E+02 0.  0.
         11    1    3    3    0    0 -0.22091398869E+03  0.18059867200E+03 -0.79063903360E+02  0.29609115411E+03  0.00000000000E+00 0. -1.
        -11    1    3    3    0    0 -0.16918272763E+03  0.83387180760E+02 -0.69087686777E+02  0.20087141585E+03  0.00000000000E+00 0.  1.
         22    1    1    2    0    0  0.39009671632E+03 -0.26398585276E+03  0.10400173161E+04  0.11417092433E+04  0.00000000000E+00 0. -1.
<mgrwt>
<rscale>  0 0.13747075E+04</rscale>
<asrwt>0</asrwt>
<pdfrwt beam="1">  1        2 0.57446623E-01 0.13747075E+04</pdfrwt>
<pdfrwt beam="2">  1       -2 0.19465673E+00 0.13747075E+04</pdfrwt>
<totfact> 0.12075950E+01</totfact>
</mgrwt>
</event>
<event>
 6    1  0.5026615E-004  0.1889421E+04  0.7818608E-02  0.8660140E-01
         -1   -1    0    0    0  501 -0.00000000000E+00  0.00000000000E+00  0.42699946140E+03  0.42699946140E+03  0.00000000000E+00 0.  1.
          1   -1    0    0  501    0  0.00000000000E+00 -0.00000000000E+00 -0.20901151901E+04  0.20901151901E+04  0.00000000000E+00 0. -1.
         23    2    1    2    0    0 -0.10142863531E+03  0.82792336881E+03 -0.14183389443E+04  0.16478272727E+04  0.88907182771E+02 0.  0.
         11    1    3    3    0    0 -0.10177568003E+03  0.75802064102E+03 -0.12481512155E+04  0.14638425592E+04  0.00000000000E+00 0. -1.
        -11    1    3    3    0    0  0.34704472458E+00  0.69902727787E+02 -0.17018772879E+03  0.18398471355E+03  0.00000000000E+00 0.  1.
         22    1    1    2    0    0  0.10142863531E+03 -0.82792336881E+03 -0.24477678436E+03  0.86928737874E+03  0.00000000000E+00 0.  1.
<mgrwt>
<rscale>  0 0.18894211E+04</rscale>
<asrwt>0</asrwt>
<pdfrwt beam="1">  1        1 0.32155617E+00 0.18894211E+04</pdfrwt>
<pdfrwt beam="2">  1       -1 0.65692227E-01 0.18894211E+04</pdfrwt>
<totfact> 0.56934684E+00</totfact>
</mgrwt>
</event>
<event>
 6    1  0.5026615E-004  0.1582107E+04  0.7818608E-02  0.8831616E-01
         -2   -1    0    0    0  501 -0.00000000000E+00  0.00000000000E+00  0.32371099355E+03  0.32371099355E+03  0.00000000000E+00 0. -1.
          2   -1    0    0  501    0  0.00000000000E+00 -0.00000000000E+00 -0.19330994123E+04  0.19330994123E+04  0.00000000000E+00 0.  1.
         23    2    1    2    0    0 -0.39970435161E+03 -0.35888599187E+03  0.15950689325E+02  0.54500143867E+03  0.90605848655E+02 0.  0.
         13    1    3    3    0    0 -0.30534545996E+03 -0.21850513545E+03  0.51082147287E+01  0.37550823958E+03  0.00000000000E+00 0.  1.
        -13    1    3    3    0    0 -0.94358891643E+02 -0.14038085642E+03  0.10842474597E+02  0.16949319909E+03  0.00000000000E+00 0. -1.
         22    1    1    2    0    0  0.39970435161E+03  0.35888599187E+03 -0.16253391081E+04  0.17118089672E+04  0.00000000000E+00 0.  1.
<mgrwt>
<rscale>  0 0.15821069E+04</rscale>
<asrwt>0</asrwt>
<pdfrwt beam="1">  1        2 0.29739991E+00 0.15821069E+04</pdfrwt>
<pdfrwt beam="2">  1       -2 0.49801692E-01 0.15821069E+04</pdfrwt>
<totfact> 0.26668113E+01</totfact>
</mgrwt>
</event>
<event>
 6    1  0.6541310E-004  0.2957786E+04  0.7818608E-02  0.8255889E-01
          2   -1    0    0  501    0  0.00000000000E+00  0.00000000000E+00  0.13016071455E+04  0.13016071455E+04  0.00000000000E+00 0.  1.
         -2   -1    0    0    0  501 -0.00000000000E+00 -0.00000000000E+00 -0.16803263281E+04  0.16803263281E+04  0.00000000000E+00 0. -1.
         23    2    1    2    0    0 -0.71073685273E+03  0.89884285373E+03 -0.11298382293E+04  0.16118075043E+04  0.91234078806E+02 0.  0.
         13    1    3    3    0    0 -0.29633841264E+03  0.44026285686E+03 -0.49331910993E+03  0.72457682971E+03  0.00000000000E+00 0.  1.
        -13    1    3    3    0    0 -0.41439844009E+03  0.45857999687E+03 -0.63651911934E+03  0.88723067461E+03  0.00000000000E+00 0. -1.
         22    1    1    2    0    0  0.71073685273E+03 -0.89884285373E+03  0.75111904663E+03  0.13701259693E+04  0.00000000000E+00 0.  1.
<mgrwt>
<rscale>  0 0.29577862E+04</rscale>
<asrwt>0</asrwt>
<pdfrwt beam="1">  1        2 0.20024725E+00 0.29577862E+04</pdfrwt>
<pdfrwt beam="2">  1       -2 0.25851174E+00 0.29577862E+04</pdfrwt>
<totfact> 0.80732293E-01</totfact>
</mgrwt>
</event>
<event>
 6    1  0.5026615E-004  0.1846284E+04  0.7818608E-02  0.8682066E-01
         -2   -1    0    0    0  501 -0.00000000000E+00  0.00000000000E+00  0.74909274593E+03  0.74909274593E+03  0.00000000000E+00 0. -1.
          2   -1    0    0  501    0  0.00000000000E+00 -0.00000000000E+00 -0.11376309575E+04  0.11376309575E+04  0.00000000000E+00 0.  1.
         23    2    1    2    0    0 -0.71622389813E+03 -0.53368687409E+03 -0.42396679765E+03  0.99282575817E+03  0.90314942011E+02 0.  0.
         13    1    3    3    0    0 -0.43914804476E+03 -0.27409135445E+03 -0.25918715811E+03  0.57892577998E+03  0.00000000000E+00 0. -1.
        -13    1    3    3    0    0 -0.27707585337E+03 -0.25959551963E+03 -0.16477963954E+03  0.41389997818E+03  0.00000000000E+00 0.  1.
         22    1    1    2    0    0  0.71622389813E+03  0.53368687409E+03  0.35428586082E+02  0.89389794526E+03  0.00000000000E+00 0. -1.
<mgrwt>
<rscale>  0 0.18462839E+04</rscale>
<asrwt>0</asrwt>
<pdfrwt beam="1">  1        2 0.17502015E+00 0.18462839E+04</pdfrwt>
<pdfrwt beam="2">  1       -2 0.11524504E+00 0.18462839E+04</pdfrwt>
<totfact> 0.11399246E+01</totfact>
</mgrwt>
</event>
<event>
 6    1  0.5026615E-004  0.3036781E+04  0.7818608E-02  0.8233305E-01
          1   -1    0    0  501    0  0.00000000000E+00  0.00000000000E+00  0.16742460045E+04  0.16742460045E+04  0.00000000000E+00 0. -1.
         -1   -1    0    0    0  501 -0.00000000000E+00 -0.00000000000E+00 -0.13770433490E+04  0.13770433490E+04  0.00000000000E+00 0.  1.
         23    2    1    2    0    0  0.16342637258E+03 -0.13578355644E+04 -0.51220608704E+03  0.14620857442E+04  0.70100274639E+02 0.  0.
         13    1    3    3    0    0  0.33437950769E+02 -0.29291468943E+03 -0.14152994721E+03  0.32702880270E+03  0.00000000000E+00 0. -1.
        -13    1    3    3    0    0  0.12998842182E+03 -0.10649208750E+04 -0.37067613983E+03  0.11350569415E+04  0.00000000000E+00 0.  1.
         22    1    1    2    0    0 -0.16342637258E+03  0.13578355644E+04  0.80940874253E+03  0.15892036093E+04  0.00000000000E+00 0. -1.
<mgrwt>
<rscale>  0 0.30367807E+04</rscale>
<asrwt>0</asrwt>
<pdfrwt beam="1">  1        1 0.25757631E+00 0.30367807E+04</pdfrwt>
<pdfrwt beam="2">  1       -1 0.21185282E+00 0.30367807E+04</pdfrwt>
<totfact> 0.52589299E-01</totfact>
</mgrwt>
</event>
<event>
 6    1  0.5026615E-004  0.4265851E+04  0.7818608E-02  0.7952963E-01
          2   -1    0    0  501    0  0.00000000000E+00  0.00000000000E+00  0.25875821122E+04  0.25875821122E+04  0.00000000000E+00 0.  1.
         -2   -1    0    0    0  501 -0.00000000000E+00 -0.00000000000E+00 -0.17581549834E+04  0.17581549834E+04  0.00000000000E+00 0. -1.
         23    2    1    2    0    0  0.17577855091E+04 -0.65812056270E+03  0.14449085345E+04  0.23704523232E+04  0.91383656318E+02 0.  0.
         13    1    3    3    0    0  0.70144922566E+03 -0.30899717530E+03  0.57500168997E+03  0.95819476829E+03  0.00000000000E+00 0. -1.
        -13    1    3    3    0    0  0.10563362835E+04 -0.34912338740E+03  0.86990684449E+03  0.14122575549E+04  0.00000000000E+00 0.  1.
         22    1    1    2    0    0 -0.17577855091E+04  0.65812056270E+03 -0.61548140573E+03  0.19752847724E+04  0.00000000000E+00 0. -1.
<mgrwt>
<rscale>  0 0.42658506E+04</rscale>
<asrwt>0</asrwt>
<pdfrwt beam="1">  1        2 0.39808955E+00 0.42658506E+04</pdfrwt>
<pdfrwt beam="2">  1       -2 0.27048538E+00 0.42658506E+04</pdfrwt>
<totfact> 0.11502620E-01</totfact>
</mgrwt>
</event>
<event>
 6    1  0.5380276E-004  0.1605589E+04  0.7818608E-02  0.8817122E-01
         -2   -1    0    0    0  501 -0.00000000000E+00  0.00000000000E+00  0.34465196290E+03  0.34465196290E+03  0.00000000000E+00 0. -1.
          2   -1    0    0  501    0  0.00000000000E+00 -0.00000000000E+00 -0.18699421680E+04  0.18699421680E+04  0.00000000000E+00 0.  1.
         23    2    1    2    0    0  0.39282585949E+03  0.25268249919E+03 -0.16613107670E+04  0.17281147433E+04  0.90920295674E+02 0.  0.
         11    1    3    3    0    0  0.18547190310E+03  0.17193853515E+03 -0.84765579940E+03  0.88458071478E+03  0.00000000000E+00 0.  1.
        -11    1    3    3    0    0  0.20735395638E+03  0.80743964038E+02 -0.81365496763E+03  0.84353402854E+03  0.00000000000E+00 0. -1.
         22    1    1    2    0    0 -0.39282585949E+03 -0.25268249919E+03  0.13602056192E+03  0.48647938758E+03  0.00000000000E+00 0. -1.
<mgrwt>
<rscale>  0 0.16055893E+04</rscale>
<asrwt>0</asrwt>
<pdfrwt beam="1">  1        2 0.28768341E+00 0.16055893E+04</pdfrwt>
<pdfrwt beam="2">  1       -2 0.53023379E-01 0.16055893E+04</pdfrwt>
<totfact> 0.25369899E+01</totfact>
</mgrwt>
</event>
<event>
 6    1  0.5026615E-004  0.4283231E+04  0.7818608E-02  0.7949726E-01
         -2   -1    0    0    0  501 -0.00000000000E+00  0.00000000000E+00  0.16802208222E+04  0.16802208222E+04  0.00000000000E+00 0. -1.
          2   -1    0    0  501    0  0.00000000000E+00 -0.00000000000E+00 -0.27297111139E+04  0.27297111139E+04  0.00000000000E+00 0.  1.
         23    2    1    2    0    0 -0.47811574005E+03  0.13660190145E+04 -0.21488983651E+04  0.25924334573E+04  0.91347896376E+02 0.  0.
         11    1    3    3    0    0 -0.96319304227E+02  0.35502916883E+03 -0.49369588260E+03  0.61567746717E+03  0.00000000000E+00 0.  1.
        -11    1    3    3    0    0 -0.38179643582E+03  0.10109898456E+04 -0.16552024825E+04  0.19767559901E+04  0.00000000000E+00 0. -1.
         22    1    1    2    0    0  0.47811574005E+03 -0.13660190145E+04  0.10994080734E+04  0.18174984789E+04  0.00000000000E+00 0. -1.
<mgrwt>
<rscale>  0 0.42832312E+04</rscale>
<asrwt>0</asrwt>
<pdfrwt beam="1">  1        2 0.41995556E+00 0.42832312E+04</pdfrwt>
<pdfrwt beam="2">  1       -2 0.25849551E+00 0.42832312E+04</pdfrwt>
<totfact> 0.11199867E-01</totfact>
</mgrwt>
</event>
<event>
 6    1  0.5026615E-004  0.2434301E+04  0.7818608E-02  0.8426772E-01
         -4   -1    0    0    0  501 -0.00000000000E+00  0.00000000000E+00  0.82916630025E+03  0.82916630025E+03  0.00000000000E+00 0.  1.
          4   -1    0    0  501    0  0.00000000000E+00 -0.00000000000E+00 -0.17866800673E+04  0.17866800673E+04  0.00000000000E+00 0. -1.
         23    2    1    2    0    0  0.93594430044E+03 -0.55168743714E+02 -0.13105622451E+04  0.16140087801E+04  0.91736688759E+02 0.  0.
         13    1    3    3    0    0  0.87754607305E+03 -0.62390017238E+02 -0.12580292948E+04  0.15351277898E+04  0.00000000000E+00 0.  1.
        -13    1    3    3    0    0  0.58398227389E+02  0.72212735236E+01 -0.52532950350E+02  0.78880990270E+02  0.00000000000E+00 0. -1.
         22    1    1    2    0    0 -0.93594430044E+03  0.55168743714E+02  0.35304847807E+03  0.10018375875E+04  0.00000000000E+00 0.  1.
<mgrwt>
<rscale>  0 0.24343006E+04</rscale>
<asrwt>0</asrwt>
<pdfrwt beam="1">  1        4 0.27487386E+00 0.24343006E+04</pdfrwt>
<pdfrwt beam="2">  1       -4 0.12756405E+00 0.24343006E+04</pdfrwt>
<totfact> 0.35956370E-02</totfact>
</mgrwt>
</event>
<event>
 6    1  0.5026615E-004  0.2663098E+04  0.7818608E-02  0.8347078E-01
         -2   -1    0    0    0  501 -0.00000000000E+00  0.00000000000E+00  0.97270477632E+03  0.97270477632E+03  0.00000000000E+00 0. -1.
          2   -1    0    0  501    0  0.00000000000E+00 -0.00000000000E+00 -0.18227763746E+04  0.18227763746E+04  0.00000000000E+00 0.  1.
         23    2    1    2    0    0  0.56226524345E+03 -0.18238965478E+03 -0.16762047237E+04  0.17796543296E+04  0.89994815581E+02 0.  0.
         11    1    3    3    0    0  0.98277524687E+02 -0.22493644221E+01 -0.22744334215E+03  0.24777813743E+03  0.00000000000E+00 0. -1.
        -11    1    3    3    0    0  0.46398771876E+03 -0.18014029035E+03 -0.14487613815E+04  0.15318761921E+04  0.00000000000E+00 0.  1.
         22    1    1    2    0    0 -0.56226524345E+03  0.18238965478E+03  0.82613312539E+03  0.10158268214E+04  0.00000000000E+00 0. -1.
<mgrwt>
<rscale>  0 0.26630984E+04</rscale>
<asrwt>0</asrwt>
<pdfrwt beam="1">  1        2 0.28042713E+00 0.26630984E+04</pdfrwt>
<pdfrwt beam="2">  1       -2 0.14964689E+00 0.26630984E+04</pdfrwt>
<totfact> 0.22238802E+00</totfact>
</mgrwt>
</event>
<event>
 6    1  0.5026615E-004  0.1409176E+04  0.7818608E-02  0.8947203E-01
          2   -1    0    0  501    0  0.00000000000E+00  0.00000000000E+00  0.14667926262E+04  0.14667926262E+04  0.00000000000E+00 0.  1.
         -2   -1    0    0    0  501 -0.00000000000E+00 -0.00000000000E+00 -0.33845554506E+03  0.33845554506E+03  0.00000000000E+00 0. -1.
         23    2    1    2    0    0 -0.46501770552E+03 -0.22634774633E+03 -0.40969380449E+02  0.52667382074E+03  0.90730670652E+02 0.  0.
         11    1    3    3    0    0 -0.35241468243E+03 -0.13487592074E+03 -0.57542743420E+01  0.37738671686E+03  0.00000000000E+00 0.  1.
        -11    1    3    3    0    0 -0.11260302309E+03 -0.91471825589E+02 -0.35215106107E+02  0.14928710388E+03  0.00000000000E+00 0. -1.
         22    1    1    2    0    0  0.46501770552E+03  0.22634774633E+03  0.11693064616E+04  0.12785743505E+04  0.00000000000E+00 0.  1.
<mgrwt>
<rscale>  0 0.14091758E+04</rscale>
<asrwt>0</asrwt>
<pdfrwt beam="1">  1        2 0.22566040E+00 0.14091758E+04</pdfrwt>
<pdfrwt beam="2">  1       -2 0.52070085E-01 0.14091758E+04</pdfrwt>
<totfact> 0.44886361E+01</totfact>
</mgrwt>
</event>
<event>
 6    1  0.5026615E-004  0.2435306E+04  0.7818608E-02  0.8426403E-01
          2   -1    0    0  501    0  0.00000000000E+00  0.00000000000E+00  0.23797850972E+04  0.23797850972E+04  0.00000000000E+00 0.  1.
         -2   -1    0    0    0  501 -0.00000000000E+00 -0.00000000000E+00 -0.62303048256E+03  0.62303048256E+03  0.00000000000E+00 0. -1.
         23    2    1    2    0    0 -0.92847484337E+03 -0.75547794775E+03  0.61460875322E+03  0.13483338987E+04  0.86301323666E+02 0.  0.
         13    1    3    3    0    0 -0.45226224829E+03 -0.41473811016E+03  0.34074962323E+03  0.70189682075E+03  0.00000000000E+00 0.  1.
        -13    1    3    3    0    0 -0.47621259508E+03 -0.34073983759E+03  0.27385912999E+03  0.64643707792E+03  0.00000000000E+00 0. -1.
         22    1    1    2    0    0  0.92847484337E+03  0.75547794775E+03  0.11421458615E+04  0.16544816811E+04  0.00000000000E+00 0.  1.
<mgrwt>
<rscale>  0 0.24353059E+04</rscale>
<asrwt>0</asrwt>
<pdfrwt beam="1">  1        2 0.36612078E+00 0.24353059E+04</pdfrwt>
<pdfrwt beam="2">  1       -2 0.95850844E-01 0.24353059E+04</pdfrwt>
<totfact> 0.33409532E+00</totfact>
</mgrwt>
</event>
<event>
 6    1  0.5026615E-004  0.4074361E+04  0.7818608E-02  0.7989711E-01
         -2   -1    0    0    0  501 -0.00000000000E+00  0.00000000000E+00  0.18763735405E+04  0.18763735405E+04  0.00000000000E+00 0. -1.
          2   -1    0    0  501    0  0.00000000000E+00 -0.00000000000E+00 -0.22117690837E+04  0.22117690837E+04  0.00000000000E+00 0.  1.
         23    2    1    2    0    0 -0.93311478318E+03  0.13438330865E+04  0.10483954255E+04  0.19453715193E+04  0.93524418535E+02 0.  0.
         13    1    3    3    0    0 -0.59641017894E+03  0.85399956552E+03  0.61373201334E+03  0.12090026235E+04  0.00000000000E+00 0.  1.
        -13    1    3    3    0    0 -0.33670460423E+03  0.48983352101E+03  0.43466341217E+03  0.73636889579E+03  0.00000000000E+00 0. -1.
         22    1    1    2    0    0  0.93311478318E+03 -0.13438330865E+04 -0.13837909687E+04  0.21427711050E+04  0.00000000000E+00 0.  1.
<mgrwt>
<rscale>  0 0.40743613E+04</rscale>
<asrwt>0</asrwt>
<pdfrwt beam="1">  1        2 0.34027217E+00 0.40743613E+04</pdfrwt>
<pdfrwt beam="2">  1       -2 0.28867285E+00 0.40743613E+04</pdfrwt>
<totfact> 0.14867659E-01</totfact>
</mgrwt>
</event>
<event>
 6    1  0.5026615E-004  0.2429774E+04  0.7818608E-02  0.8428440E-01
         -2   -1    0    0    0  501 -0.00000000000E+00  0.00000000000E+00  0.24231896938E+04  0.24231896938E+04  0.00000000000E+00 0. -1.
          2   -1    0    0  501    0  0.00000000000E+00 -0.00000000000E+00 -0.60909402298E+03  0.60909402298E+03  0.00000000000E+00 0.  1.
         23    2    1    2    0    0 -0.55832448834E+03  0.90253052160E+03  0.17453497919E+03  0.10792228272E+04  0.89285358296E+02 0.  0.
         13    1    3    3    0    0 -0.53993180194E+02  0.72716684948E+02 -0.88677958555E+01  0.91003393237E+02  0.00000000000E+00 0.  1.
        -13    1    3    3    0    0 -0.50433130814E+03  0.82981383665E+03  0.18340277504E+03  0.98821943401E+03  0.00000000000E+00 0. -1.
         22    1    1    2    0    0  0.55832448834E+03 -0.90253052160E+03  0.16395606917E+04  0.19530608896E+04  0.00000000000E+00 0. -1.
<mgrwt>
<rscale>  0 0.24297739E+04</rscale>
<asrwt>0</asrwt>
<pdfrwt beam="1">  1        2 0.93706774E-01 0.24297739E+04</pdfrwt>
<pdfrwt beam="2">  1       -2 0.37279841E+00 0.24297739E+04</pdfrwt>
<totfact> 0.48700170E-01</totfact>
</mgrwt>
</event>
<event>
 6    1  0.5026615E-004  0.2582786E+04  0.7818608E-02  0.8374072E-01
          2   -1    0    0  501    0  0.00000000000E+00  0.00000000000E+00  0.15095952023E+04  0.15095952023E+04  0.00000000000E+00 0.  1.
         -2   -1    0    0    0  501 -0.00000000000E+00 -0.00000000000E+00 -0.11047305326E+04  0.11047305326E+04  0.00000000000E+00 0. -1.
         23    2    1    2    0    0 -0.17065689263E+03  0.10912615959E+04 -0.47145805260E+03  0.12043905735E+04  0.91149945102E+02 0.  0.
         13    1    3    3    0    0 -0.65809272628E+02  0.70110497535E+03 -0.29202693708E+03  0.76233770653E+03  0.00000000000E+00 0.  1.
        -13    1    3    3    0    0 -0.10484762000E+03  0.39015662059E+03 -0.17943111552E+03  0.44205286700E+03  0.00000000000E+00 0. -1.
         22    1    1    2    0    0  0.17065689263E+03 -0.10912615959E+04  0.87632272225E+03  0.14099351614E+04  0.00000000000E+00 0.  1.
<mgrwt>
<rscale>  0 0.25827860E+04</rscale>
<asrwt>0</asrwt>
<pdfrwt beam="1">  1        2 0.23224542E+00 0.25827860E+04</pdfrwt>
<pdfrwt beam="2">  1       -2 0.16995854E+00 0.25827860E+04</pdfrwt>
<totfact> 0.23688044E+00</totfact>
</mgrwt>
</event>
<event>
 6    1  0.5026615E-004  0.2249548E+04  0.7818608E-02  0.8498084E-01
         -2   -1    0    0    0  501 -0.00000000000E+00  0.00000000000E+00  0.10700615918E+04  0.10700615918E+04  0.00000000000E+00 0. -1.
          2   -1    0    0  501    0  0.00000000000E+00 -0.00000000000E+00 -0.11822837010E+04  0.11822837010E+04  0.00000000000E+00 0.  1.
         23    2    1    2    0    0 -0.63177048974E+03 -0.92378184541E+03  0.35823120533E+02  0.11234412935E+04  0.91269898514E+02 0.  0.
         11    1    3    3    0    0 -0.10477742090E+03 -0.17185648971E+03  0.40026462420E+02  0.20521958649E+03  0.00000000000E+00 0.  1.
        -11    1    3    3    0    0 -0.52699306884E+03 -0.75192535570E+03 -0.42033418865E+01  0.91822170701E+03  0.00000000000E+00 0. -1.
         22    1    1    2    0    0  0.63177048974E+03  0.92378184541E+03 -0.14804522971E+03  0.11289039993E+04  0.00000000000E+00 0. -1.
<mgrwt>
<rscale>  0 0.22495478E+04</rscale>
<asrwt>0</asrwt>
<pdfrwt beam="1">  1        2 0.18188980E+00 0.22495478E+04</pdfrwt>
<pdfrwt beam="2">  1       -2 0.16462486E+00 0.22495478E+04</pdfrwt>
<totfact> 0.41167864E+00</totfact>
</mgrwt>
</event>
<event>
 6    1  0.5026615E-004  0.1362828E+04  0.7818608E-02  0.8981174E-01
          2   -1    0    0  501    0  0.00000000000E+00  0.00000000000E+00  0.91922313557E+03  0.91922313557E+03  0.00000000000E+00 0.  1.
         -2   -1    0    0    0  501 -0.00000000000E+00 -0.00000000000E+00 -0.50512778960E+03  0.50512778960E+03  0.00000000000E+00 0. -1.
         23    2    1    2    0    0 -0.14464929885E+03 -0.50513954283E+03 -0.24048792964E+03  0.58496505318E+03  0.90886147239E+02 0.  0.
         13    1    3    3    0    0 -0.13368134308E+03 -0.38170316530E+03 -0.21651536766E+03  0.45874493165E+03  0.00000000000E+00 0. -1.
        -13    1    3    3    0    0 -0.10967955770E+02 -0.12343637753E+03 -0.23972561981E+02  0.12622012153E+03  0.00000000000E+00 0.  1.
         22    1    1    2    0    0  0.14464929885E+03  0.50513954283E+03  0.65458327561E+03  0.83938587199E+03  0.00000000000E+00 0.  1.
<mgrwt>
<rscale>  0 0.13628282E+04</rscale>
<asrwt>0</asrwt>
<pdfrwt beam="1">  1        2 0.14141894E+00 0.13628282E+04</pdfrwt>
<pdfrwt beam="2">  1       -2 0.77711968E-01 0.13628282E+04</pdfrwt>
<totfact> 0.40987587E+01</totfact>
</mgrwt>
</event>
<event>
 6    1  0.5026615E-004  0.2722295E+04  0.7818608E-02  0.8327807E-01
         -2   -1    0    0    0  501 -0.00000000000E+00  0.00000000000E+00  0.17955736899E+04  0.17955736899E+04  0.00000000000E+00 0.  1.
          2   -1    0    0  501    0  0.00000000000E+00 -0.00000000000E+00 -0.10318274200E+04  0.10318274200E+04  0.00000000000E+00 0. -1.
         23    2    1    2    0    0 -0.10214994036E+04  0.16065680030E+03  0.12991913799E+04  0.16629385279E+04  0.90524398638E+02 0.  0.
         11    1    3    3    0    0 -0.60089465161E+03  0.98271791143E+02  0.69298534745E+03  0.92247515904E+03  0.00000000000E+00 0. -1.
        -11    1    3    3    0    0 -0.42060475202E+03  0.62385009152E+02  0.60620603244E+03  0.74046336882E+03  0.00000000000E+00 0.  1.
         22    1    1    2    0    0  0.10214994036E+04 -0.16065680030E+03 -0.53544511002E+03  0.11644625820E+04  0.00000000000E+00 0. -1.
<mgrwt>
<rscale>  0 0.27222947E+04</rscale>
<asrwt>0</asrwt>
<pdfrwt beam="1">  1        2 0.15874268E+00 0.27222947E+04</pdfrwt>
<pdfrwt beam="2">  1       -2 0.27624211E+00 0.27222947E+04</pdfrwt>
<totfact> 0.93441826E-01</totfact>
</mgrwt>
</event>
<event>
 6    1  0.5026615E-004  0.1674022E+04  0.7818608E-02  0.8776321E-01
          2   -1    0    0  501    0  0.00000000000E+00  0.00000000000E+00  0.14141553203E+04  0.14141553203E+04  0.00000000000E+00 0. -1.
         -2   -1    0    0    0  501 -0.00000000000E+00 -0.00000000000E+00 -0.49541032049E+03  0.49541032049E+03  0.00000000000E+00 0.  1.
         23    2    1    2    0    0  0.55263634811E+03  0.25963534535E+03  0.11096861875E+04  0.12698188292E+04  0.90658582124E+02 0.  0.
         13    1    3    3    0    0  0.17493576256E+03  0.12943509653E+03  0.40499088840E+03  0.45975383079E+03  0.00000000000E+00 0. -1.
        -13    1    3    3    0    0  0.37770058555E+03  0.13020024882E+03  0.70469529910E+03  0.81006499844E+03  0.00000000000E+00 0.  1.
         22    1    1    2    0    0 -0.55263634811E+03 -0.25963534535E+03 -0.19094118765E+03  0.63974681160E+03  0.00000000000E+00 0.  1.
<mgrwt>
<rscale>  0 0.16740217E+04</rscale>
<asrwt>0</asrwt>
<pdfrwt beam="1">  1        2 0.21756235E+00 0.16740217E+04</pdfrwt>
<pdfrwt beam="2">  1       -2 0.76216973E-01 0.16740217E+04</pdfrwt>
<totfact> 0.20864464E+01</totfact>
</mgrwt>
</event>
<event>
 6    1  0.5026615E-004  0.4490401E+04  0.7818608E-02  0.7912319E-01
         -2   -1    0    0    0  501 -0.00000000000E+00  0.00000000000E+00  0.21597692892E+04  0.21597692892E+04  0.00000000000E+00 0. -1.
          2   -1    0    0  501    0  0.00000000000E+00 -0.00000000000E+00 -0.23340110042E+04  0.23340110042E+04  0.00000000000E+00 0.  1.
         23    2    1    2    0    0 -0.98261244629E+03  0.70261779115E+03  0.18056115205E+04  0.21745093274E+04  0.95178107398E+02 0.  0.
         11    1    3    3    0    0 -0.27315127541E+03  0.19378622469E+03  0.42659881683E+03  0.54235714309E+03  0.00000000000E+00 0.  1.
        -11    1    3    3    0    0 -0.70946117088E+03  0.50883156647E+03  0.13790127036E+04  0.16321521843E+04  0.00000000000E+00 0. -1.
         22    1    1    2    0    0  0.98261244629E+03 -0.70261779115E+03 -0.19798532354E+04  0.23192709660E+04  0.00000000000E+00 0.  1.
<mgrwt>
<rscale>  0 0.44904010E+04</rscale>
<asrwt>0</asrwt>
<pdfrwt beam="1">  1        2 0.35907862E+00 0.44904010E+04</pdfrwt>
<pdfrwt beam="2">  1       -2 0.33227220E+00 0.44904010E+04</pdfrwt>
<totfact> 0.66069560E-02</totfact>
</mgrwt>
</event>
<event>
 6    1  0.5026615E-004  0.3116455E+04  0.7818608E-02  0.8211237E-01
          2   -1    0    0  501    0  0.00000000000E+00  0.00000000000E+00  0.10257482831E+04  0.10257482831E+04  0.00000000000E+00 0.  1.
         -2   -1    0    0    0  501 -0.00000000000E+00 -0.00000000000E+00 -0.23671230364E+04  0.23671230364E+04  0.00000000000E+00 0. -1.
         23    2    1    2    0    0 -0.15072912850E+04  0.38897195830E+03 -0.69778684596E+03  0.17084035708E+04  0.92250073314E+02 0.  0.
         13    1    3    3    0    0 -0.49202787360E+03  0.14935803684E+03 -0.27187947586E+03  0.58165084111E+03  0.00000000000E+00 0. -1.
        -13    1    3    3    0    0 -0.10152634114E+04  0.23961392146E+03 -0.42590737011E+03  0.11267527297E+04  0.00000000000E+00 0.  1.
         22    1    1    2    0    0  0.15072912850E+04 -0.38897195830E+03 -0.64358790730E+03  0.16844677488E+04  0.00000000000E+00 0. -1.
<mgrwt>
<rscale>  0 0.31164546E+04</rscale>
<asrwt>0</asrwt>
<pdfrwt beam="1">  1        2 0.15780743E+00 0.31164546E+04</pdfrwt>
<pdfrwt beam="2">  1       -2 0.36417277E+00 0.31164546E+04</pdfrwt>
<totfact> 0.25997101E-01</totfact>
</mgrwt>
</event>
<event>
 6    1  0.5026615E-004  0.4544681E+03  0.7818608E-02  0.1026398E+00
         -4   -1    0    0    0  501 -0.00000000000E+00  0.00000000000E+00  0.92475564678E+02  0.92475564678E+02  0.00000000000E+00 0. -1.
          4   -1    0    0  501    0  0.00000000000E+00 -0.00000000000E+00 -0.55836711217E+03  0.55836711217E+03  0.00000000000E+00 0.  1.
         23    2    1    2    0    0 -0.10044230159E+03 -0.17407287861E+03 -0.36389746962E+03  0.42547006330E+03  0.90627718463E+02 0.  0.
         13    1    3    3    0    0 -0.63245283439E+02 -0.16324870093E+03 -0.25031783313E+03  0.30546541836E+03  0.00000000000E+00 0. -1.
        -13    1    3    3    0    0 -0.37197018154E+02 -0.10824177681E+02 -0.11357963649E+03  0.12000464494E+03  0.00000000000E+00 0.  1.
         22    1    1    2    0    0  0.10044230159E+03  0.17407287861E+03 -0.10199407787E+03  0.22537261355E+03  0.00000000000E+00 0. -1.
<mgrwt>
<rscale>  0 0.45446810E+03</rscale>
<asrwt>0</asrwt>
<pdfrwt beam="1">  1        4 0.85902633E-01 0.45446810E+03</pdfrwt>
<pdfrwt beam="2">  1       -4 0.14227010E-01 0.45446810E+03</pdfrwt>
<totfact> 0.97511120E+01</totfact>
</mgrwt>
</event>
<event>
 6    1  0.5026615E-004  0.5434026E+03  0.7818608E-02  0.1003033E+00
         -2   -1    0    0    0  501 -0.00000000000E+00  0.00000000000E+00  0.62273525124E+02  0.62273525124E+02  0.00000000000E+00 0. -1.
          2   -1    0    0  501    0  0.00000000000E+00 -0.00000000000E+00 -0.11854413113E+04  0.11854413113E+04  0.00000000000E+00 0.  1.
         23    2    1    2    0    0 -0.19018585017E+03 -0.48044691490E+01 -0.15827110451E+03  0.26424173215E+03  0.92629422767E+02 0.  0.
         11    1    3    3    0    0 -0.93914927901E+01 -0.14435842121E+02  0.74810565501E+01  0.18776578008E+02  0.00000000000E+00 0.  1.
        -11    1    3    3    0    0 -0.18079435738E+03  0.96313729724E+01 -0.16575216106E+03  0.24546515415E+03  0.00000000000E+00 0. -1.
         22    1    1    2    0    0  0.19018585017E+03  0.48044691490E+01 -0.96489668164E+03  0.98347310424E+03  0.00000000000E+00 0.  1.
<mgrwt>
<rscale>  0 0.54340265E+03</rscale>
<asrwt>0</asrwt>
<pdfrwt beam="1">  1        2 0.18237557E+00 0.54340265E+03</pdfrwt>
<pdfrwt beam="2">  1       -2 0.95805431E-02 0.54340265E+03</pdfrwt>
<totfact> 0.14385430E+03</totfact>
</mgrwt>
</event>
<event>
 6    1  0.5026615E-004  0.1507460E+04  0.7818608E-02  0.8879507E-01
         -2   -1    0    0    0  501 -0.00000000000E+00  0.00000000000E+00  0.26562132191E+03  0.26562132191E+03  0.00000000000E+00 0. -1.
          2   -1    0    0  501    0  0.00000000000E+00 -0.00000000000E+00 -0.21387914605E+04  0.21387914605E+04  0.00000000000E+00 0.  1.
         23    2    1    2    0    0 -0.78914114041E+02  0.60528987608E+03 -0.16380796922E+04  0.17502944526E+04  0.87305906131E+02 0.  0.
         13    1    3    3    0    0 -0.60751953966E+02  0.38909747114E+03 -0.93642623881E+03  0.10158650219E+04  0.00000000000E+00 0.  1.
        -13    1    3    3    0    0 -0.18162160076E+02  0.21619240493E+03 -0.70165345339E+03  0.73442943069E+03  0.00000000000E+00 0. -1.
         22    1    1    2    0    0  0.78914114041E+02 -0.60528987608E+03 -0.23509044643E+03  0.65411832988E+03  0.00000000000E+00 0.  1.
<mgrwt>
<rscale>  0 0.15074596E+04</rscale>
<asrwt>0</asrwt>
<pdfrwt beam="1">  1        2 0.32904483E+00 0.15074596E+04</pdfrwt>
<pdfrwt beam="2">  1       -2 0.40864820E-01 0.15074596E+04</pdfrwt>
<totfact> 0.30632333E+01</totfact>
</mgrwt>
</event>
<event>
 6    1  0.5054420E-004  0.4584794E+04  0.7818608E-02  0.7895958E-01
          2   -1    0    0  501    0  0.00000000000E+00  0.00000000000E+00  0.28985363273E+04  0.28985363273E+04  0.00000000000E+00 0.  1.
         -2   -1    0    0    0  501 -0.00000000000E+00 -0.00000000000E+00 -0.18130130904E+04  0.18130130904E+04  0.00000000000E+00 0. -1.
         23    2    1    2    0    0  0.12819932954E+04  0.58520848899E+03  0.23998655507E+04  0.27845124427E+04  0.90438359495E+02 0.  0.
         13    1    3    3    0    0  0.31287336608E+03  0.17369807602E+03  0.66429788716E+03  0.75455446967E+03  0.00000000000E+00 0. -1.
        -13    1    3    3    0    0  0.96911992929E+03  0.41151041297E+03  0.17355676636E+04  0.20299579730E+04  0.00000000000E+00 0.  1.
         22    1    1    2    0    0 -0.12819932954E+04 -0.58520848899E+03 -0.13143423139E+04  0.19270369750E+04  0.00000000000E+00 0. -1.
<mgrwt>
<rscale>  0 0.45847941E+04</rscale>
<asrwt>0</asrwt>
<pdfrwt beam="1">  1        2 0.44592867E+00 0.45847941E+04</pdfrwt>
<pdfrwt beam="2">  1       -2 0.27892509E+00 0.45847941E+04</pdfrwt>
<totfact> 0.64750209E-02</totfact>
</mgrwt>
</event>
<event>
 6    1  0.5026615E-004  0.2059676E+04  0.7818608E-02  0.8579217E-01
          2   -1    0    0  501    0  0.00000000000E+00  0.00000000000E+00  0.18338821579E+04  0.18338821579E+04  0.00000000000E+00 0.  1.
         -2   -1    0    0    0  501 -0.00000000000E+00 -0.00000000000E+00 -0.57831774601E+03  0.57831774601E+03  0.00000000000E+00 0. -1.
         23    2    1    2    0    0 -0.41817621259E+03 -0.93656810472E+03  0.70680650085E+03  0.12489430946E+04  0.90841974005E+02 0.  0.
         11    1    3    3    0    0 -0.27767415132E+03 -0.53312256343E+03  0.38104899627E+03  0.71170284495E+03  0.00000000000E+00 0. -1.
        -11    1    3    3    0    0 -0.14050206127E+03 -0.40344554129E+03  0.32575750458E+03  0.53724024960E+03  0.00000000000E+00 0.  1.
         22    1    1    2    0    0  0.41817621259E+03  0.93656810472E+03  0.54875791101E+03  0.11632568093E+04  0.00000000000E+00 0. -1.
<mgrwt>
<rscale>  0 0.20596763E+04</rscale>
<asrwt>0</asrwt>
<pdfrwt beam="1">  1        2 0.28213571E+00 0.20596763E+04</pdfrwt>
<pdfrwt beam="2">  1       -2 0.88971962E-01 0.20596763E+04</pdfrwt>
<totfact> 0.82902703E+00</totfact>
</mgrwt>
</event>
<event>
 6    1  0.5026615E-004  0.2287026E+04  0.7818608E-02  0.8483054E-01
          2   -1    0    0  501    0  0.00000000000E+00  0.00000000000E+00  0.14019469951E+04  0.14019469951E+04  0.00000000000E+00 0.  1.
         -2   -1    0    0    0  501 -0.00000000000E+00 -0.00000000000E+00 -0.93271846221E+03  0.93271846221E+03  0.00000000000E+00 0. -1.
         23    2    1    2    0    0 -0.79100325640E+03 -0.27548465948E+03 -0.55694030437E+03  0.10100521432E+04  0.91896029311E+02 0.  0.
         11    1    3    3    0    0 -0.45632215154E+03 -0.18781711346E+03 -0.37027642297E+03  0.61693581798E+03  0.00000000000E+00 0.  1.
        -11    1    3    3    0    0 -0.33468110485E+03 -0.87667546017E+02 -0.18666388140E+03  0.39311632526E+03  0.00000000000E+00 0. -1.
         22    1    1    2    0    0  0.79100325640E+03  0.27548465948E+03  0.10261688373E+04  0.13246133141E+04  0.00000000000E+00 0.  1.
<mgrwt>
<rscale>  0 0.22870259E+04</rscale>
<asrwt>0</asrwt>
<pdfrwt beam="1">  1        2 0.21568415E+00 0.22870259E+04</pdfrwt>
<pdfrwt beam="2">  1       -2 0.14349515E+00 0.22870259E+04</pdfrwt>
<totfact> 0.44122562E+00</totfact>
</mgrwt>
</event>
<event>
 6    1  0.5026615E-004  0.1713694E+04  0.7818608E-02  0.8753593E-01
          2   -1    0    0  501    0  0.00000000000E+00  0.00000000000E+00  0.20315301785E+04  0.20315301785E+04  0.00000000000E+00 0.  1.
         -2   -1    0    0    0  501 -0.00000000000E+00 -0.00000000000E+00 -0.36139574559E+03  0.36139574559E+03  0.00000000000E+00 0. -1.
         23    2    1    2    0    0 -0.14196711291E+03 -0.83895102010E+03  0.72716820599E+03  0.11228161728E+04  0.89157628607E+02 0.  0.
         13    1    3    3    0    0 -0.13995522994E+03 -0.80011451288E+03  0.66629168498E+03  0.10505785595E+04  0.00000000000E+00 0.  1.
        -13    1    3    3    0    0 -0.20118829652E+01 -0.38836507223E+02  0.60876521018E+02  0.72237613316E+02  0.00000000000E+00 0. -1.
         22    1    1    2    0    0  0.14196711291E+03  0.83895102010E+03  0.94296622690E+03  0.12701097513E+04  0.00000000000E+00 0.  1.
<mgrwt>
<rscale>  0 0.17136935E+04</rscale>
<asrwt>0</asrwt>
<pdfrwt beam="1">  1        2 0.31254310E+00 0.17136935E+04</pdfrwt>
<pdfrwt beam="2">  1       -2 0.55599347E-01 0.17136935E+04</pdfrwt>
<totfact> 0.18540776E+01</totfact>
</mgrwt>
</event>
<event>
 6    1  0.5026615E-004  0.4309174E+04  0.7818608E-02  0.7944924E-01
          2   -1    0    0  501    0  0.00000000000E+00  0.00000000000E+00  0.37932437290E+04  0.37932437290E+04  0.00000000000E+00 0.  1.
         -2   -1    0    0    0  501 -0.00000000000E+00 -0.00000000000E+00 -0.12238194093E+04  0.12238194093E+04  0.00000000000E+00 0. -1.
         23    2    1    2    0    0  0.88823187152E+03 -0.71268032623E+02 -0.99727566922E+03  0.13407356501E+04  0.94754065834E+02 0.  0.
         13    1    3    3    0    0  0.17477896011E+03  0.16815350330E+01 -0.14692742781E+03  0.22833786699E+03  0.00000000000E+00 0.  1.
        -13    1    3    3    0    0  0.71345291141E+03 -0.72949567656E+02 -0.85034824141E+03  0.11123977831E+04  0.00000000000E+00 0. -1.
         22    1    1    2    0    0 -0.88823187152E+03  0.71268032623E+02  0.35666999889E+04  0.36763274882E+04  0.00000000000E+00 0.  1.
<mgrwt>
<rscale>  0 0.43091741E+04</rscale>
<asrwt>0</asrwt>
<pdfrwt beam="1">  1        2 0.58357595E+00 0.43091741E+04</pdfrwt>
<pdfrwt beam="2">  1       -2 0.18827991E+00 0.43091741E+04</pdfrwt>
<totfact> 0.60690306E-02</totfact>
</mgrwt>
</event>
<event>
 6    1  0.5026615E-004  0.3309407E+04  0.7818608E-02  0.8160506E-01
         -2   -1    0    0    0  501 -0.00000000000E+00  0.00000000000E+00  0.21855834086E+04  0.21855834086E+04  0.00000000000E+00 0. -1.
          2   -1    0    0  501    0  0.00000000000E+00 -0.00000000000E+00 -0.12527745116E+04  0.12527745116E+04  0.00000000000E+00 0.  1.
         23    2    1    2    0    0  0.43647644375E+03 -0.49778111001E+03 -0.11073869463E+04  0.12934344255E+04  0.91482483627E+02 0.  0.
         13    1    3    3    0    0  0.27611319473E+03 -0.34578909036E+03 -0.66229983343E+03  0.79652348408E+03  0.00000000000E+00 0. -1.
        -13    1    3    3    0    0  0.16036324902E+03 -0.15199201965E+03 -0.44508711283E+03  0.49691094140E+03  0.00000000000E+00 0.  1.
         22    1    1    2    0    0 -0.43647644375E+03  0.49778111001E+03  0.20401958432E+04  0.21449234947E+04  0.00000000000E+00 0. -1.
<mgrwt>
<rscale>  0 0.33094067E+04</rscale>
<asrwt>0</asrwt>
<pdfrwt beam="1">  1        2 0.19273454E+00 0.33094067E+04</pdfrwt>
<pdfrwt beam="2">  1       -2 0.33624360E+00 0.33094067E+04</pdfrwt>
<totfact> 0.27903121E-01</totfact>
</mgrwt>
</event>
<event>
 6    1  0.5026615E-004  0.3831277E+03  0.7818608E-02  0.1049784E+00
         -2   -1    0    0    0  501 -0.00000000000E+00  0.00000000000E+00  0.70742032906E+02  0.70742032906E+02  0.00000000000E+00 0. -1.
          2   -1    0    0  501    0  0.00000000000E+00 -0.00000000000E+00 -0.51873988519E+03  0.51873988519E+03  0.00000000000E+00 0.  1.
         23    2    1    2    0    0 -0.71922888568E+02  0.14371971944E+03 -0.36281766956E+03  0.40759205257E+03  0.93093288236E+02 0.  0.
         13    1    3    3    0    0 -0.85609326892E+02  0.10853855374E+03 -0.32918731423E+03  0.35703481952E+03  0.00000000000E+00 0.  1.
        -13    1    3    3    0    0  0.13686438324E+02  0.35181165695E+02 -0.33630355331E+02  0.50557233047E+02  0.00000000000E+00 0. -1.
         22    1    1    2    0    0  0.71922888568E+02 -0.14371971944E+03 -0.85180182726E+02  0.18188986553E+03  0.00000000000E+00 0. -1.
<mgrwt>
<rscale>  0 0.38312773E+03</rscale>
<asrwt>0</asrwt>
<pdfrwt beam="1">  1        2 0.79806133E-01 0.38312773E+03</pdfrwt>
<pdfrwt beam="2">  1       -2 0.10883390E-01 0.38312773E+03</pdfrwt>
<totfact> 0.34764761E+03</totfact>
</mgrwt>
</event>
<event>
 6    1  0.5026615E-004  0.5532618E+04  0.7818608E-02  0.7751217E-01
          2   -1    0    0  501    0  0.00000000000E+00  0.00000000000E+00  0.26735705883E+04  0.26735705883E+04  0.00000000000E+00 0.  1.
         -2   -1    0    0    0  501 -0.00000000000E+00 -0.00000000000E+00 -0.28622637369E+04  0.28622637369E+04  0.00000000000E+00 0. -1.
         23    2    1    2    0    0  0.55726691160E+02 -0.18069626695E+04 -0.21884183564E+04  0.28400746067E+04  0.92894111848E+02 0.  0.
         13    1    3    3    0    0  0.56552329006E+02 -0.61865440590E+03 -0.71502062823E+03  0.94719899633E+03  0.00000000000E+00 0.  1.
        -13    1    3    3    0    0 -0.82563784552E+00 -0.11883082636E+04 -0.14733977282E+04  0.18928756104E+04  0.00000000000E+00 0. -1.
         22    1    1    2    0    0 -0.55726691160E+02  0.18069626695E+04  0.19997252078E+04  0.26957597185E+04  0.00000000000E+00 0.  1.
<mgrwt>
<rscale>  0 0.55326175E+04</rscale>
<asrwt>0</asrwt>
<pdfrwt beam="1">  1        2 0.41131855E+00 0.55326175E+04</pdfrwt>
<pdfrwt beam="2">  1       -2 0.44034827E+00 0.55326175E+04</pdfrwt>
<totfact> 0.77521866E-03</totfact>
</mgrwt>
</event>
<event>
 6    1  0.5026615E-004  0.2297111E+04  0.7818608E-02  0.8479061E-01
         -2   -1    0    0    0  501 -0.00000000000E+00  0.00000000000E+00  0.66614660035E+03  0.66614660035E+03  0.00000000000E+00 0. -1.
          2   -1    0    0  501    0  0.00000000000E+00 -0.00000000000E+00 -0.19803151896E+04  0.19803151896E+04  0.00000000000E+00 0.  1.
         23    2    1    2    0    0  0.62645599412E+03  0.94312745253E+03 -0.86787008286E+03  0.14294495217E+04  0.90503867340E+02 0.  0.
         13    1    3    3    0    0  0.65306319726E+02  0.72264516800E+02 -0.49763458599E+02  0.10937768326E+03  0.00000000000E+00 0. -1.
        -13    1    3    3    0    0  0.56114967439E+03  0.87086293573E+03 -0.81810662426E+03  0.13200718384E+04  0.00000000000E+00 0.  1.
         22    1    1    2    0    0 -0.62645599412E+03 -0.94312745253E+03 -0.44629850637E+03  0.12170122682E+04  0.00000000000E+00 0. -1.
<mgrwt>
<rscale>  0 0.22971114E+04</rscale>
<asrwt>0</asrwt>
<pdfrwt beam="1">  1        2 0.30466387E+00 0.22971114E+04</pdfrwt>
<pdfrwt beam="2">  1       -2 0.10248409E+00 0.22971114E+04</pdfrwt>
<totfact> 0.48405247E+00</totfact>
</mgrwt>
</event>
<event>
 6    1  0.5026615E-004  0.1026742E+04  0.7818608E-02  0.9279691E-01
         -2   -1    0    0    0  501 -0.00000000000E+00  0.00000000000E+00  0.19786138692E+03  0.19786138692E+03  0.00000000000E+00 0. -1.
          2   -1    0    0  501    0  0.00000000000E+00 -0.00000000000E+00 -0.13319931978E+04  0.13319931978E+04  0.00000000000E+00 0.  1.
         23    2    1    2    0    0 -0.37966562985E+03  0.23229165996E+03 -0.20232024506E+03  0.49719868852E+03  0.90375043732E+02 0.  0.
         13    1    3    3    0    0 -0.28553191664E+03  0.21255810004E+03 -0.13950398657E+03  0.38232287871E+03  0.00000000000E+00 0.  1.
        -13    1    3    3    0    0 -0.94133713203E+02  0.19733559916E+02 -0.62816258492E+02  0.11487580981E+03  0.00000000000E+00 0. -1.
         22    1    1    2    0    0  0.37966562985E+03 -0.23229165996E+03 -0.93181156579E+03  0.10326558962E+04  0.00000000000E+00 0.  1.
<mgrwt>
<rscale>  0 0.10267425E+04</rscale>
<asrwt>0</asrwt>
<pdfrwt beam="1">  1        2 0.20492203E+00 0.10267425E+04</pdfrwt>
<pdfrwt beam="2">  1       -2 0.30440213E-01 0.10267425E+04</pdfrwt>
<totfact> 0.15736643E+02</totfact>
</mgrwt>
</event>
<event>
 6    1  0.5026615E-004  0.2745361E+04  0.7818608E-02  0.8320435E-01
         -2   -1    0    0    0  501 -0.00000000000E+00  0.00000000000E+00  0.68723568325E+03  0.68723568325E+03  0.00000000000E+00 0. -1.
          2   -1    0    0  501    0  0.00000000000E+00 -0.00000000000E+00 -0.27417838417E+04  0.27417838417E+04  0.00000000000E+00 0.  1.
         23    2    1    2    0    0  0.10569741143E+04  0.30547400548E+03 -0.20501097989E+04  0.23287793942E+04  0.98765544655E+02 0.  0.
         11    1    3    3    0    0  0.28522087749E+03  0.84743180817E+02 -0.46570908242E+03  0.55264573200E+03  0.00000000000E+00 0. -1.
        -11    1    3    3    0    0  0.77175323684E+03  0.22073082466E+03 -0.15844007165E+04  0.17761336622E+04  0.00000000000E+00 0.  1.
         22    1    1    2    0    0 -0.10569741143E+04 -0.30547400548E+03 -0.44383595671E+01  0.11002401308E+04  0.00000000000E+00 0. -1.
<mgrwt>
<rscale>  0 0.27453610E+04</rscale>
<asrwt>0</asrwt>
<pdfrwt beam="1">  1        2 0.42181290E+00 0.27453610E+04</pdfrwt>
<pdfrwt beam="2">  1       -2 0.10572857E+00 0.27453610E+04</pdfrwt>
<totfact> 0.15836735E+00</totfact>
</mgrwt>
</event>
<event>
 6    1  0.5026615E-004  0.1507457E+04  0.7818608E-02  0.8879509E-01
          2   -1    0    0  501    0  0.00000000000E+00  0.00000000000E+00  0.52390988523E+03  0.52390988523E+03  0.00000000000E+00 0.  1.
         -2   -1    0    0    0  501 -0.00000000000E+00 -0.00000000000E+00 -0.10843589402E+04  0.10843589402E+04  0.00000000000E+00 0. -1.
         23    2    1    2    0    0 -0.51752129624E+03 -0.81559728035E+02 -0.85523814654E+03  0.10071191853E+04  0.91523138070E+02 0.  0.
         13    1    3    3    0    0 -0.31687534134E+03 -0.85572086512E+02 -0.58084822596E+03  0.66717106168E+03  0.00000000000E+00 0. -1.
        -13    1    3    3    0    0 -0.20064595490E+03  0.40123584770E+01 -0.27438992058E+03  0.33994812362E+03  0.00000000000E+00 0.  1.
         22    1    1    2    0    0  0.51752129624E+03  0.81559728035E+02  0.29478909158E+03  0.60114964011E+03  0.00000000000E+00 0.  1.
<mgrwt>
<rscale>  0 0.15074566E+04</rscale>
<asrwt>0</asrwt>
<pdfrwt beam="1">  1        2 0.80601521E-01 0.15074566E+04</pdfrwt>
<pdfrwt beam="2">  1       -2 0.16682445E+00 0.15074566E+04</pdfrwt>
<totfact> 0.12632180E+01</totfact>
</mgrwt>
</event>
<event>
 6    1  0.5026615E-004  0.7507100E+03  0.7818608E-02  0.9634237E-01
          2   -1    0    0  501    0  0.00000000000E+00  0.00000000000E+00  0.13227912774E+03  0.13227912774E+03  0.00000000000E+00 0.  1.
         -2   -1    0    0    0  501 -0.00000000000E+00 -0.00000000000E+00 -0.10651067321E+04  0.10651067321E+04  0.00000000000E+00 0. -1.
         23    2    1    2    0    0  0.28323848419E+03  0.64575171627E+02 -0.83864855606E+03  0.89199482387E+03  0.89047029843E+02 0.  0.
         13    1    3    3    0    0  0.69513396464E+02  0.79664479817E+01 -0.10848522612E+03  0.12909152129E+03  0.00000000000E+00 0. -1.
        -13    1    3    3    0    0  0.21372508772E+03  0.56608723645E+02 -0.73016332993E+03  0.76290330258E+03  0.00000000000E+00 0.  1.
         22    1    1    2    0    0 -0.28323848419E+03 -0.64575171627E+02 -0.94179048316E+02  0.30539103598E+03  0.00000000000E+00 0.  1.
<mgrwt>
<rscale>  0 0.75071004E+03</rscale>
<asrwt>0</asrwt>
<pdfrwt beam="1">  1        2 0.20350635E-01 0.75071004E+03</pdfrwt>
<pdfrwt beam="2">  1       -2 0.16386257E+00 0.75071004E+03</pdfrwt>
<totfact> 0.66491292E+01</totfact>
</mgrwt>
</event>
<event>
 6    1  0.5026615E-004  0.2617288E+04  0.7818608E-02  0.8362353E-01
         -2   -1    0    0    0  501 -0.00000000000E+00  0.00000000000E+00  0.20581985077E+04  0.20581985077E+04  0.00000000000E+00 0. -1.
          2   -1    0    0  501    0  0.00000000000E+00 -0.00000000000E+00 -0.83206207550E+03  0.83206207550E+03  0.00000000000E+00 0.  1.
         23    2    1    2    0    0  0.10203001533E+04  0.80699458015E+03  0.75414805479E+03  0.15064160530E+04  0.91089961008E+02 0.  0.
         11    1    3    3    0    0  0.57453925167E+03  0.44771372560E+03  0.47391317004E+03  0.86898597488E+03  0.00000000000E+00 0.  1.
        -11    1    3    3    0    0  0.44576090166E+03  0.35928085455E+03  0.28023488474E+03  0.63743007814E+03  0.00000000000E+00 0. -1.
         22    1    1    2    0    0 -0.10203001533E+04 -0.80699458015E+03  0.47198837742E+03  0.13838445302E+04  0.00000000000E+00 0.  1.
<mgrwt>
<rscale>  0 0.26172878E+04</rscale>
<asrwt>0</asrwt>
<pdfrwt beam="1">  1        2 0.12800955E+00 0.26172878E+04</pdfrwt>
<pdfrwt beam="2">  1       -2 0.31664592E+00 0.26172878E+04</pdfrwt>
<totfact> 0.72490774E-01</totfact>
</mgrwt>
</event>
<event>
 6    1  0.5026615E-004  0.3699685E+04  0.7818608E-02  0.8068032E-01
         -4   -1    0    0    0  501 -0.00000000000E+00  0.00000000000E+00  0.13442435248E+04  0.13442435248E+04  0.00000000000E+00 0. -1.
          4   -1    0    0  501    0  0.00000000000E+00 -0.00000000000E+00 -0.25456080341E+04  0.25456080341E+04  0.00000000000E+00 0.  1.
         23    2    1    2    0    0  0.12928639815E+04 -0.12119911376E+04 -0.11553196208E+04  0.21171305081E+04  0.84014105465E+02 0.  0.
         13    1    3    3    0    0  0.55976254101E+03 -0.52908911486E+03 -0.55187182922E+03  0.94753992511E+03  0.00000000000E+00 0.  1.
        -13    1    3    3    0    0  0.73310144048E+03 -0.68290202274E+03 -0.60344779160E+03  0.11695905830E+04  0.00000000000E+00 0. -1.
         22    1    1    2    0    0 -0.12928639815E+04  0.12119911376E+04 -0.46044888441E+02  0.17727210508E+04  0.00000000000E+00 0. -1.
<mgrwt>
<rscale>  0 0.36996849E+04</rscale>
<asrwt>0</asrwt>
<pdfrwt beam="1">  1        4 0.39163200E+00 0.36996849E+04</pdfrwt>
<pdfrwt beam="2">  1       -4 0.20680670E+00 0.36996849E+04</pdfrwt>
<totfact> 0.14690120E-03</totfact>
</mgrwt>
</event>
<event>
 6    1  0.5026615E-004  0.3798149E+04  0.7818608E-02  0.8046552E-01
          2   -1    0    0  501    0  0.00000000000E+00  0.00000000000E+00  0.22509602300E+04  0.22509602300E+04  0.00000000000E+00 0.  1.
         -2   -1    0    0    0  501 -0.00000000000E+00 -0.00000000000E+00 -0.16021976123E+04  0.16021976123E+04  0.00000000000E+00 0. -1.
         23    2    1    2    0    0 -0.17356422795E+04  0.69597225375E+03  0.65394825260E+03  0.19831689676E+04  0.92083312719E+02 0.  0.
         11    1    3    3    0    0 -0.16552320579E+04  0.65595465193E+03  0.60243186521E+03  0.18796259796E+04  0.00000000000E+00 0. -1.
        -11    1    3    3    0    0 -0.80410221628E+02  0.40017601821E+02  0.51516387389E+02  0.10354298802E+03  0.00000000000E+00 0.  1.
         22    1    1    2    0    0  0.17356422795E+04 -0.69597225375E+03 -0.51856348353E+01  0.18699888747E+04  0.00000000000E+00 0. -1.
<mgrwt>
<rscale>  0 0.37981486E+04</rscale>
<asrwt>0</asrwt>
<pdfrwt beam="1">  1        2 0.34630157E+00 0.37981486E+04</pdfrwt>
<pdfrwt beam="2">  1       -2 0.24649194E+00 0.37981486E+04</pdfrwt>
<totfact> 0.26179353E-01</totfact>
</mgrwt>
</event>
<event>
 6    1  0.5026615E-004  0.1910314E+04  0.7818608E-02  0.8649739E-01
          2   -1    0    0  501    0  0.00000000000E+00  0.00000000000E+00  0.37124839958E+04  0.37124839958E+04  0.00000000000E+00 0.  1.
         -2   -1    0    0    0  501 -0.00000000000E+00 -0.00000000000E+00 -0.24574512269E+03  0.24574512269E+03  0.00000000000E+00 0. -1.
         23    2    1    2    0    0  0.73416026178E+03 -0.60632835011E+03  0.16551488473E+04  0.19116505640E+04  0.90911022126E+02 0.  0.
         13    1    3    3    0    0  0.42715938284E+03 -0.34866450669E+03  0.86779195838E+03  0.10281512338E+04  0.00000000000E+00 0. -1.
        -13    1    3    3    0    0  0.30700087894E+03 -0.25766384341E+03  0.78735688891E+03  0.88349933016E+03  0.00000000000E+00 0.  1.
         22    1    1    2    0    0 -0.73416026178E+03  0.60632835011E+03  0.18115900258E+04  0.20465785545E+04  0.00000000000E+00 0.  1.
<mgrwt>
<rscale>  0 0.19103139E+04</rscale>
<asrwt>0</asrwt>
<pdfrwt beam="1">  1        2 0.57115134E+00 0.19103139E+04</pdfrwt>
<pdfrwt beam="2">  1       -2 0.37806945E-01 0.19103139E+04</pdfrwt>
<totfact> 0.35614757E+00</totfact>
</mgrwt>
</event>
<event>
 6    1  0.5026615E-004  0.1642334E+04  0.7818608E-02  0.8794955E-01
          2   -1    0    0  501    0  0.00000000000E+00  0.00000000000E+00  0.51475525080E+04  0.51475525080E+04  0.00000000000E+00 0.  1.
         -2   -1    0    0    0  501 -0.00000000000E+00 -0.00000000000E+00 -0.13099724408E+03  0.13099724408E+03  0.00000000000E+00 0. -1.
         23    2    1    2    0    0  0.33947717053E+03 -0.47912675315E+03  0.43494482901E+04  0.43898209355E+04  0.89555696065E+02 0.  0.
         13    1    3    3    0    0  0.25923600947E+03 -0.36971343089E+03  0.30382022210E+04  0.30715735488E+04  0.00000000000E+00 0. -1.
        -13    1    3    3    0    0  0.80241161060E+02 -0.10941332226E+03  0.13112460690E+04  0.13182473867E+04  0.00000000000E+00 0.  1.
         22    1    1    2    0    0 -0.33947717053E+03  0.47912675315E+03  0.66710697382E+03  0.88872881658E+03  0.00000000000E+00 0. -1.
<mgrwt>
<rscale>  0 0.16423339E+04</rscale>
<asrwt>0</asrwt>
<pdfrwt beam="1">  1        2 0.79193100E+00 0.16423339E+04</pdfrwt>
<pdfrwt beam="2">  1       -2 0.20153426E-01 0.16423339E+04</pdfrwt>
<totfact> 0.46252472E-01</totfact>
</mgrwt>
</event>
<event>
 6    1  0.5026615E-004  0.1789646E+04  0.7818608E-02  0.8711825E-01
          2   -1    0    0  501    0  0.00000000000E+00  0.00000000000E+00  0.11035698528E+04  0.11035698528E+04  0.00000000000E+00 0.  1.
         -2   -1    0    0    0  501 -0.00000000000E+00 -0.00000000000E+00 -0.72556166345E+03  0.72556166345E+03  0.00000000000E+00 0. -1.
         23    2    1    2    0    0  0.16926530362E+03 -0.50511040570E+03 -0.54252594967E+03  0.76556658354E+03  0.89277784481E+02 0.  0.
         13    1    3    3    0    0  0.14871467755E+02 -0.13270101089E+03 -0.17426278002E+03  0.21954096507E+03  0.00000000000E+00 0. -1.
        -13    1    3    3    0    0  0.15439383587E+03 -0.37240939481E+03 -0.36826316966E+03  0.54602561847E+03  0.00000000000E+00 0.  1.
         22    1    1    2    0    0 -0.16926530362E+03  0.50511040570E+03  0.92053413900E+03  0.10635649327E+04  0.00000000000E+00 0.  1.
<mgrwt>
<rscale>  0 0.17896458E+04</rscale>
<asrwt>0</asrwt>
<pdfrwt beam="1">  1        2 0.16977998E+00 0.17896458E+04</pdfrwt>
<pdfrwt beam="2">  1       -2 0.11162487E+00 0.17896458E+04</pdfrwt>
<totfact> 0.12987507E+01</totfact>
</mgrwt>
</event>
<event>
 6    1  0.5026615E-004  0.3874642E+04  0.7818608E-02  0.8030324E-01
         -2   -1    0    0    0  501 -0.00000000000E+00  0.00000000000E+00  0.10349785876E+04  0.10349785876E+04  0.00000000000E+00 0. -1.
          2   -1    0    0  501    0  0.00000000000E+00 -0.00000000000E+00 -0.36263683009E+04  0.36263683009E+04  0.00000000000E+00 0.  1.
         23    2    1    2    0    0  0.11533175043E+04  0.11805398835E+04 -0.25144894853E+04  0.30091576356E+04  0.92502010314E+02 0.  0.
         13    1    3    3    0    0  0.24682896939E+03  0.26754891806E+03 -0.62381628682E+03  0.72225599574E+03  0.00000000000E+00 0.  1.
        -13    1    3    3    0    0  0.90648853495E+03  0.91299096543E+03 -0.18906731984E+04  0.22869016398E+04  0.00000000000E+00 0. -1.
         22    1    1    2    0    0 -0.11533175043E+04 -0.11805398835E+04 -0.76900228066E+02  0.16521892529E+04  0.00000000000E+00 0. -1.
<mgrwt>
<rscale>  0 0.38746425E+04</rscale>
<asrwt>0</asrwt>
<pdfrwt beam="1">  1        2 0.55790281E+00 0.38746425E+04</pdfrwt>
<pdfrwt beam="2">  1       -2 0.15922748E+00 0.38746425E+04</pdfrwt>
<totfact> 0.13411529E-01</totfact>
</mgrwt>
</event>
<event>
 6    1  0.5026615E-004  0.1691213E+04  0.7818608E-02  0.8766392E-01
          2   -1    0    0  501    0  0.00000000000E+00  0.00000000000E+00  0.19627223756E+04  0.19627223756E+04  0.00000000000E+00 0.  1.
         -2   -1    0    0    0  501 -0.00000000000E+00 -0.00000000000E+00 -0.36431540982E+03  0.36431540982E+03  0.00000000000E+00 0. -1.
         23    2    1    2    0    0  0.30002749106E+03 -0.19472034868E+03 -0.24913110874E+03  0.44519574998E+03  0.90556263616E+02 0.  0.
         13    1    3    3    0    0  0.15138758937E+03 -0.85087910710E+02 -0.17390516890E+03  0.24576647968E+03  0.00000000000E+00 0. -1.
        -13    1    3    3    0    0  0.14863990169E+03 -0.10963243797E+03 -0.75225939842E+02  0.19942927030E+03  0.00000000000E+00 0.  1.
         22    1    1    2    0    0 -0.30002749106E+03  0.19472034868E+03  0.18475380745E+04  0.18818420354E+04  0.00000000000E+00 0.  1.
<mgrwt>
<rscale>  0 0.16912126E+04</rscale>
<asrwt>0</asrwt>
<pdfrwt beam="1">  1        2 0.30195728E+00 0.16912126E+04</pdfrwt>
<pdfrwt beam="2">  1       -2 0.56048526E-01 0.16912126E+04</pdfrwt>
<totfact> 0.19946231E+01</totfact>
</mgrwt>
</event>
<event>
 6    1  0.5026615E-004  0.1666989E+04  0.7818608E-02  0.8780419E-01
         -2   -1    0    0    0  501 -0.00000000000E+00  0.00000000000E+00  0.43289510471E+03  0.43289510471E+03  0.00000000000E+00 0. -1.
          2   -1    0    0  501    0  0.00000000000E+00 -0.00000000000E+00 -0.16048063806E+04  0.16048063806E+04  0.00000000000E+00 0.  1.
         23    2    1    2    0    0  0.73652271826E+03 -0.20548952017E+02 -0.10574704219E+04  0.12920576810E+04  0.91002108663E+02 0.  0.
         13    1    3    3    0    0  0.46320925342E+03 -0.54236280890E+02 -0.69080512808E+03  0.83349631768E+03  0.00000000000E+00 0.  1.
        -13    1    3    3    0    0  0.27331346485E+03  0.33687328873E+02 -0.36666529384E+03  0.45856136328E+03  0.00000000000E+00 0. -1.
         22    1    1    2    0    0 -0.73652271826E+03  0.20548952017E+02 -0.11444085402E+03  0.74564380438E+03  0.00000000000E+00 0. -1.
<mgrwt>
<rscale>  0 0.16669887E+04</rscale>
<asrwt>0</asrwt>
<pdfrwt beam="1">  1        2 0.24689329E+00 0.16669887E+04</pdfrwt>
<pdfrwt beam="2">  1       -2 0.66599246E-01 0.16669887E+04</pdfrwt>
<totfact> 0.21901023E+01</totfact>
</mgrwt>
</event>
<event>
 6    1  0.5026615E-004  0.2951889E+04  0.7818608E-02  0.8257604E-01
          2   -1    0    0  501    0  0.00000000000E+00  0.00000000000E+00  0.18549432130E+04  0.18549432130E+04  0.00000000000E+00 0.  1.
         -2   -1    0    0    0  501 -0.00000000000E+00 -0.00000000000E+00 -0.11743817677E+04  0.11743817677E+04  0.00000000000E+00 0. -1.
         23    2    1    2    0    0 -0.41338186879E+03 -0.12197051586E+04  0.10758675340E+04  0.16821679197E+04  0.11675922320E+03 0.  0.
         13    1    3    3    0    0 -0.10240042804E+03 -0.29557880283E+03  0.32874382789E+03  0.45378979794E+03  0.00000000000E+00 0.  1.
        -13    1    3    3    0    0 -0.31098144075E+03 -0.92412635576E+03  0.74712370606E+03  0.12283781218E+04  0.00000000000E+00 0. -1.
         22    1    1    2    0    0  0.41338186879E+03  0.12197051586E+04 -0.39530608865E+03  0.13471570610E+04  0.00000000000E+00 0. -1.
<mgrwt>
<rscale>  0 0.29518885E+04</rscale>
<asrwt>0</asrwt>
<pdfrwt beam="1">  1        2 0.28537588E+00 0.29518885E+04</pdfrwt>
<pdfrwt beam="2">  1       -2 0.18067412E+00 0.29518885E+04</pdfrwt>
<totfact> 0.12402432E+00</totfact>
</mgrwt>
</event>
<event>
 6    1  0.5026615E-004  0.1659775E+04  0.7818608E-02  0.8784645E-01
         -2   -1    0    0    0  501 -0.00000000000E+00  0.00000000000E+00  0.43878199852E+03  0.43878199852E+03  0.00000000000E+00 0. -1.
          2   -1    0    0  501    0  0.00000000000E+00 -0.00000000000E+00 -0.15696019445E+04  0.15696019445E+04  0.00000000000E+00 0.  1.
         23    2    1    2    0    0 -0.63070968110E+03 -0.46781209801E+03 -0.25136849029E+03  0.82936836899E+03  0.89570713410E+02 0.  0.
         11    1    3    3    0    0 -0.30582504062E+03 -0.27696239613E+03 -0.15184719918E+03  0.43965292702E+03  0.00000000000E+00 0.  1.
        -11    1    3    3    0    0 -0.32488464048E+03 -0.19084970188E+03 -0.99521291111E+02  0.38971544197E+03  0.00000000000E+00 0. -1.
         22    1    1    2    0    0  0.63070968110E+03  0.46781209801E+03 -0.87945145571E+03  0.11790155740E+04  0.00000000000E+00 0. -1.
<mgrwt>
<rscale>  0 0.16597748E+04</rscale>
<asrwt>0</asrwt>
<pdfrwt beam="1">  1        2 0.24147722E+00 0.16597748E+04</pdfrwt>
<pdfrwt beam="2">  1       -2 0.67504923E-01 0.16597748E+04</pdfrwt>
<totfact> 0.22270761E+01</totfact>
</mgrwt>
</event>
<event>
 6    1  0.5026615E-004  0.1919681E+04  0.7818608E-02  0.8645121E-01
          2   -1    0    0  501    0  0.00000000000E+00  0.00000000000E+00  0.16291450439E+04  0.16291450439E+04  0.00000000000E+00 0. -1.
         -2   -1    0    0    0  501 -0.00000000000E+00 -0.00000000000E+00 -0.56550772397E+03  0.56550772397E+03  0.00000000000E+00 0.  1.
         23    2    1    2    0    0 -0.83155230204E+02  0.64299317820E+03 -0.27241252846E+03  0.70959916046E+03  0.94696163337E+02 0.  0.
         13    1    3    3    0    0 -0.38357839989E+02  0.22830553755E+03 -0.49763565443E+02  0.23679348558E+03  0.00000000000E+00 0. -1.
        -13    1    3    3    0    0 -0.44797390216E+02  0.41468764064E+03 -0.22264896301E+03  0.47280567488E+03  0.00000000000E+00 0.  1.
         22    1    1    2    0    0  0.83155230204E+02 -0.64299317820E+03  0.13360498484E+04  0.14850536074E+04  0.00000000000E+00 0. -1.
<mgrwt>
<rscale>  0 0.19196813E+04</rscale>
<asrwt>0</asrwt>
<pdfrwt beam="1">  1        2 0.25063770E+00 0.19196813E+04</pdfrwt>
<pdfrwt beam="2">  1       -2 0.87001189E-01 0.19196813E+04</pdfrwt>
<totfact> 0.11474982E+01</totfact>
</mgrwt>
</event>
<event>
 6    1  0.5026615E-004  0.3582027E+03  0.7818608E-02  0.1059298E+00
         -4   -1    0    0    0  501 -0.00000000000E+00  0.00000000000E+00  0.47072135541E+03  0.47072135541E+03  0.00000000000E+00 0. -1.
          4   -1    0    0  501    0  0.00000000000E+00 -0.00000000000E+00 -0.68144975833E+02  0.68144975833E+02  0.00000000000E+00 0.  1.
         23    2    1    2    0    0 -0.61912938606E+02  0.14260754201E+03  0.30819888709E+03  0.35699485439E+03  0.91042018068E+02 0.  0.
         13    1    3    3    0    0  0.75873177716E+01  0.95974717586E+02  0.17310178964E+03  0.19807307586E+03  0.00000000000E+00 0.  1.
        -13    1    3    3    0    0 -0.69500256377E+02  0.46632824424E+02  0.13509709745E+03  0.15892177853E+03  0.00000000000E+00 0. -1.
         22    1    1    2    0    0  0.61912938606E+02 -0.14260754201E+03  0.94377492491E+02  0.18187147686E+03  0.00000000000E+00 0. -1.
<mgrwt>
<rscale>  0 0.35820271E+03</rscale>
<asrwt>0</asrwt>
<pdfrwt beam="1">  1        4 0.10483843E-01 0.35820271E+03</pdfrwt>
<pdfrwt beam="2">  1       -4 0.72418668E-01 0.35820271E+03</pdfrwt>
<totfact> 0.23840357E+02</totfact>
</mgrwt>
</event>
<event>
 6    1  0.5026615E-004  0.2800694E+04  0.7818608E-02  0.8303053E-01
          2   -1    0    0  501    0  0.00000000000E+00  0.00000000000E+00  0.25932216823E+04  0.25932216823E+04  0.00000000000E+00 0.  1.
         -2   -1    0    0    0  501 -0.00000000000E+00 -0.00000000000E+00 -0.75619137668E+03  0.75619137668E+03  0.00000000000E+00 0. -1.
         23    2    1    2    0    0  0.27921556050E+03 -0.12954410638E+04  0.14550625200E+04  0.19702726498E+04  0.92943521821E+02 0.  0.
         11    1    3    3    0    0  0.45273655750E+02 -0.38991302554E+03  0.45865250490E+03  0.60369196752E+03  0.00000000000E+00 0. -1.
        -11    1    3    3    0    0  0.23394190475E+03 -0.90552803830E+03  0.99641001511E+03  0.13665806823E+04  0.00000000000E+00 0.  1.
         22    1    1    2    0    0 -0.27921556050E+03  0.12954410638E+04  0.38196778565E+03  0.13791404092E+04  0.00000000000E+00 0. -1.
<mgrwt>
<rscale>  0 0.28006941E+04</rscale>
<asrwt>0</asrwt>
<pdfrwt beam="1">  1        2 0.39895718E+00 0.28006941E+04</pdfrwt>
<pdfrwt beam="2">  1       -2 0.11633714E+00 0.28006941E+04</pdfrwt>
<totfact> 0.15313616E+00</totfact>
</mgrwt>
</event>
<event>
 6    1  0.5172550E-004  0.1936754E+04  0.7818608E-02  0.8636775E-01
          2   -1    0    0  501    0  0.00000000000E+00  0.00000000000E+00  0.93723839040E+03  0.93723839040E+03  0.00000000000E+00 0.  1.
         -2   -1    0    0    0  501 -0.00000000000E+00 -0.00000000000E+00 -0.10005498218E+04  0.10005498218E+04  0.00000000000E+00 0. -1.
         23    2    1    2    0    0  0.50957272466E+03  0.22721305279E+03  0.75748215621E+03  0.94532045629E+03  0.92527914837E+02 0.  0.
         13    1    3    3    0    0  0.22930240590E+03  0.15005765285E+03  0.34217440490E+03  0.43838364009E+03  0.00000000000E+00 0. -1.
        -13    1    3    3    0    0  0.28027031877E+03  0.77155399936E+02  0.41530775130E+03  0.50693681619E+03  0.00000000000E+00 0.  1.
         22    1    1    2    0    0 -0.50957272466E+03 -0.22721305279E+03 -0.82079358758E+03  0.99246775589E+03  0.00000000000E+00 0. -1.
<mgrwt>
<rscale>  0 0.19367537E+04</rscale>
<asrwt>0</asrwt>
<pdfrwt beam="1">  1        2 0.14419052E+00 0.19367537E+04</pdfrwt>
<pdfrwt beam="2">  1       -2 0.15393074E+00 0.19367537E+04</pdfrwt>
<totfact> 0.72279231E+00</totfact>
</mgrwt>
</event>
<event>
 6    1  0.5026615E-004  0.2998897E+04  0.7818608E-02  0.8244046E-01
          2   -1    0    0  501    0  0.00000000000E+00  0.00000000000E+00  0.16968267874E+04  0.16968267874E+04  0.00000000000E+00 0.  1.
         -2   -1    0    0    0  501 -0.00000000000E+00 -0.00000000000E+00 -0.13250294438E+04  0.13250294438E+04  0.00000000000E+00 0. -1.
         23    2    1    2    0    0  0.31721526220E+03 -0.70818331284E+03 -0.11052665248E+04  0.13533638583E+04  0.88490196439E+02 0.  0.
         11    1    3    3    0    0  0.27913612754E+03 -0.64037254533E+03 -0.94440868212E+03  0.11746921866E+04  0.00000000000E+00 0. -1.
        -11    1    3    3    0    0  0.38079134658E+02 -0.67810767516E+02 -0.16085784272E+03  0.17867167165E+03  0.00000000000E+00 0.  1.
         22    1    1    2    0    0 -0.31721526220E+03  0.70818331284E+03  0.14770638684E+04  0.16684923729E+04  0.00000000000E+00 0.  1.
<mgrwt>
<rscale>  0 0.29988968E+04</rscale>
<asrwt>0</asrwt>
<pdfrwt beam="1">  1        2 0.26105027E+00 0.29988968E+04</pdfrwt>
<pdfrwt beam="2">  1       -2 0.20385068E+00 0.29988968E+04</pdfrwt>
<totfact> 0.10580878E+00</totfact>
</mgrwt>
</event>
<event>
 6    1  0.5026615E-004  0.2257447E+04  0.7818608E-02  0.8494891E-01
         -2   -1    0    0    0  501 -0.00000000000E+00  0.00000000000E+00  0.70043061524E+03  0.70043061524E+03  0.00000000000E+00 0. -1.
          2   -1    0    0  501    0  0.00000000000E+00 -0.00000000000E+00 -0.18189049551E+04  0.18189049551E+04  0.00000000000E+00 0.  1.
         23    2    1    2    0    0  0.26186849872E+03  0.23564554826E+03 -0.17546965814E+04  0.17920923677E+04  0.92363556866E+02 0.  0.
         13    1    3    3    0    0  0.38546457975E+02  0.89046027437E+02 -0.47568036319E+03  0.48547588236E+03  0.00000000000E+00 0. -1.
        -13    1    3    3    0    0  0.22332204075E+03  0.14659952082E+03 -0.12790162182E+04  0.13066164854E+04  0.00000000000E+00 0.  1.
         22    1    1    2    0    0 -0.26186849872E+03 -0.23564554826E+03  0.63622224157E+03  0.72724320259E+03  0.00000000000E+00 0. -1.
<mgrwt>
<rscale>  0 0.22574470E+04</rscale>
<asrwt>0</asrwt>
<pdfrwt beam="1">  1        2 0.27983153E+00 0.22574470E+04</pdfrwt>
<pdfrwt beam="2">  1       -2 0.10775856E+00 0.22574470E+04</pdfrwt>
<totfact> 0.52917904E+00</totfact>
</mgrwt>
</event>
<event>
 6    1  0.5026615E-004  0.1513721E+04  0.7818608E-02  0.8875380E-01
         -2   -1    0    0    0  501 -0.00000000000E+00  0.00000000000E+00  0.91095064567E+03  0.91095064567E+03  0.00000000000E+00 0. -1.
          2   -1    0    0  501    0  0.00000000000E+00 -0.00000000000E+00 -0.62883497079E+03  0.62883497079E+03  0.00000000000E+00 0.  1.
         23    2    1    2    0    0  0.52982428211E+03 -0.49629818117E+03 -0.66232468454E+02  0.73457006549E+03  0.90447701414E+02 0.  0.
         13    1    3    3    0    0  0.28734272739E+03 -0.20985378332E+03 -0.45338100837E+02  0.35869206396E+03  0.00000000000E+00 0.  1.
        -13    1    3    3    0    0  0.24248155472E+03 -0.28644439785E+03 -0.20894367617E+02  0.37587800153E+03  0.00000000000E+00 0. -1.
         22    1    1    2    0    0 -0.52982428211E+03  0.49629818117E+03  0.34834814334E+03  0.80521555096E+03  0.00000000000E+00 0. -1.
<mgrwt>
<rscale>  0 0.15137207E+04</rscale>
<asrwt>0</asrwt>
<pdfrwt beam="1">  1        2 0.96743842E-01 0.15137207E+04</pdfrwt>
<pdfrwt beam="2">  1       -2 0.14014625E+00 0.15137207E+04</pdfrwt>
<totfact> 0.16183507E+01</totfact>
</mgrwt>
</event>
<event>
 6    1  0.5026615E-004  0.3995611E+04  0.7818608E-02  0.8005433E-01
         -2   -1    0    0    0  501 -0.00000000000E+00  0.00000000000E+00  0.18587197627E+04  0.18587197627E+04  0.00000000000E+00 0. -1.
          2   -1    0    0  501    0  0.00000000000E+00 -0.00000000000E+00 -0.21472988706E+04  0.21472988706E+04  0.00000000000E+00 0.  1.
         23    2    1    2    0    0 -0.43949036385E+03  0.79386104641E+03 -0.19277082040E+04  0.21324895210E+04  0.89919387344E+02 0.  0.
         13    1    3    3    0    0 -0.29953767116E+03  0.56198773701E+03 -0.14422910099E+04  0.15766281712E+04  0.00000000000E+00 0.  1.
        -13    1    3    3    0    0 -0.13995269270E+03  0.23187330940E+03 -0.48541719415E+03  0.55586134978E+03  0.00000000000E+00 0. -1.
         22    1    1    2    0    0  0.43949036385E+03 -0.79386104641E+03  0.16391290961E+04  0.18735291123E+04  0.00000000000E+00 0. -1.
<mgrwt>
<rscale>  0 0.39956110E+04</rscale>
<asrwt>0</asrwt>
<pdfrwt beam="1">  1        2 0.33035367E+00 0.39956110E+04</pdfrwt>
<pdfrwt beam="2">  1       -2 0.28595689E+00 0.39956110E+04</pdfrwt>
<totfact> 0.16897911E-01</totfact>
</mgrwt>
</event>
<event>
 6    1  0.5026615E-004  0.3902515E+04  0.7818608E-02  0.8024506E-01
         -2   -1    0    0    0  501 -0.00000000000E+00  0.00000000000E+00  0.12557819518E+04  0.12557819518E+04  0.00000000000E+00 0. -1.
          2   -1    0    0  501    0  0.00000000000E+00 -0.00000000000E+00 -0.30319006345E+04  0.30319006345E+04  0.00000000000E+00 0.  1.
         23    2    1    2    0    0 -0.17651867550E+04 -0.82886300302E+03 -0.90871742016E+03  0.21533716651E+04  0.91345609776E+02 0.  0.
         13    1    3    3    0    0 -0.23102955852E+03 -0.83276790028E+02 -0.13666630389E+03  0.28104689873E+03  0.00000000000E+00 0.  1.
        -13    1    3    3    0    0 -0.15341571965E+04 -0.74558621300E+03 -0.77205111627E+03  0.18723247664E+04  0.00000000000E+00 0. -1.
         22    1    1    2    0    0  0.17651867550E+04  0.82886300302E+03 -0.86740126260E+03  0.21343109212E+04  0.00000000000E+00 0. -1.
<mgrwt>
<rscale>  0 0.39025151E+04</rscale>
<asrwt>0</asrwt>
<pdfrwt beam="1">  1        2 0.46644625E+00 0.39025151E+04</pdfrwt>
<pdfrwt beam="2">  1       -2 0.19319722E+00 0.39025151E+04</pdfrwt>
<totfact> 0.19490330E-01</totfact>
</mgrwt>
</event>
<event>
 6    1  0.5026615E-004  0.4096749E+04  0.7818608E-02  0.7985309E-01
          2   -1    0    0  501    0  0.00000000000E+00  0.00000000000E+00  0.33228431697E+04  0.33228431697E+04  0.00000000000E+00 0. -1.
         -2   -1    0    0    0  501 -0.00000000000E+00 -0.00000000000E+00 -0.12627252924E+04  0.12627252924E+04  0.00000000000E+00 0.  1.
         23    2    1    2    0    0  0.15772438869E+04 -0.60109345150E+03  0.23275240302E+04  0.28766162490E+04  0.92419242524E+02 0.  0.
         13    1    3    3    0    0  0.27443125456E+03 -0.71945065246E+02  0.36375586632E+03  0.46131002176E+03  0.00000000000E+00 0. -1.
        -13    1    3    3    0    0  0.13028126323E+04 -0.52914838625E+03  0.19637681639E+04  0.24153062272E+04  0.00000000000E+00 0.  1.
         22    1    1    2    0    0 -0.15772438869E+04  0.60109345150E+03 -0.26740615293E+03  0.17089522131E+04  0.00000000000E+00 0.  1.
<mgrwt>
<rscale>  0 0.40967490E+04</rscale>
<asrwt>0</asrwt>
<pdfrwt beam="1">  1        2 0.51120664E+00 0.40967490E+04</pdfrwt>
<pdfrwt beam="2">  1       -2 0.19426543E+00 0.40967490E+04</pdfrwt>
<totfact> 0.12200764E-01</totfact>
</mgrwt>
</event>
<event>
 6    1  0.5026615E-004  0.3988944E+04  0.7818608E-02  0.8006781E-01
         -2   -1    0    0    0  501 -0.00000000000E+00  0.00000000000E+00  0.15138292338E+04  0.15138292338E+04  0.00000000000E+00 0.  1.
          2   -1    0    0  501    0  0.00000000000E+00 -0.00000000000E+00 -0.26277198025E+04  0.26277198025E+04  0.00000000000E+00 0. -1.
         23    2    1    2    0    0  0.12082735146E+04 -0.66683013362E+03  0.93625465377E+03  0.16701763922E+04  0.91263854188E+02 0.  0.
         13    1    3    3    0    0  0.80835579485E+03 -0.40365994317E+03  0.58473455023E+03  0.10762411138E+04  0.00000000000E+00 0.  1.
        -13    1    3    3    0    0  0.39991771976E+03 -0.26317019046E+03  0.35152010354E+03  0.59393527839E+03  0.00000000000E+00 0. -1.
         22    1    1    2    0    0 -0.12082735146E+04  0.66683013362E+03 -0.20501452224E+04  0.24713726442E+04  0.00000000000E+00 0. -1.
<mgrwt>
<rscale>  0 0.39889442E+04</rscale>
<asrwt>0</asrwt>
<pdfrwt beam="1">  1        2 0.40426458E+00 0.39889442E+04</pdfrwt>
<pdfrwt beam="2">  1       -2 0.23289681E+00 0.39889442E+04</pdfrwt>
<totfact> 0.18976598E-01</totfact>
</mgrwt>
</event>
<event>
 6    1  0.5026615E-004  0.2828906E+04  0.7818608E-02  0.8294350E-01
         -2   -1    0    0    0  501 -0.00000000000E+00  0.00000000000E+00  0.10139579678E+04  0.10139579678E+04  0.00000000000E+00 0. -1.
          2   -1    0    0  501    0  0.00000000000E+00 -0.00000000000E+00 -0.19731364491E+04  0.19731364491E+04  0.00000000000E+00 0.  1.
         23    2    1    2    0    0 -0.57183737928E+03  0.11036477512E+04 -0.11894334295E+04  0.17229529342E+04  0.93694092590E+02 0.  0.
         11    1    3    3    0    0 -0.25619633205E+03  0.54064143244E+03 -0.62991720904E+03  0.86874933627E+03  0.00000000000E+00 0. -1.
        -11    1    3    3    0    0 -0.31564104723E+03  0.56300631880E+03 -0.55951622051E+03  0.85420359793E+03  0.00000000000E+00 0.  1.
         22    1    1    2    0    0  0.57183737928E+03 -0.11036477512E+04  0.23025494820E+03  0.12641414827E+04  0.00000000000E+00 0. -1.
<mgrwt>
<rscale>  0 0.28289061E+04</rscale>
<asrwt>0</asrwt>
<pdfrwt beam="1">  1        2 0.30355945E+00 0.28289061E+04</pdfrwt>
<pdfrwt beam="2">  1       -2 0.15599354E+00 0.28289061E+04</pdfrwt>
<totfact> 0.16199747E+00</totfact>
</mgrwt>
</event>
<event>
 6    1  0.5026615E-004  0.3505049E+04  0.7818608E-02  0.8112594E-01
          2   -1    0    0  501    0  0.00000000000E+00  0.00000000000E+00  0.31803089264E+04  0.31803089264E+04  0.00000000000E+00 0.  1.
         -2   -1    0    0    0  501 -0.00000000000E+00 -0.00000000000E+00 -0.96573707623E+03  0.96573707623E+03  0.00000000000E+00 0. -1.
         23    2    1    2    0    0 -0.15660666597E+04 -0.70987578174E+03  0.15017368998E+04  0.22846964721E+04  0.90198920964E+02 0.  0.
         11    1    3    3    0    0 -0.84850644062E+02 -0.17364215499E+02  0.70430597176E+02  0.11163161199E+03  0.00000000000E+00 0. -1.
        -11    1    3    3    0    0 -0.14812160157E+04 -0.69251156624E+03  0.14313063026E+04  0.21730648601E+04  0.00000000000E+00 0.  1.
         22    1    1    2    0    0  0.15660666597E+04  0.70987578174E+03  0.71283495038E+03  0.18613495305E+04  0.00000000000E+00 0.  1.
<mgrwt>
<rscale>  0 0.35050491E+04</rscale>
<asrwt>0</asrwt>
<pdfrwt beam="1">  1        2 0.48927829E+00 0.35050491E+04</pdfrwt>
<pdfrwt beam="2">  1       -2 0.14857494E+00 0.35050491E+04</pdfrwt>
<totfact> 0.33678374E-01</totfact>
</mgrwt>
</event>
<event>
 6    1  0.5026615E-004  0.3453778E+04  0.7818608E-02  0.8124832E-01
          2   -1    0    0  501    0  0.00000000000E+00  0.00000000000E+00  0.22940623519E+04  0.22940623519E+04  0.00000000000E+00 0.  1.
         -2   -1    0    0    0  501 -0.00000000000E+00 -0.00000000000E+00 -0.12999410736E+04  0.12999410736E+04  0.00000000000E+00 0. -1.
         23    2    1    2    0    0 -0.13968765208E+04 -0.96361105868E+03  0.17116544889E+03  0.17079847130E+04  0.90021566102E+02 0.  0.
         11    1    3    3    0    0 -0.25425585803E+03 -0.20633317529E+03  0.57951089462E+02  0.33253232826E+03  0.00000000000E+00 0.  1.
        -11    1    3    3    0    0 -0.11426206627E+04 -0.75727788339E+03  0.11321435943E+03  0.13754523848E+04  0.00000000000E+00 0. -1.
         22    1    1    2    0    0  0.13968765208E+04  0.96361105868E+03  0.82295582935E+03  0.18860187124E+04  0.00000000000E+00 0.  1.
<mgrwt>
<rscale>  0 0.34537781E+04</rscale>
<asrwt>0</asrwt>
<pdfrwt beam="1">  1        2 0.35293267E+00 0.34537781E+04</pdfrwt>
<pdfrwt beam="2">  1       -2 0.19999093E+00 0.34537781E+04</pdfrwt>
<totfact> 0.50127664E-01</totfact>
</mgrwt>
</event>
<event>
 6    1  0.5026615E-004  0.3078826E+04  0.7818608E-02  0.8221573E-01
         -2   -1    0    0    0  501 -0.00000000000E+00  0.00000000000E+00  0.13906078842E+04  0.13906078842E+04  0.00000000000E+00 0. -1.
          2   -1    0    0  501    0  0.00000000000E+00 -0.00000000000E+00 -0.17041415642E+04  0.17041415642E+04  0.00000000000E+00 0.  1.
         23    2    1    2    0    0 -0.85239986793E+03 -0.12143715884E+04 -0.56440242476E+03  0.15900172408E+04  0.91218635191E+02 0.  0.
         11    1    3    3    0    0 -0.49520109296E+03 -0.77810999959E+03 -0.36603832570E+03  0.99230204566E+03  0.00000000000E+00 0. -1.
        -11    1    3    3    0    0 -0.35719877497E+03 -0.43626158883E+03 -0.19836409906E+03  0.59771519516E+03  0.00000000000E+00 0.  1.
         22    1    1    2    0    0  0.85239986793E+03  0.12143715884E+04  0.25086874474E+03  0.15047322076E+04  0.00000000000E+00 0.  1.
<mgrwt>
<rscale>  0 0.30788262E+04</rscale>
<asrwt>0</asrwt>
<pdfrwt beam="1">  1        2 0.26217562E+00 0.30788262E+04</pdfrwt>
<pdfrwt beam="2">  1       -2 0.21393967E+00 0.30788262E+04</pdfrwt>
<totfact> 0.89632357E-01</totfact>
</mgrwt>
</event>
<event>
 6    1  0.5026615E-004  0.1595712E+04  0.7818608E-02  0.8823187E-01
         -2   -1    0    0    0  501 -0.00000000000E+00  0.00000000000E+00  0.20288682651E+03  0.20288682651E+03  0.00000000000E+00 0. -1.
          2   -1    0    0  501    0  0.00000000000E+00 -0.00000000000E+00 -0.31375819709E+04  0.31375819709E+04  0.00000000000E+00 0.  1.
         23    2    1    2    0    0 -0.26667355103E+03 -0.63227620929E+03 -0.63055376073E+03  0.93631499544E+03  0.90552403963E+02 0.  0.
         11    1    3    3    0    0 -0.14630473434E+03 -0.37723205783E+03 -0.31254118392E+03  0.51126420996E+03  0.00000000000E+00 0. -1.
        -11    1    3    3    0    0 -0.12036881669E+03 -0.25504415146E+03 -0.31801257680E+03  0.42505078547E+03  0.00000000000E+00 0.  1.
         22    1    1    2    0    0  0.26667355103E+03  0.63227620929E+03 -0.23041413836E+04  0.24041538019E+04  0.00000000000E+00 0.  1.
<mgrwt>
<rscale>  0 0.15957118E+04</rscale>
<asrwt>0</asrwt>
<pdfrwt beam="1">  1        2 0.48270489E+00 0.15957118E+04</pdfrwt>
<pdfrwt beam="2">  1       -2 0.31213360E-01 0.15957118E+04</pdfrwt>
<totfact> 0.13096791E+01</totfact>
</mgrwt>
</event>
<event>
 6    1  0.5026615E-004  0.2703039E+04  0.7818608E-02  0.8334020E-01
         -2   -1    0    0    0  501 -0.00000000000E+00  0.00000000000E+00  0.14193202901E+04  0.14193202901E+04  0.00000000000E+00 0. -1.
          2   -1    0    0  501    0  0.00000000000E+00 -0.00000000000E+00 -0.12869577422E+04  0.12869577422E+04  0.00000000000E+00 0.  1.
         23    2    1    2    0    0 -0.10860794197E+04 -0.73348412304E+03  0.38989059112E+03  0.13706552721E+04  0.95465896270E+02 0.  0.
         13    1    3    3    0    0 -0.84202013203E+03 -0.59721572856E+03  0.27396663364E+03  0.10680459941E+04  0.00000000000E+00 0. -1.
        -13    1    3    3    0    0 -0.24405928762E+03 -0.13626839448E+03  0.11592395748E+03  0.30260927799E+03  0.00000000000E+00 0.  1.
         22    1    1    2    0    0  0.10860794197E+04  0.73348412304E+03 -0.25752804315E+03  0.13356227602E+04  0.00000000000E+00 0.  1.
<mgrwt>
<rscale>  0 0.27030392E+04</rscale>
<asrwt>0</asrwt>
<pdfrwt beam="1">  1        2 0.19799350E+00 0.27030392E+04</pdfrwt>
<pdfrwt beam="2">  1       -2 0.21835697E+00 0.27030392E+04</pdfrwt>
<totfact> 0.14939152E+00</totfact>
</mgrwt>
</event>
<event>
 6    1  0.5026615E-004  0.3347058E+03  0.7818608E-02  0.1069073E+00
          2   -1    0    0  501    0  0.00000000000E+00  0.00000000000E+00  0.36794392973E+03  0.36794392973E+03  0.00000000000E+00 0.  1.
         -2   -1    0    0    0  501 -0.00000000000E+00 -0.00000000000E+00 -0.76117553793E+02  0.76117553793E+02  0.00000000000E+00 0. -1.
         23    2    1    2    0    0  0.48169516866E+02 -0.10980761982E+03  0.21595917170E+02  0.14842231736E+03  0.84763110647E+02 0.  0.
         11    1    3    3    0    0  0.57680561902E+02 -0.70388944929E+02  0.45086194500E+02  0.10155991199E+03  0.00000000000E+00 0. -1.
        -11    1    3    3    0    0 -0.95110450359E+01 -0.39418674888E+02 -0.23490277329E+02  0.46862405365E+02  0.00000000000E+00 0.  1.
         22    1    1    2    0    0 -0.48169516866E+02  0.10980761982E+03  0.27023045877E+03  0.29563916616E+03  0.00000000000E+00 0.  1.
<mgrwt>
<rscale>  0 0.33470579E+03</rscale>
<asrwt>0</asrwt>
<pdfrwt beam="1">  1        2 0.56606758E-01 0.33470579E+03</pdfrwt>
<pdfrwt beam="2">  1       -2 0.11710393E-01 0.33470579E+03</pdfrwt>
<totfact> 0.45103674E+03</totfact>
</mgrwt>
</event>
<event>
 6    1  0.5026615E-004  0.1943302E+04  0.7818608E-02  0.8633597E-01
          2   -1    0    0  501    0  0.00000000000E+00  0.00000000000E+00  0.10685248604E+04  0.10685248604E+04  0.00000000000E+00 0.  1.
         -2   -1    0    0    0  501 -0.00000000000E+00 -0.00000000000E+00 -0.88356010308E+03  0.88356010308E+03  0.00000000000E+00 0. -1.
         23    2    1    2    0    0  0.69388183845E+03  0.30076247762E+03  0.70236496636E+03  0.10357700340E+04  0.87022662035E+02 0.  0.
         13    1    3    3    0    0  0.53610880597E+03  0.21149635013E+03  0.57588874679E+03  0.81473382564E+03  0.00000000000E+00 0. -1.
        -13    1    3    3    0    0  0.15777303248E+03  0.89266127495E+02  0.12647621957E+03  0.22103620838E+03  0.00000000000E+00 0.  1.
         22    1    1    2    0    0 -0.69388183845E+03 -0.30076247762E+03 -0.51740020904E+03  0.91631492948E+03  0.00000000000E+00 0. -1.
<mgrwt>
<rscale>  0 0.19433023E+04</rscale>
<asrwt>0</asrwt>
<pdfrwt beam="1">  1        2 0.16438844E+00 0.19433023E+04</pdfrwt>
<pdfrwt beam="2">  1       -2 0.13593232E+00 0.19433023E+04</pdfrwt>
<totfact> 0.82451474E+00</totfact>
</mgrwt>
</event>
<event>
 6    1  0.5026615E-004  0.3905364E+04  0.7818608E-02  0.8023915E-01
         -2   -1    0    0    0  501 -0.00000000000E+00  0.00000000000E+00  0.27741691583E+04  0.27741691583E+04  0.00000000000E+00 0. -1.
          2   -1    0    0  501    0  0.00000000000E+00 -0.00000000000E+00 -0.13744534245E+04  0.13744534245E+04  0.00000000000E+00 0.  1.
         23    2    1    2    0    0 -0.84767988711E+03 -0.76501283659E+03 -0.98114849872E+03  0.15081074199E+04  0.89049325252E+02 0.  0.
         11    1    3    3    0    0 -0.52778352662E+03 -0.43122123100E+03 -0.54736848147E+03  0.87413926554E+03  0.00000000000E+00 0. -1.
        -11    1    3    3    0    0 -0.31989636049E+03 -0.33379160559E+03 -0.43378001725E+03  0.63396815439E+03  0.00000000000E+00 0.  1.
         22    1    1    2    0    0  0.84767988711E+03  0.76501283659E+03  0.23808642325E+04  0.26405151628E+04  0.00000000000E+00 0. -1.
<mgrwt>
<rscale>  0 0.39053636E+04</rscale>
<asrwt>0</asrwt>
<pdfrwt beam="1">  1        2 0.21145437E+00 0.39053636E+04</pdfrwt>
<pdfrwt beam="2">  1       -2 0.42679525E+00 0.39053636E+04</pdfrwt>
<totfact> 0.58796729E-02</totfact>
</mgrwt>
</event>
<event>
 6    1  0.5026615E-004  0.2424981E+04  0.7818608E-02  0.8430210E-01
         -2   -1    0    0    0  501 -0.00000000000E+00  0.00000000000E+00  0.55462041999E+03  0.55462041999E+03  0.00000000000E+00 0. -1.
          2   -1    0    0  501    0  0.00000000000E+00 -0.00000000000E+00 -0.26507007530E+04  0.26507007530E+04  0.00000000000E+00 0.  1.
         23    2    1    2    0    0 -0.74437664472E+03  0.46874828004E+03 -0.21491443003E+04  0.23240508831E+04  0.92572916021E+02 0.  0.
         13    1    3    3    0    0 -0.64570253037E+03  0.36666480744E+03 -0.18012613013E+04  0.19483113495E+04  0.00000000000E+00 0. -1.
        -13    1    3    3    0    0 -0.98674114350E+02  0.10208347260E+03 -0.34788299893E+03  0.37573953367E+03  0.00000000000E+00 0.  1.
         22    1    1    2    0    0  0.74437664472E+03 -0.46874828004E+03  0.53063967218E+02  0.88127028990E+03  0.00000000000E+00 0. -1.
<mgrwt>
<rscale>  0 0.24249806E+04</rscale>
<asrwt>0</asrwt>
<pdfrwt beam="1">  1        2 0.40780011E+00 0.24249806E+04</pdfrwt>
<pdfrwt beam="2">  1       -2 0.85326220E-01 0.24249806E+04</pdfrwt>
<totfact> 0.30447626E+00</totfact>
</mgrwt>
</event>
<event>
 6    1  0.5026615E-004  0.9478902E+03  0.7818608E-02  0.9367620E-01
         -2   -1    0    0    0  501 -0.00000000000E+00  0.00000000000E+00  0.26807800937E+03  0.26807800937E+03  0.00000000000E+00 0. -1.
          2   -1    0    0  501    0  0.00000000000E+00 -0.00000000000E+00 -0.83790515407E+03  0.83790515407E+03  0.00000000000E+00 0.  1.
         23    2    1    2    0    0 -0.34987855755E+02  0.63565350952E+02 -0.82945039843E+03  0.83641139605E+03  0.79569818993E+02 0.  0.
         11    1    3    3    0    0 -0.54373847797E+02  0.53146763875E+02 -0.45452544761E+03  0.46084105325E+03  0.00000000000E+00 0.  1.
        -11    1    3    3    0    0  0.19385992043E+02  0.10418587077E+02 -0.37492495082E+03  0.37557034280E+03  0.00000000000E+00 0. -1.
         22    1    1    2    0    0  0.34987855755E+02 -0.63565350952E+02  0.25962325373E+03  0.26957176738E+03  0.00000000000E+00 0. -1.
<mgrwt>
<rscale>  0 0.94789017E+03</rscale>
<asrwt>0</asrwt>
<pdfrwt beam="1">  1        2 0.12890849E+00 0.94789017E+03</pdfrwt>
<pdfrwt beam="2">  1       -2 0.41242769E-01 0.94789017E+03</pdfrwt>
<totfact> 0.18028550E+02</totfact>
</mgrwt>
</event>
<event>
 6    1  0.5026615E-004  0.3212540E+04  0.7818608E-02  0.8185513E-01
         -2   -1    0    0    0  501 -0.00000000000E+00  0.00000000000E+00  0.90615500692E+03  0.90615500692E+03  0.00000000000E+00 0. -1.
          2   -1    0    0  501    0  0.00000000000E+00 -0.00000000000E+00 -0.28473091098E+04  0.28473091098E+04  0.00000000000E+00 0.  1.
         23    2    1    2    0    0 -0.55937824632E+03  0.71620702078E+03  0.57433182658E+03  0.10788564856E+04  0.90651808870E+02 0.  0.
         13    1    3    3    0    0 -0.14892960099E+03  0.22668049177E+03  0.13056119142E+03  0.30101544164E+03  0.00000000000E+00 0.  1.
        -13    1    3    3    0    0 -0.41044864533E+03  0.48952652901E+03  0.44377063516E+03  0.77784104397E+03  0.00000000000E+00 0. -1.
         22    1    1    2    0    0  0.55937824632E+03 -0.71620702078E+03 -0.25154859295E+04  0.26746076311E+04  0.00000000000E+00 0.  1.
<mgrwt>
<rscale>  0 0.32125401E+04</rscale>
<asrwt>0</asrwt>
<pdfrwt beam="1">  1        2 0.43804754E+00 0.32125401E+04</pdfrwt>
<pdfrwt beam="2">  1       -2 0.13940847E+00 0.32125401E+04</pdfrwt>
<totfact> 0.66074418E-01</totfact>
</mgrwt>
</event>
<event>
 6    1  0.5026615E-004  0.3190898E+04  0.7818608E-02  0.8191225E-01
          2   -1    0    0  501    0  0.00000000000E+00  0.00000000000E+00  0.37861042366E+04  0.37861042366E+04  0.00000000000E+00 0.  1.
         -2   -1    0    0    0  501 -0.00000000000E+00 -0.00000000000E+00 -0.67231563689E+03  0.67231563689E+03  0.00000000000E+00 0. -1.
         23    2    1    2    0    0 -0.10674705572E+04 -0.74943115056E+03  0.28386345146E+04  0.31254344233E+04  0.96716011467E+02 0.  0.
         13    1    3    3    0    0 -0.89101464019E+03 -0.58612454332E+03  0.23605557562E+04  0.25903035628E+04  0.00000000000E+00 0. -1.
        -13    1    3    3    0    0 -0.17645591703E+03 -0.16330660724E+03  0.47807875844E+03  0.53513086054E+03  0.00000000000E+00 0.  1.
         22    1    1    2    0    0  0.10674705572E+04  0.74943115056E+03  0.27515408515E+03  0.13329854502E+04  0.00000000000E+00 0. -1.
<mgrwt>
<rscale>  0 0.31908977E+04</rscale>
<asrwt>0</asrwt>
<pdfrwt beam="1">  1        2 0.58247756E+00 0.31908977E+04</pdfrwt>
<pdfrwt beam="2">  1       -2 0.10343318E+00 0.31908977E+04</pdfrwt>
<totfact> 0.32267522E-01</totfact>
</mgrwt>
</event>
<event>
 6    1  0.5026615E-004  0.3185705E+04  0.7818608E-02  0.8192603E-01
         -2   -1    0    0    0  501 -0.00000000000E+00  0.00000000000E+00  0.67238032164E+03  0.67238032164E+03  0.00000000000E+00 0. -1.
          2   -1    0    0  501    0  0.00000000000E+00 -0.00000000000E+00 -0.37734282063E+04  0.37734282063E+04  0.00000000000E+00 0.  1.
         23    2    1    2    0    0 -0.10950230448E+04 -0.36951685883E+03 -0.24497244106E+02  0.11593542043E+04  0.88791206787E+02 0.  0.
         11    1    3    3    0    0 -0.29229663787E+03 -0.62192424410E+02 -0.24086167272E+02  0.29980888182E+03  0.00000000000E+00 0. -1.
        -11    1    3    3    0    0 -0.80272640694E+03 -0.30732443442E+03 -0.41107683395E+00  0.85954532246E+03  0.00000000000E+00 0.  1.
         22    1    1    2    0    0  0.10950230448E+04  0.36951685883E+03 -0.30765506406E+04  0.32864543237E+04  0.00000000000E+00 0.  1.
<mgrwt>
<rscale>  0 0.31857049E+04</rscale>
<asrwt>0</asrwt>
<pdfrwt beam="1">  1        2 0.58052743E+00 0.31857049E+04</pdfrwt>
<pdfrwt beam="2">  1       -2 0.10344312E+00 0.31857049E+04</pdfrwt>
<totfact> 0.32995309E-01</totfact>
</mgrwt>
</event>
<event>
 6    1  0.5026615E-004  0.1670854E+04  0.7818608E-02  0.8778164E-01
         -2   -1    0    0    0  501 -0.00000000000E+00  0.00000000000E+00  0.21173294337E+03  0.21173294337E+03  0.00000000000E+00 0. -1.
          2   -1    0    0  501    0  0.00000000000E+00 -0.00000000000E+00 -0.32963157587E+04  0.32963157587E+04  0.00000000000E+00 0.  1.
         23    2    1    2    0    0 -0.19770447364E+03 -0.75836545282E+03 -0.21381001791E+04  0.22792140510E+04  0.95598616711E+02 0.  0.
         13    1    3    3    0    0 -0.18240650211E+02 -0.20469503257E+03 -0.63150510748E+03  0.66410200907E+03  0.00000000000E+00 0. -1.
        -13    1    3    3    0    0 -0.17946382343E+03 -0.55367042026E+03 -0.15065950716E+04  0.16151120419E+04  0.00000000000E+00 0.  1.
         22    1    1    2    0    0  0.19770447364E+03  0.75836545282E+03 -0.94648263618E+03  0.12288346510E+04  0.00000000000E+00 0. -1.
<mgrwt>
<rscale>  0 0.16708544E+04</rscale>
<asrwt>0</asrwt>
<pdfrwt beam="1">  1        2 0.50712553E+00 0.16708544E+04</pdfrwt>
<pdfrwt beam="2">  1       -2 0.32574297E-01 0.16708544E+04</pdfrwt>
<totfact> 0.94598461E+00</totfact>
</mgrwt>
</event>
<event>
 6    1  0.5026615E-004  0.1992046E+04  0.7818608E-02  0.8610348E-01
          2   -1    0    0  501    0  0.00000000000E+00  0.00000000000E+00  0.15216937866E+04  0.15216937866E+04  0.00000000000E+00 0.  1.
         -2   -1    0    0    0  501 -0.00000000000E+00 -0.00000000000E+00 -0.65194574681E+03  0.65194574681E+03  0.00000000000E+00 0. -1.
         23    2    1    2    0    0 -0.18885581254E+03 -0.17782826131E+03  0.14824662920E+04  0.15082726684E+04  0.99452133651E+02 0.  0.
         11    1    3    3    0    0 -0.87602408814E+02 -0.21621949929E+02  0.41491589215E+03  0.42461381079E+03  0.00000000000E+00 0. -1.
        -11    1    3    3    0    0 -0.10125340372E+03 -0.15620631138E+03  0.10675503998E+04  0.10836588576E+04  0.00000000000E+00 0.  1.
         22    1    1    2    0    0  0.18885581254E+03  0.17782826131E+03 -0.61271825222E+03  0.66536686501E+03  0.00000000000E+00 0. -1.
<mgrwt>
<rscale>  0 0.19920460E+04</rscale>
<asrwt>0</asrwt>
<pdfrwt beam="1">  1        2 0.23410673E+00 0.19920460E+04</pdfrwt>
<pdfrwt beam="2">  1       -2 0.10029935E+00 0.19920460E+04</pdfrwt>
<totfact> 0.94105397E+00</totfact>
</mgrwt>
</event>
<event>
 6    1  0.5026615E-004  0.3435120E+04  0.7818608E-02  0.8129340E-01
         -2   -1    0    0    0  501 -0.00000000000E+00  0.00000000000E+00  0.19636102603E+04  0.19636102603E+04  0.00000000000E+00 0. -1.
          2   -1    0    0  501    0  0.00000000000E+00 -0.00000000000E+00 -0.15023415043E+04  0.15023415043E+04  0.00000000000E+00 0.  1.
         23    2    1    2    0    0 -0.22054658639E+03 -0.61880299884E+03 -0.13689938192E+04  0.15213646511E+04  0.94065808761E+02 0.  0.
         11    1    3    3    0    0 -0.16453026501E+03 -0.44845624895E+03 -0.89339834096E+03  0.10130862801E+04  0.00000000000E+00 0.  1.
        -11    1    3    3    0    0 -0.56016321382E+02 -0.17034674989E+03 -0.47559547825E+03  0.50827837096E+03  0.00000000000E+00 0. -1.
         22    1    1    2    0    0  0.22054658639E+03  0.61880299884E+03  0.18302625752E+04  0.19445871135E+04  0.00000000000E+00 0. -1.
<mgrwt>
<rscale>  0 0.34351205E+04</rscale>
<asrwt>0</asrwt>
<pdfrwt beam="1">  1        2 0.23112946E+00 0.34351205E+04</pdfrwt>
<pdfrwt beam="2">  1       -2 0.30209389E+00 0.34351205E+04</pdfrwt>
<totfact> 0.32256376E-01</totfact>
</mgrwt>
</event>
<event>
 6    1  0.5026615E-004  0.2370078E+04  0.7818608E-02  0.8450792E-01
          2   -1    0    0  501    0  0.00000000000E+00  0.00000000000E+00  0.13987677786E+04  0.13987677786E+04  0.00000000000E+00 0.  1.
         -2   -1    0    0    0  501 -0.00000000000E+00 -0.00000000000E+00 -0.10039672561E+04  0.10039672561E+04  0.00000000000E+00 0. -1.
         23    2    1    2    0    0 -0.93514271988E+03  0.29792890341E+03  0.86773824825E+03  0.13132747874E+04  0.92018812077E+02 0.  0.
         11    1    3    3    0    0 -0.44493768792E+03  0.96743368934E+02  0.37936991109E+03  0.59266377906E+03  0.00000000000E+00 0.  1.
        -11    1    3    3    0    0 -0.49020503196E+03  0.20118553447E+03  0.48836833716E+03  0.72061100837E+03  0.00000000000E+00 0. -1.
         22    1    1    2    0    0  0.93514271988E+03 -0.29792890341E+03 -0.47293772578E+03  0.10894602473E+04  0.00000000000E+00 0. -1.
<mgrwt>
<rscale>  0 0.23700777E+04</rscale>
<asrwt>0</asrwt>
<pdfrwt beam="1">  1        2 0.21519504E+00 0.23700777E+04</pdfrwt>
<pdfrwt beam="2">  1       -2 0.15445650E+00 0.23700777E+04</pdfrwt>
<totfact> 0.36212997E+00</totfact>
</mgrwt>
</event>
<event>
 6    1  0.5026615E-004  0.2485742E+04  0.7818608E-02  0.8408083E-01
         -2   -1    0    0    0  501 -0.00000000000E+00  0.00000000000E+00  0.15252952722E+04  0.15252952722E+04  0.00000000000E+00 0. -1.
          2   -1    0    0  501    0  0.00000000000E+00 -0.00000000000E+00 -0.10127408275E+04  0.10127408275E+04  0.00000000000E+00 0.  1.
         23    2    1    2    0    0  0.42557988168E+02 -0.61528781982E+03  0.13561937017E+04  0.14929918520E+04  0.96814409236E+02 0.  0.
         11    1    3    3    0    0  0.57717521381E+02 -0.21761807078E+03  0.53538749762E+03  0.58080005993E+03  0.00000000000E+00 0.  1.
        -11    1    3    3    0    0 -0.15159533214E+02 -0.39766974903E+03  0.82080620410E+03  0.91219179202E+03  0.00000000000E+00 0. -1.
         22    1    1    2    0    0 -0.42557988168E+02  0.61528781982E+03 -0.84363925705E+03  0.10450442477E+04  0.00000000000E+00 0.  1.
<mgrwt>
<rscale>  0 0.24857424E+04</rscale>
<asrwt>0</asrwt>
<pdfrwt beam="1">  1        2 0.15580628E+00 0.24857424E+04</pdfrwt>
<pdfrwt beam="2">  1       -2 0.23466081E+00 0.24857424E+04</pdfrwt>
<totfact> 0.17644954E+00</totfact>
</mgrwt>
</event>
<event>
 6    1  0.5026615E-004  0.1715728E+04  0.7818608E-02  0.8752445E-01
         -2   -1    0    0    0  501 -0.00000000000E+00  0.00000000000E+00  0.35646552093E+03  0.35646552093E+03  0.00000000000E+00 0. -1.
          2   -1    0    0  501    0  0.00000000000E+00 -0.00000000000E+00 -0.20645205795E+04  0.20645205795E+04  0.00000000000E+00 0.  1.
         23    2    1    2    0    0  0.42018114333E+03  0.27572831720E+03 -0.18333099310E+04  0.19030410442E+04  0.89227881053E+02 0.  0.
         11    1    3    3    0    0  0.35253513916E+02  0.61098267512E+01 -0.76426184754E+02  0.84386621821E+02  0.00000000000E+00 0. -1.
        -11    1    3    3    0    0  0.38492762941E+03  0.26961849045E+03 -0.17568837463E+04  0.18186544224E+04  0.00000000000E+00 0.  1.
         22    1    1    2    0    0 -0.42018114333E+03 -0.27572831720E+03  0.12525487248E+03  0.51794505616E+03  0.00000000000E+00 0. -1.
<mgrwt>
<rscale>  0 0.17157277E+04</rscale>
<asrwt>0</asrwt>
<pdfrwt beam="1">  1        2 0.31761856E+00 0.17157277E+04</pdfrwt>
<pdfrwt beam="2">  1       -2 0.54840848E-01 0.17157277E+04</pdfrwt>
<totfact> 0.18285576E+01</totfact>
</mgrwt>
</event>
<event>
 6    1  0.5026615E-004  0.1839645E+04  0.7818608E-02  0.8685496E-01
          1   -1    0    0  501    0  0.00000000000E+00  0.00000000000E+00  0.18424080627E+04  0.18424080627E+04  0.00000000000E+00 0.  1.
         -1   -1    0    0    0  501 -0.00000000000E+00 -0.00000000000E+00 -0.45922163425E+03  0.45922163425E+03  0.00000000000E+00 0. -1.
         23    2    1    2    0    0  0.50922252634E+03 -0.58143394960E+03  0.13119555924E+04  0.15254551991E+04  0.91722783491E+02 0.  0.
         11    1    3    3    0    0  0.14722876610E+03 -0.21391628599E+03  0.38002566523E+03  0.46027816938E+03  0.00000000000E+00 0. -1.
        -11    1    3    3    0    0  0.36199376025E+03 -0.36751766361E+03  0.93192992718E+03  0.10651770297E+04  0.00000000000E+00 0.  1.
         22    1    1    2    0    0 -0.50922252634E+03  0.58143394960E+03  0.71230836058E+02  0.77617449783E+03  0.00000000000E+00 0. -1.
<mgrwt>
<rscale>  0 0.18396452E+04</rscale>
<asrwt>0</asrwt>
<pdfrwt beam="1">  1        1 0.28344739E+00 0.18396452E+04</pdfrwt>
<pdfrwt beam="2">  1       -1 0.70649483E-01 0.18396452E+04</pdfrwt>
<totfact> 0.72574685E+00</totfact>
</mgrwt>
</event>
<event>
 6    1  0.5026615E-004  0.3677501E+04  0.7818608E-02  0.8072966E-01
          2   -1    0    0  501    0  0.00000000000E+00  0.00000000000E+00  0.15529168306E+04  0.15529168306E+04  0.00000000000E+00 0.  1.
         -2   -1    0    0    0  501 -0.00000000000E+00 -0.00000000000E+00 -0.21771957472E+04  0.21771957472E+04  0.00000000000E+00 0. -1.
         23    2    1    2    0    0 -0.10537121463E+04  0.12873752326E+04 -0.11040231606E+04  0.19986973137E+04  0.90991954383E+02 0.  0.
         13    1    3    3    0    0 -0.81507712412E+03  0.93345815005E+03 -0.82596683321E+03  0.14892669491E+04  0.00000000000E+00 0.  1.
        -13    1    3    3    0    0 -0.23863502220E+03  0.35391708257E+03 -0.27805632737E+03  0.50943036457E+03  0.00000000000E+00 0. -1.
         22    1    1    2    0    0  0.10537121463E+04 -0.12873752326E+04  0.47974424399E+03  0.17314152640E+04  0.00000000000E+00 0.  1.
<mgrwt>
<rscale>  0 0.36775013E+04</rscale>
<asrwt>0</asrwt>
<pdfrwt beam="1">  1        2 0.23891028E+00 0.36775013E+04</pdfrwt>
<pdfrwt beam="2">  1       -2 0.33495319E+00 0.36775013E+04</pdfrwt>
<totfact> 0.18553238E-01</totfact>
</mgrwt>
</event>
<event>
 6    1  0.5026615E-004  0.1087547E+04  0.7818608E-02  0.9217415E-01
          2   -1    0    0  501    0  0.00000000000E+00  0.00000000000E+00  0.36456899819E+03  0.36456899819E+03  0.00000000000E+00 0.  1.
         -2   -1    0    0    0  501 -0.00000000000E+00 -0.00000000000E+00 -0.81106699567E+03  0.81106699567E+03  0.00000000000E+00 0. -1.
         23    2    1    2    0    0 -0.51623153294E+03  0.14310217341E+03 -0.29764691431E+03  0.61964150414E+03  0.91589739686E+02 0.  0.
         13    1    3    3    0    0 -0.38295697481E+03  0.89052782940E+02 -0.25867597514E+03  0.47063754930E+03  0.00000000000E+00 0. -1.
        -13    1    3    3    0    0 -0.13327455813E+03  0.54049390474E+02 -0.38970939172E+02  0.14900395483E+03  0.00000000000E+00 0.  1.
         22    1    1    2    0    0  0.51623153294E+03 -0.14310217341E+03 -0.14885108317E+03  0.55599448972E+03  0.00000000000E+00 0. -1.
<mgrwt>
<rscale>  0 0.10875475E+04</rscale>
<asrwt>0</asrwt>
<pdfrwt beam="1">  1        2 0.56087540E-01 0.10875475E+04</pdfrwt>
<pdfrwt beam="2">  1       -2 0.12477953E+00 0.10875475E+04</pdfrwt>
<totfact> 0.42218818E+01</totfact>
</mgrwt>
</event>
<event>
 6    1  0.5026615E-004  0.1825694E+04  0.7818608E-02  0.8692754E-01
          2   -1    0    0  501    0  0.00000000000E+00  0.00000000000E+00  0.13373437689E+04  0.13373437689E+04  0.00000000000E+00 0.  1.
         -2   -1    0    0    0  501 -0.00000000000E+00 -0.00000000000E+00 -0.62309308603E+03  0.62309308603E+03  0.00000000000E+00 0. -1.
         23    2    1    2    0    0  0.22565151415E+03  0.88168657580E+03  0.32811312060E+03  0.97180545711E+03  0.91966313228E+02 0.  0.
         11    1    3    3    0    0  0.17083227048E+03  0.48846260309E+03  0.17465870435E+03  0.54615477867E+03  0.00000000000E+00 0.  1.
        -11    1    3    3    0    0  0.54819243673E+02  0.39322397271E+03  0.15345441625E+03  0.42565067844E+03  0.00000000000E+00 0. -1.
         22    1    1    2    0    0 -0.22565151415E+03 -0.88168657580E+03  0.38613756229E+03  0.98863139784E+03  0.00000000000E+00 0.  1.
<mgrwt>
<rscale>  0 0.18256940E+04</rscale>
<asrwt>0</asrwt>
<pdfrwt beam="1">  1        2 0.20574519E+00 0.18256940E+04</pdfrwt>
<pdfrwt beam="2">  1       -2 0.95860475E-01 0.18256940E+04</pdfrwt>
<totfact> 0.13521017E+01</totfact>
</mgrwt>
</event>
<event>
 6    1  0.5026615E-004  0.2780777E+04  0.7818608E-02  0.8309261E-01
          2   -1    0    0  501    0  0.00000000000E+00  0.00000000000E+00  0.13758144632E+04  0.13758144632E+04  0.00000000000E+00 0.  1.
         -2   -1    0    0    0  501 -0.00000000000E+00 -0.00000000000E+00 -0.14051169870E+04  0.14051169870E+04  0.00000000000E+00 0. -1.
         23    2    1    2    0    0  0.74752894944E+03 -0.10688266915E+04  0.46198418702E+03  0.13871765725E+04  0.98180586887E+02 0.  0.
         13    1    3    3    0    0  0.77334454138E+02 -0.16974093441E+03  0.60924097848E+02  0.19622524891E+03  0.00000000000E+00 0. -1.
        -13    1    3    3    0    0  0.67019449531E+03 -0.89908575709E+03  0.40106008917E+03  0.11909513236E+04  0.00000000000E+00 0.  1.
         22    1    1    2    0    0 -0.74752894944E+03  0.10688266915E+04 -0.49128671083E+03  0.13937548776E+04  0.00000000000E+00 0. -1.
<mgrwt>
<rscale>  0 0.27807771E+04</rscale>
<asrwt>0</asrwt>
<pdfrwt beam="1">  1        2 0.21166376E+00 0.27807771E+04</pdfrwt>
<pdfrwt beam="2">  1       -2 0.21617184E+00 0.27807771E+04</pdfrwt>
<totfact> 0.13612413E+00</totfact>
</mgrwt>
</event>
<event>
 6    1  0.5026615E-004  0.2353547E+04  0.7818608E-02  0.8457103E-01
          2   -1    0    0  501    0  0.00000000000E+00  0.00000000000E+00  0.12442116105E+04  0.12442116105E+04  0.00000000000E+00 0.  1.
         -2   -1    0    0    0  501 -0.00000000000E+00 -0.00000000000E+00 -0.11129904821E+04  0.11129904821E+04  0.00000000000E+00 0. -1.
         23    2    1    2    0    0 -0.11712102004E+03  0.11596799343E+04 -0.83252477422E+02  0.11720549241E+04  0.90591868374E+02 0.  0.
         13    1    3    3    0    0 -0.69210111972E+02  0.98622832085E+03 -0.82705333923E+02  0.99210710748E+03  0.00000000000E+00 0.  1.
        -13    1    3    3    0    0 -0.47910908067E+02  0.17345161349E+03 -0.54714349916E+00  0.17994781660E+03  0.00000000000E+00 0. -1.
         22    1    1    2    0    0  0.11712102004E+03 -0.11596799343E+04  0.21447360575E+03  0.11851471685E+04  0.00000000000E+00 0.  1.
<mgrwt>
<rscale>  0 0.23535468E+04</rscale>
<asrwt>0</asrwt>
<pdfrwt beam="1">  1        2 0.19141717E+00 0.23535468E+04</pdfrwt>
<pdfrwt beam="2">  1       -2 0.17122931E+00 0.23535468E+04</pdfrwt>
<totfact> 0.33616708E+00</totfact>
</mgrwt>
</event>
<event>
 6    1  0.5026615E-004  0.7571286E+03  0.7818608E-02  0.9624233E-01
          2   -1    0    0  501    0  0.00000000000E+00  0.00000000000E+00  0.15325387323E+03  0.15325387323E+03  0.00000000000E+00 0.  1.
         -2   -1    0    0    0  501 -0.00000000000E+00 -0.00000000000E+00 -0.93512102604E+03  0.93512102604E+03  0.00000000000E+00 0. -1.
         23    2    1    2    0    0 -0.34186362166E+03  0.11374199388E+03 -0.25706960016E+03  0.45180561926E+03  0.90749993297E+02 0.  0.
         11    1    3    3    0    0 -0.11301321513E+03 -0.37854015446E+01 -0.95538483133E+02  0.14803350235E+03  0.00000000000E+00 0.  1.
        -11    1    3    3    0    0 -0.22885040653E+03  0.11752739543E+03 -0.16153111703E+03  0.30377211691E+03  0.00000000000E+00 0. -1.
         22    1    1    2    0    0  0.34186362166E+03 -0.11374199388E+03 -0.52479755265E+03  0.63656928001E+03  0.00000000000E+00 0. -1.
<mgrwt>
<rscale>  0 0.75712857E+03</rscale>
<asrwt>0</asrwt>
<pdfrwt beam="1">  1        2 0.23577519E-01 0.75712857E+03</pdfrwt>
<pdfrwt beam="2">  1       -2 0.14386478E+00 0.75712857E+03</pdfrwt>
<totfact> 0.79228809E+01</totfact>
</mgrwt>
</event>
<event>
 6    1  0.5026615E-004  0.2080114E+04  0.7818608E-02  0.8570054E-01
         -2   -1    0    0    0  501 -0.00000000000E+00  0.00000000000E+00  0.11363961908E+04  0.11363961908E+04  0.00000000000E+00 0. -1.
          2   -1    0    0  501    0  0.00000000000E+00 -0.00000000000E+00 -0.95188496018E+03  0.95188496018E+03  0.00000000000E+00 0.  1.
         23    2    1    2    0    0 -0.80554464925E+03  0.17453963168E+03 -0.54124080413E+03  0.99006337618E+03  0.88980985823E+02 0.  0.
         11    1    3    3    0    0 -0.29150161638E+03  0.10529632783E+03 -0.21746299872E+03  0.37861677831E+03  0.00000000000E+00 0. -1.
        -11    1    3    3    0    0 -0.51404303287E+03  0.69243303849E+02 -0.32377780541E+03  0.61144659787E+03  0.00000000000E+00 0.  1.
         22    1    1    2    0    0  0.80554464925E+03 -0.17453963168E+03  0.72575203477E+03  0.10982177748E+04  0.00000000000E+00 0.  1.
<mgrwt>
<rscale>  0 0.20801139E+04</rscale>
<asrwt>0</asrwt>
<pdfrwt beam="1">  1        2 0.14644384E+00 0.20801139E+04</pdfrwt>
<pdfrwt beam="2">  1       -2 0.17483018E+00 0.20801139E+04</pdfrwt>
<totfact> 0.49220033E+00</totfact>
</mgrwt>
</event>
<event>
 6    1  0.5026615E-004  0.1879966E+04  0.7818608E-02  0.8664893E-01
          2   -1    0    0  501    0  0.00000000000E+00  0.00000000000E+00  0.18469723535E+04  0.18469723535E+04  0.00000000000E+00 0.  1.
         -2   -1    0    0    0  501 -0.00000000000E+00 -0.00000000000E+00 -0.47838748173E+03  0.47838748173E+03  0.00000000000E+00 0. -1.
         23    2    1    2    0    0  0.72511963915E+03  0.24264832133E+03  0.14087269573E+02  0.76993691741E+03  0.89037670089E+02 0.  0.
         11    1    3    3    0    0  0.41266027824E+03  0.10462775778E+03  0.38657018130E+02  0.42746910764E+03  0.00000000000E+00 0. -1.
        -11    1    3    3    0    0  0.31245936092E+03  0.13802056354E+03 -0.24569748557E+02  0.34246780977E+03  0.00000000000E+00 0.  1.
         22    1    1    2    0    0 -0.72511963915E+03 -0.24264832133E+03  0.13544976022E+04  0.15554229178E+04  0.00000000000E+00 0.  1.
<mgrwt>
<rscale>  0 0.18799664E+04</rscale>
<asrwt>0</asrwt>
<pdfrwt beam="1">  1        2 0.28414959E+00 0.18799664E+04</pdfrwt>
<pdfrwt beam="2">  1       -2 0.73598075E-01 0.18799664E+04</pdfrwt>
<totfact> 0.12690177E+01</totfact>
</mgrwt>
</event>
<event>
 6    1  0.5026615E-004  0.2854287E+04  0.7818608E-02  0.8286610E-01
         -1   -1    0    0    0  501 -0.00000000000E+00  0.00000000000E+00  0.97672136330E+03  0.97672136330E+03  0.00000000000E+00 0. -1.
          1   -1    0    0  501    0  0.00000000000E+00 -0.00000000000E+00 -0.20852810291E+04  0.20852810291E+04  0.00000000000E+00 0.  1.
         23    2    1    2    0    0 -0.50569508738E+03  0.99475789549E+03 -0.15068664791E+04  0.18771314671E+04  0.87779080670E+02 0.  0.
         11    1    3    3    0    0 -0.18463803726E+03  0.45611782258E+03 -0.64382272541E+03  0.81033473000E+03  0.00000000000E+00 0. -1.
        -11    1    3    3    0    0 -0.32105705012E+03  0.53864007290E+03 -0.86304375367E+03  0.10667967371E+04  0.00000000000E+00 0.  1.
         22    1    1    2    0    0  0.50569508738E+03 -0.99475789549E+03  0.39830681329E+03  0.11848709253E+04  0.00000000000E+00 0. -1.
<mgrwt>
<rscale>  0 0.28542870E+04</rscale>
<asrwt>0</asrwt>
<pdfrwt beam="1">  1        1 0.32081246E+00 0.28542870E+04</pdfrwt>
<pdfrwt beam="2">  1       -1 0.15026483E+00 0.28542870E+04</pdfrwt>
<totfact> 0.78023801E-01</totfact>
</mgrwt>
</event>
<event>
 6    1  0.5026615E-004  0.9379782E+03  0.7818608E-02  0.9379314E-01
         -2   -1    0    0    0  501 -0.00000000000E+00  0.00000000000E+00  0.53718817390E+03  0.53718817390E+03  0.00000000000E+00 0. -1.
          2   -1    0    0  501    0  0.00000000000E+00 -0.00000000000E+00 -0.40944830019E+03  0.40944830019E+03  0.00000000000E+00 0.  1.
         23    2    1    2    0    0  0.39017332700E+03  0.25188016130E+03  0.76505891573E+02  0.47940659311E+03  0.91097142130E+02 0.  0.
         13    1    3    3    0    0  0.23540157579E+03  0.13788429336E+03  0.88509859304E+02  0.28680999884E+03  0.00000000000E+00 0.  1.
        -13    1    3    3    0    0  0.15477175121E+03  0.11399586794E+03 -0.12003967731E+02  0.19259659427E+03  0.00000000000E+00 0. -1.
         22    1    1    2    0    0 -0.39017332700E+03 -0.25188016130E+03  0.51233982132E+02  0.46722988099E+03  0.00000000000E+00 0. -1.
<mgrwt>
<rscale>  0 0.93797822E+03</rscale>
<asrwt>0</asrwt>
<pdfrwt beam="1">  1        2 0.62992046E-01 0.93797822E+03</pdfrwt>
<pdfrwt beam="2">  1       -2 0.82644335E-01 0.93797822E+03</pdfrwt>
<totfact> 0.99686436E+01</totfact>
</mgrwt>
</event>
<event>
 6    1  0.5026615E-004  0.3913014E+04  0.7818608E-02  0.8022328E-01
         -2   -1    0    0    0  501 -0.00000000000E+00  0.00000000000E+00  0.12435230887E+04  0.12435230887E+04  0.00000000000E+00 0. -1.
          2   -1    0    0  501    0  0.00000000000E+00 -0.00000000000E+00 -0.30782860683E+04  0.30782860683E+04  0.00000000000E+00 0.  1.
         23    2    1    2    0    0 -0.27959784353E+03 -0.76780917188E+03 -0.28798134395E+04  0.29952209231E+04  0.10157289699E+03 0.  0.
         13    1    3    3    0    0 -0.22112395783E+03 -0.68585255026E+03 -0.24504060391E+04  0.25541690003E+04  0.00000000000E+00 0.  1.
        -13    1    3    3    0    0 -0.58473885704E+02 -0.81956621621E+02 -0.42940740036E+03  0.44105192282E+03  0.00000000000E+00 0. -1.
         22    1    1    2    0    0  0.27959784353E+03  0.76780917188E+03  0.10450504599E+04  0.13265882339E+04  0.00000000000E+00 0. -1.
<mgrwt>
<rscale>  0 0.39130141E+04</rscale>
<asrwt>0</asrwt>
<pdfrwt beam="1">  1        2 0.47358247E+00 0.39130141E+04</pdfrwt>
<pdfrwt beam="2">  1       -2 0.19131125E+00 0.39130141E+04</pdfrwt>
<totfact> 0.18733574E-01</totfact>
</mgrwt>
</event>
<event>
 6    1  0.5026615E-004  0.1428986E+04  0.7818608E-02  0.8933100E-01
          2   -1    0    0  501    0  0.00000000000E+00  0.00000000000E+00  0.41637603074E+03  0.41637603074E+03  0.00000000000E+00 0.  1.
         -2   -1    0    0    0  501 -0.00000000000E+00 -0.00000000000E+00 -0.12260551798E+04  0.12260551798E+04  0.00000000000E+00 0. -1.
         23    2    1    2    0    0  0.15386621095E+03  0.25316387064E+03 -0.11501427099E+04  0.11911195748E+04  0.90392654561E+02 0.  0.
         11    1    3    3    0    0  0.10511191000E+03  0.91992382205E+02 -0.58359406204E+03  0.60007761270E+03  0.00000000000E+00 0. -1.
        -11    1    3    3    0    0  0.48754300949E+02  0.16117148844E+03 -0.56654864791E+03  0.59104196212E+03  0.00000000000E+00 0.  1.
         22    1    1    2    0    0 -0.15386621095E+03 -0.25316387064E+03  0.34046356087E+03  0.45131163574E+03  0.00000000000E+00 0.  1.
<mgrwt>
<rscale>  0 0.14289856E+04</rscale>
<asrwt>0</asrwt>
<pdfrwt beam="1">  1        2 0.64057851E-01 0.14289856E+04</pdfrwt>
<pdfrwt beam="2">  1       -2 0.18862387E+00 0.14289856E+04</pdfrwt>
<totfact> 0.11672934E+01</totfact>
</mgrwt>
</event>
<event>
 6    1  0.5026615E-004  0.3123476E+04  0.7818608E-02  0.8209325E-01
         -2   -1    0    0    0  501 -0.00000000000E+00  0.00000000000E+00  0.90615269990E+03  0.90615269990E+03  0.00000000000E+00 0. -1.
          2   -1    0    0  501    0  0.00000000000E+00 -0.00000000000E+00 -0.26916275677E+04  0.26916275677E+04  0.00000000000E+00 0.  1.
         23    2    1    2    0    0  0.13026303063E+04  0.59543644048E+03 -0.16066844684E+04  0.21543966470E+04  0.92734362516E+02 0.  0.
         11    1    3    3    0    0  0.85011046259E+03  0.33963848683E+03 -0.10277542577E+04  0.13763433128E+04  0.00000000000E+00 0. -1.
        -11    1    3    3    0    0  0.45251984368E+03  0.25579795365E+03 -0.57893021069E+03  0.77805333421E+03  0.00000000000E+00 0.  1.
         22    1    1    2    0    0 -0.13026303063E+04 -0.59543644048E+03 -0.17879039941E+03  0.14433836207E+04  0.00000000000E+00 0. -1.
<mgrwt>
<rscale>  0 0.31234760E+04</rscale>
<asrwt>0</asrwt>
<pdfrwt beam="1">  1        2 0.41409655E+00 0.31234760E+04</pdfrwt>
<pdfrwt beam="2">  1       -2 0.13940811E+00 0.31234760E+04</pdfrwt>
<totfact> 0.82627877E-01</totfact>
</mgrwt>
</event>
<event>
 6    1  0.5026615E-004  0.4393712E+04  0.7818608E-02  0.7929514E-01
         -2   -1    0    0    0  501 -0.00000000000E+00  0.00000000000E+00  0.23539743896E+04  0.23539743896E+04  0.00000000000E+00 0. -1.
          2   -1    0    0  501    0  0.00000000000E+00 -0.00000000000E+00 -0.20502246352E+04  0.20502246352E+04  0.00000000000E+00 0.  1.
         23    2    1    2    0    0  0.82866576820E+03  0.16220006433E+04  0.13814265878E+04  0.22878435727E+04  0.91190752579E+02 0.  0.
         13    1    3    3    0    0  0.36650153089E+03  0.81634258013E+03  0.66889329092E+03  0.11172093872E+04  0.00000000000E+00 0. -1.
        -13    1    3    3    0    0  0.46216423731E+03  0.80565806318E+03  0.71253329692E+03  0.11706341855E+04  0.00000000000E+00 0.  1.
         22    1    1    2    0    0 -0.82866576820E+03 -0.16220006433E+04 -0.10776768335E+04  0.21163554521E+04  0.00000000000E+00 0.  1.
<mgrwt>
<rscale>  0 0.43937120E+04</rscale>
<asrwt>0</asrwt>
<pdfrwt beam="1">  1        2 0.31541918E+00 0.43937120E+04</pdfrwt>
<pdfrwt beam="2">  1       -2 0.36214991E+00 0.43937120E+04</pdfrwt>
<totfact> 0.62376727E-02</totfact>
</mgrwt>
</event>
<event>
 6    1  0.5026615E-004  0.2334681E+04  0.7818608E-02  0.8464371E-01
          2   -1    0    0  501    0  0.00000000000E+00  0.00000000000E+00  0.93239313320E+03  0.93239313320E+03  0.00000000000E+00 0.  1.
         -2   -1    0    0    0  501 -0.00000000000E+00 -0.00000000000E+00 -0.14614912131E+04  0.14614912131E+04  0.00000000000E+00 0. -1.
         23    2    1    2    0    0  0.43655781208E+02 -0.41802474330E+03 -0.13796876336E+04  0.14451203598E+04  0.90467534370E+02 0.  0.
         11    1    3    3    0    0 -0.21136467840E+02 -0.19602070246E+03 -0.57515707672E+03  0.60801030334E+03  0.00000000000E+00 0.  1.
        -11    1    3    3    0    0  0.64792249048E+02 -0.22200404085E+03 -0.80453055684E+03  0.83711005643E+03  0.00000000000E+00 0. -1.
         22    1    1    2    0    0 -0.43655781208E+02  0.41802474330E+03  0.85058955368E+03  0.94876398650E+03  0.00000000000E+00 0.  1.
<mgrwt>
<rscale>  0 0.23346815E+04</rscale>
<asrwt>0</asrwt>
<pdfrwt beam="1">  1        2 0.14344510E+00 0.23346815E+04</pdfrwt>
<pdfrwt beam="2">  1       -2 0.22484480E+00 0.23346815E+04</pdfrwt>
<totfact> 0.23218124E+00</totfact>
</mgrwt>
</event>
<event>
 6    1  0.5026615E-004  0.9696823E+03  0.7818608E-02  0.9342436E-01
          2   -1    0    0  501    0  0.00000000000E+00  0.00000000000E+00  0.25481507952E+04  0.25481507952E+04  0.00000000000E+00 0.  1.
         -2   -1    0    0    0  501 -0.00000000000E+00 -0.00000000000E+00 -0.92251578182E+02  0.92251578182E+02  0.00000000000E+00 0. -1.
         23    2    1    2    0    0 -0.71175549837E+02  0.36050049448E+03  0.20820025503E+04  0.21161645621E+04  0.91603869607E+02 0.  0.
         11    1    3    3    0    0 -0.61374382067E+02  0.14812858403E+03  0.10817390613E+04  0.10935576295E+04  0.00000000000E+00 0. -1.
        -11    1    3    3    0    0 -0.98011677703E+01  0.21237191046E+03  0.10002634890E+04  0.10226069327E+04  0.00000000000E+00 0.  1.
         22    1    1    2    0    0  0.71175549837E+02 -0.36050049448E+03  0.37389666672E+03  0.52423781130E+03  0.00000000000E+00 0. -1.
<mgrwt>
<rscale>  0 0.96968228E+03</rscale>
<asrwt>0</asrwt>
<pdfrwt beam="1">  1        2 0.39202315E+00 0.96968228E+03</pdfrwt>
<pdfrwt beam="2">  1       -2 0.14192552E-01 0.96968228E+03</pdfrwt>
<totfact> 0.12769715E+02</totfact>
</mgrwt>
</event>
<event>
 6    1  0.5026615E-004  0.3137812E+04  0.7818608E-02  0.8205437E-01
          2   -1    0    0  501    0  0.00000000000E+00  0.00000000000E+00  0.19121321918E+04  0.19121321918E+04  0.00000000000E+00 0.  1.
         -2   -1    0    0    0  501 -0.00000000000E+00 -0.00000000000E+00 -0.12872888392E+04  0.12872888392E+04  0.00000000000E+00 0. -1.
         23    2    1    2    0    0  0.32753326791E+03  0.13263618330E+04 -0.47107857404E+03  0.14479763064E+04  0.90590327646E+02 0.  0.
         13    1    3    3    0    0  0.30614593040E+03  0.12252683193E+04 -0.45979497641E+03  0.13440309540E+04  0.00000000000E+00 0. -1.
        -13    1    3    3    0    0  0.21387337512E+02  0.10109351369E+03 -0.11283597625E+02  0.10394535243E+03  0.00000000000E+00 0.  1.
         22    1    1    2    0    0 -0.32753326791E+03 -0.13263618330E+04  0.10959219267E+04  0.17514447245E+04  0.00000000000E+00 0.  1.
<mgrwt>
<rscale>  0 0.31378123E+04</rscale>
<asrwt>0</asrwt>
<pdfrwt beam="1">  1        2 0.29417419E+00 0.31378123E+04</pdfrwt>
<pdfrwt beam="2">  1       -2 0.19804444E+00 0.31378123E+04</pdfrwt>
<totfact> 0.86704730E-01</totfact>
</mgrwt>
</event>
<event>
 6    1  0.5026615E-004  0.1428119E+04  0.7818608E-02  0.8933712E-01
         -2   -1    0    0    0  501 -0.00000000000E+00  0.00000000000E+00  0.50880256126E+03  0.50880256126E+03  0.00000000000E+00 0. -1.
          2   -1    0    0  501    0  0.00000000000E+00 -0.00000000000E+00 -0.10021201507E+04  0.10021201507E+04  0.00000000000E+00 0.  1.
         23    2    1    2    0    0 -0.41318044918E+03  0.57294962291E+03 -0.33537911537E+03  0.78708991664E+03  0.89677376619E+02 0.  0.
         13    1    3    3    0    0 -0.15441074218E+03  0.28837958920E+03 -0.14253352675E+03  0.35682106303E+03  0.00000000000E+00 0.  1.
        -13    1    3    3    0    0 -0.25876970700E+03  0.28457003370E+03 -0.19284558862E+03  0.43026885362E+03  0.00000000000E+00 0. -1.
         22    1    1    2    0    0  0.41318044918E+03 -0.57294962291E+03 -0.15793847405E+03  0.72383279531E+03  0.00000000000E+00 0.  1.
<mgrwt>
<rscale>  0 0.14281195E+04</rscale>
<asrwt>0</asrwt>
<pdfrwt beam="1">  1        2 0.15417233E+00 0.14281195E+04</pdfrwt>
<pdfrwt beam="2">  1       -2 0.78277318E-01 0.14281195E+04</pdfrwt>
<totfact> 0.35411782E+01</totfact>
</mgrwt>
</event>
<event>
 6    1  0.5026615E-004  0.3182054E+04  0.7818608E-02  0.8193573E-01
          2   -1    0    0  501    0  0.00000000000E+00  0.00000000000E+00  0.16078381934E+04  0.16078381934E+04  0.00000000000E+00 0.  1.
         -2   -1    0    0    0  501 -0.00000000000E+00 -0.00000000000E+00 -0.15743912755E+04  0.15743912755E+04  0.00000000000E+00 0. -1.
         23    2    1    2    0    0  0.12667381443E+04  0.82993703980E+03  0.49997754599E+03  0.15975932826E+04  0.94370196160E+02 0.  0.
         13    1    3    3    0    0  0.29123248298E+03  0.20165322866E+03  0.15841594679E+03  0.38804122973E+03  0.00000000000E+00 0.  1.
        -13    1    3    3    0    0  0.97550566128E+03  0.62828381114E+03  0.34156159920E+03  0.12095520529E+04  0.00000000000E+00 0. -1.
         22    1    1    2    0    0 -0.12667381443E+04 -0.82993703980E+03 -0.46653062813E+03  0.15846361864E+04  0.00000000000E+00 0. -1.
<mgrwt>
<rscale>  0 0.31820537E+04</rscale>
<asrwt>0</asrwt>
<pdfrwt beam="1">  1        2 0.24735972E+00 0.31820537E+04</pdfrwt>
<pdfrwt beam="2">  1       -2 0.24221404E+00 0.31820537E+04</pdfrwt>
<totfact> 0.66824831E-01</totfact>
</mgrwt>
</event>
<event>
 6    1  0.5026615E-004  0.3552178E+04  0.7818608E-02  0.8101535E-01
         -2   -1    0    0    0  501 -0.00000000000E+00  0.00000000000E+00  0.18886823303E+04  0.18886823303E+04  0.00000000000E+00 0. -1.
          2   -1    0    0  501    0  0.00000000000E+00 -0.00000000000E+00 -0.16702075473E+04  0.16702075473E+04  0.00000000000E+00 0.  1.
         23    2    1    2    0    0 -0.10377214935E+04  0.13804214983E+04  0.51963398887E+03  0.18058564272E+04  0.93105007782E+02 0.  0.
         11    1    3    3    0    0 -0.40888276339E+03  0.49940952863E+03  0.15638989399E+03  0.66411805458E+03  0.00000000000E+00 0.  1.
        -11    1    3    3    0    0 -0.62883873008E+03  0.88101196967E+03  0.36324409488E+03  0.11417383727E+04  0.00000000000E+00 0. -1.
         22    1    1    2    0    0  0.10377214935E+04 -0.13804214983E+04 -0.30115920587E+03  0.17530334504E+04  0.00000000000E+00 0.  1.
<mgrwt>
<rscale>  0 0.35521776E+04</rscale>
<asrwt>0</asrwt>
<pdfrwt beam="1">  1        2 0.25695501E+00 0.35521776E+04</pdfrwt>
<pdfrwt beam="2">  1       -2 0.29056651E+00 0.35521776E+04</pdfrwt>
<totfact> 0.30260720E-01</totfact>
</mgrwt>
</event>
<event>
 6    1  0.5026615E-004  0.9611529E+03  0.7818608E-02  0.9352209E-01
         -2   -1    0    0    0  501 -0.00000000000E+00  0.00000000000E+00  0.22302081554E+03  0.22302081554E+03  0.00000000000E+00 0. -1.
          2   -1    0    0  501    0  0.00000000000E+00 -0.00000000000E+00 -0.10355702426E+04  0.10355702426E+04  0.00000000000E+00 0.  1.
         23    2    1    2    0    0  0.27991544119E+03 -0.34680474806E+03 -0.19095231233E+03  0.49373214268E+03  0.93179695428E+02 0.  0.
         11    1    3    3    0    0  0.15786323858E+03 -0.13805757139E+03 -0.12049131881E+03  0.24186536135E+03  0.00000000000E+00 0.  1.
        -11    1    3    3    0    0  0.12205220261E+03 -0.20874717667E+03 -0.70460993517E+02  0.25186678133E+03  0.00000000000E+00 0. -1.
         22    1    1    2    0    0 -0.27991544119E+03  0.34680474806E+03 -0.62159711469E+03  0.76485891541E+03  0.00000000000E+00 0. -1.
<mgrwt>
<rscale>  0 0.96115289E+03</rscale>
<asrwt>0</asrwt>
<pdfrwt beam="1">  1        2 0.15931850E+00 0.96115289E+03</pdfrwt>
<pdfrwt beam="2">  1       -2 0.34310894E-01 0.96115289E+03</pdfrwt>
<totfact> 0.19002094E+02</totfact>
</mgrwt>
</event>
<event>
 6    1  0.5026615E-004  0.2276391E+04  0.7818608E-02  0.8487288E-01
         -2   -1    0    0    0  501 -0.00000000000E+00  0.00000000000E+00  0.37917452225E+03  0.37917452225E+03  0.00000000000E+00 0. -1.
          2   -1    0    0  501    0  0.00000000000E+00 -0.00000000000E+00 -0.34166044146E+04  0.34166044146E+04  0.00000000000E+00 0.  1.
         23    2    1    2    0    0 -0.69885525063E+01  0.70005669376E+03 -0.30134850707E+04  0.30952779955E+04  0.97598073301E+02 0.  0.
         13    1    3    3    0    0  0.34837733951E+02  0.13273922914E+03 -0.53051528529E+03  0.54797795447E+03  0.00000000000E+00 0. -1.
        -13    1    3    3    0    0 -0.41826286458E+02  0.56731746461E+03 -0.24829697854E+04  0.25473000410E+04  0.00000000000E+00 0.  1.
         22    1    1    2    0    0  0.69885525063E+01 -0.70005669376E+03 -0.23944821661E+02  0.70050094134E+03  0.00000000000E+00 0. -1.
<mgrwt>
<rscale>  0 0.22763913E+04</rscale>
<asrwt>0</asrwt>
<pdfrwt beam="1">  1        2 0.52563144E+00 0.22763913E+04</pdfrwt>
<pdfrwt beam="2">  1       -2 0.58334543E-01 0.22763913E+04</pdfrwt>
<totfact> 0.23245036E+00</totfact>
</mgrwt>
</event>
<event>
 6    1  0.5026615E-004  0.2065513E+04  0.7818608E-02  0.8576589E-01
         -2   -1    0    0    0  501 -0.00000000000E+00  0.00000000000E+00  0.54166863386E+03  0.54166863386E+03  0.00000000000E+00 0. -1.
          2   -1    0    0  501    0  0.00000000000E+00 -0.00000000000E+00 -0.19690752040E+04  0.19690752040E+04  0.00000000000E+00 0.  1.
         23    2    1    2    0    0  0.67548971368E+03  0.55804237441E+03 -0.13749675868E+04  0.16329924540E+04  0.91819634069E+02 0.  0.
         13    1    3    3    0    0  0.48575133147E+03  0.45226411526E+03 -0.10433721379E+04  0.12365769705E+04  0.00000000000E+00 0. -1.
        -13    1    3    3    0    0  0.18973838221E+03  0.10577825915E+03 -0.33159544894E+03  0.39641548349E+03  0.00000000000E+00 0.  1.
         22    1    1    2    0    0 -0.67548971368E+03 -0.55804237441E+03 -0.52438983377E+02  0.87775138388E+03  0.00000000000E+00 0. -1.
<mgrwt>
<rscale>  0 0.20655133E+04</rscale>
<asrwt>0</asrwt>
<pdfrwt beam="1">  1        2 0.30293465E+00 0.20655133E+04</pdfrwt>
<pdfrwt beam="2">  1       -2 0.83333636E-01 0.20655133E+04</pdfrwt>
<totfact> 0.80960155E+00</totfact>
</mgrwt>
</event>
<event>
 6    1  0.5026615E-004  0.4023378E+04  0.7818608E-02  0.7999847E-01
          2   -1    0    0  501    0  0.00000000000E+00  0.00000000000E+00  0.28881988071E+04  0.28881988071E+04  0.00000000000E+00 0.  1.
         -2   -1    0    0    0  501 -0.00000000000E+00 -0.00000000000E+00 -0.14011820608E+04  0.14011820608E+04  0.00000000000E+00 0. -1.
         23    2    1    2    0    0  0.61476200495E+03  0.19143716890E+04  0.74173171950E+03  0.21450392306E+04  0.90972911823E+02 0.  0.
         13    1    3    3    0    0  0.25390363720E+03  0.64915836576E+03  0.25815513975E+03  0.74331535502E+03  0.00000000000E+00 0.  1.
        -13    1    3    3    0    0  0.36085836775E+03  0.12652133233E+04  0.48357657975E+03  0.14017238756E+04  0.00000000000E+00 0. -1.
         22    1    1    2    0    0 -0.61476200495E+03 -0.19143716890E+04  0.74528502675E+03  0.21443416373E+04  0.00000000000E+00 0. -1.
<mgrwt>
<rscale>  0 0.40233779E+04</rscale>
<asrwt>0</asrwt>
<pdfrwt beam="1">  1        2 0.44433828E+00 0.40233779E+04</pdfrwt>
<pdfrwt beam="2">  1       -2 0.21556647E+00 0.40233779E+04</pdfrwt>
<totfact> 0.16958795E-01</totfact>
</mgrwt>
</event>
<event>
 6    1  0.5026615E-004  0.2089642E+04  0.7818608E-02  0.8565820E-01
         -2   -1    0    0    0  501 -0.00000000000E+00  0.00000000000E+00  0.36883567782E+03  0.36883567782E+03  0.00000000000E+00 0. -1.
          2   -1    0    0  501    0  0.00000000000E+00 -0.00000000000E+00 -0.29597207318E+04  0.29597207318E+04  0.00000000000E+00 0.  1.
         23    2    1    2    0    0  0.58231680520E+03 -0.52728047991E+03 -0.23903007074E+04  0.25177841566E+04  0.92639200411E+02 0.  0.
         11    1    3    3    0    0  0.27572206859E+03 -0.23034524657E+03 -0.12333902196E+04  0.12846528813E+04  0.00000000000E+00 0.  1.
        -11    1    3    3    0    0  0.30659473662E+03 -0.29693523334E+03 -0.11569104878E+04  0.12331312753E+04  0.00000000000E+00 0. -1.
         22    1    1    2    0    0 -0.58231680520E+03  0.52728047991E+03 -0.20058434657E+03  0.81077225299E+03  0.00000000000E+00 0. -1.
<mgrwt>
<rscale>  0 0.20896417E+04</rscale>
<asrwt>0</asrwt>
<pdfrwt beam="1">  1        2 0.45534166E+00 0.20896417E+04</pdfrwt>
<pdfrwt beam="2">  1       -2 0.56743950E-01 0.20896417E+04</pdfrwt>
<totfact> 0.49651696E+00</totfact>
</mgrwt>
</event>
<event>
 6    1  0.5026615E-004  0.8783430E+03  0.7818608E-02  0.9453066E-01
          1   -1    0    0  501    0  0.00000000000E+00  0.00000000000E+00  0.11671258327E+04  0.11671258327E+04  0.00000000000E+00 0.  1.
         -1   -1    0    0    0  501 -0.00000000000E+00 -0.00000000000E+00 -0.16525349684E+03  0.16525349684E+03  0.00000000000E+00 0. -1.
         23    2    1    2    0    0  0.26066430816E+03 -0.11381476773E+03  0.72190487108E+01  0.29785777610E+03  0.88133178862E+02 0.  0.
         11    1    3    3    0    0  0.21872671859E+03 -0.11912710485E+03  0.28217637307E+02  0.25065689615E+03  0.00000000000E+00 0. -1.
        -11    1    3    3    0    0  0.41937589572E+02  0.53123371157E+01 -0.20998588596E+02  0.47200879947E+02  0.00000000000E+00 0.  1.
         22    1    1    2    0    0 -0.26066430816E+03  0.11381476773E+03  0.99465328720E+03  0.10345215535E+04  0.00000000000E+00 0.  1.
<mgrwt>
<rscale>  0 0.87834304E+03</rscale>
<asrwt>0</asrwt>
<pdfrwt beam="1">  1        1 0.17955781E+00 0.87834304E+03</pdfrwt>
<pdfrwt beam="2">  1       -1 0.25423616E-01 0.87834304E+03</pdfrwt>
<totfact> 0.15488584E+02</totfact>
</mgrwt>
</event>
<event>
 6    1  0.5026615E-004  0.1476122E+04  0.7818608E-02  0.8900489E-01
         -2   -1    0    0    0  501 -0.00000000000E+00  0.00000000000E+00  0.48003050073E+03  0.48003050073E+03  0.00000000000E+00 0. -1.
          2   -1    0    0  501    0  0.00000000000E+00 -0.00000000000E+00 -0.11347904220E+04  0.11347904220E+04  0.00000000000E+00 0.  1.
         23    2    1    2    0    0 -0.51689257076E+03 -0.50649081249E+03 -0.18491227269E+03  0.75199551413E+03  0.87142594808E+02 0.  0.
         13    1    3    3    0    0 -0.36528284750E+03 -0.31263031646E+03 -0.14850507299E+03  0.50321270866E+03  0.00000000000E+00 0. -1.
        -13    1    3    3    0    0 -0.15160972325E+03 -0.19386049603E+03 -0.36407199703E+02  0.24878280547E+03  0.00000000000E+00 0.  1.
         22    1    1    2    0    0  0.51689257076E+03  0.50649081249E+03 -0.46984764857E+03  0.86282540859E+03  0.00000000000E+00 0.  1.
<mgrwt>
<rscale>  0 0.14761220E+04</rscale>
<asrwt>0</asrwt>
<pdfrwt beam="1">  1        2 0.17458314E+00 0.14761220E+04</pdfrwt>
<pdfrwt beam="2">  1       -2 0.73850846E-01 0.14761220E+04</pdfrwt>
<totfact> 0.33175971E+01</totfact>
</mgrwt>
</event>
<event>
 6    1  0.5026615E-004  0.9231710E+03  0.7818608E-02  0.9397071E-01
         -2   -1    0    0    0  501 -0.00000000000E+00  0.00000000000E+00  0.20893150967E+03  0.20893150967E+03  0.00000000000E+00 0. -1.
          2   -1    0    0  501    0  0.00000000000E+00 -0.00000000000E+00 -0.10197655629E+04  0.10197655629E+04  0.00000000000E+00 0.  1.
         23    2    1    2    0    0 -0.40966353540E+03 -0.26811595959E+02 -0.14140549254E+03  0.44340879951E+03  0.89848629651E+02 0.  0.
         13    1    3    3    0    0 -0.37981361698E+03 -0.41941573877E+02 -0.11030790698E+03  0.39772517346E+03  0.00000000000E+00 0.  1.
        -13    1    3    3    0    0 -0.29849918420E+02  0.15129977918E+02 -0.31097585559E+02  0.45683626050E+02  0.00000000000E+00 0. -1.
         22    1    1    2    0    0  0.40966353540E+03  0.26811595959E+02 -0.66942856068E+03  0.78528827304E+03  0.00000000000E+00 0.  1.
<mgrwt>
<rscale>  0 0.92317097E+03</rscale>
<asrwt>0</asrwt>
<pdfrwt beam="1">  1        2 0.15688701E+00 0.92317097E+03</pdfrwt>
<pdfrwt beam="2">  1       -2 0.32143309E-01 0.92317097E+03</pdfrwt>
<totfact> 0.22045069E+02</totfact>
</mgrwt>
</event>
<event>
 6    1  0.5026615E-004  0.2697770E+04  0.7818608E-02  0.8335729E-01
         -2   -1    0    0    0  501 -0.00000000000E+00  0.00000000000E+00  0.10426303853E+04  0.10426303853E+04  0.00000000000E+00 0. -1.
          2   -1    0    0  501    0  0.00000000000E+00 -0.00000000000E+00 -0.17450962200E+04  0.17450962200E+04  0.00000000000E+00 0.  1.
         23    2    1    2    0    0 -0.74826881193E+03 -0.17424454348E+03  0.79311082620E+03  0.11063530822E+04  0.68738518951E+02 0.  0.
         13    1    3    3    0    0 -0.42974648494E+03 -0.65272280847E+02  0.44172496598E+03  0.61972853536E+03  0.00000000000E+00 0.  1.
        -13    1    3    3    0    0 -0.31852232698E+03 -0.10897226263E+03  0.35138586021E+03  0.48662454682E+03  0.00000000000E+00 0. -1.
         22    1    1    2    0    0  0.74826881193E+03  0.17424454348E+03 -0.14955766609E+04  0.16813735232E+04  0.00000000000E+00 0.  1.
<mgrwt>
<rscale>  0 0.26977697E+04</rscale>
<asrwt>0</asrwt>
<pdfrwt beam="1">  1        2 0.26847634E+00 0.26977697E+04</pdfrwt>
<pdfrwt beam="2">  1       -2 0.16040467E+00 0.26977697E+04</pdfrwt>
<totfact> 0.20321912E+00</totfact>
</mgrwt>
</event>
<event>
 6    1  0.5026615E-004  0.1423022E+04  0.7818608E-02  0.8937321E-01
         -2   -1    0    0    0  501 -0.00000000000E+00  0.00000000000E+00  0.55963034110E+03  0.55963034110E+03  0.00000000000E+00 0. -1.
          2   -1    0    0  501    0  0.00000000000E+00 -0.00000000000E+00 -0.90461130380E+03  0.90461130380E+03  0.00000000000E+00 0.  1.
         23    2    1    2    0    0  0.26332019867E+03 -0.10617997203E+03  0.49559549703E+03  0.57700971461E+03  0.81936564463E+02 0.  0.
         11    1    3    3    0    0  0.64966866704E+02  0.92819616045E+01  0.12256357118E+03  0.13902761439E+03  0.00000000000E+00 0. -1.
        -11    1    3    3    0    0  0.19835333197E+03 -0.11546193363E+03  0.37303192584E+03  0.43798210022E+03  0.00000000000E+00 0.  1.
         22    1    1    2    0    0 -0.26332019867E+03  0.10617997203E+03 -0.84057645972E+03  0.88723193029E+03  0.00000000000E+00 0.  1.
<mgrwt>
<rscale>  0 0.14230220E+04</rscale>
<asrwt>0</asrwt>
<pdfrwt beam="1">  1        2 0.13917097E+00 0.14230220E+04</pdfrwt>
<pdfrwt beam="2">  1       -2 0.86096976E-01 0.14230220E+04</pdfrwt>
<totfact> 0.33110540E+01</totfact>
</mgrwt>
</event>
<event>
 6    1  0.5026615E-004  0.7217399E+03  0.7818608E-02  0.9680760E-01
         -2   -1    0    0    0  501 -0.00000000000E+00  0.00000000000E+00  0.15077106037E+03  0.15077106037E+03  0.00000000000E+00 0. -1.
          2   -1    0    0  501    0  0.00000000000E+00 -0.00000000000E+00 -0.86374077634E+03  0.86374077634E+03  0.00000000000E+00 0.  1.
         23    2    1    2    0    0 -0.22527877160E+03  0.25974527935E+03 -0.48498024134E+03  0.60196203897E+03  0.94521567864E+02 0.  0.
         13    1    3    3    0    0 -0.82772213420E+01  0.46187898744E+02 -0.10533091394E+03  0.11531017221E+03  0.00000000000E+00 0. -1.
        -13    1    3    3    0    0 -0.21700155026E+03  0.21355738061E+03 -0.37964932740E+03  0.48665186676E+03  0.00000000000E+00 0.  1.
         22    1    1    2    0    0  0.22527877160E+03 -0.25974527935E+03 -0.22798947463E+03  0.41254979775E+03  0.00000000000E+00 0. -1.
<mgrwt>
<rscale>  0 0.72173988E+03</rscale>
<asrwt>0</asrwt>
<pdfrwt beam="1">  1        2 0.13288320E+00 0.72173988E+03</pdfrwt>
<pdfrwt beam="2">  1       -2 0.23195548E-01 0.72173988E+03</pdfrwt>
<totfact> 0.51234882E+02</totfact>
</mgrwt>
</event>
<event>
 6    1  0.5026615E-004  0.2670175E+04  0.7818608E-02  0.8344748E-01
          2   -1    0    0  501    0  0.00000000000E+00  0.00000000000E+00  0.35255261320E+04  0.35255261320E+04  0.00000000000E+00 0.  1.
         -2   -1    0    0    0  501 -0.00000000000E+00 -0.00000000000E+00 -0.50558644453E+03  0.50558644453E+03  0.00000000000E+00 0. -1.
         23    2    1    2    0    0  0.62455416014E+03 -0.28267472728E+03 -0.21767068377E+03  0.72171779555E+03  0.59356123921E+02 0.  0.
         11    1    3    3    0    0  0.18102464395E+03 -0.82181895311E+02 -0.91734218760E+02  0.21894965751E+03  0.00000000000E+00 0. -1.
        -11    1    3    3    0    0  0.44352951619E+03 -0.20049283197E+03 -0.12593646501E+03  0.50276813804E+03  0.00000000000E+00 0.  1.
         22    1    1    2    0    0 -0.62455416014E+03  0.28267472728E+03  0.32376103712E+04  0.33093947810E+04  0.00000000000E+00 0.  1.
<mgrwt>
<rscale>  0 0.26701747E+04</rscale>
<asrwt>0</asrwt>
<pdfrwt beam="1">  1        2 0.54238862E+00 0.26701747E+04</pdfrwt>
<pdfrwt beam="2">  1       -2 0.77782532E-01 0.26701747E+04</pdfrwt>
<totfact> 0.10104486E+00</totfact>
</mgrwt>
</event>
<event>
 6    1  0.5026615E-004  0.4215331E+04  0.7818608E-02  0.7962462E-01
         -2   -1    0    0    0  501 -0.00000000000E+00  0.00000000000E+00  0.13499847062E+04  0.13499847062E+04  0.00000000000E+00 0. -1.
          2   -1    0    0  501    0  0.00000000000E+00 -0.00000000000E+00 -0.32905952979E+04  0.32905952979E+04  0.00000000000E+00 0.  1.
         23    2    1    2    0    0 -0.15363899488E+04  0.70396718209E+03 -0.23554212766E+04  0.29004272025E+04  0.91677142869E+02 0.  0.
         11    1    3    3    0    0 -0.96960402767E+03  0.49242235692E+03 -0.15071739660E+04  0.18585438149E+04  0.00000000000E+00 0. -1.
        -11    1    3    3    0    0 -0.56678592117E+03  0.21154482517E+03 -0.84824731061E+03  0.10418833877E+04  0.00000000000E+00 0.  1.
         22    1    1    2    0    0  0.15363899488E+04 -0.70396718209E+03  0.41481068500E+03  0.17401528016E+04  0.00000000000E+00 0. -1.
<mgrwt>
<rscale>  0 0.42153307E+04</rscale>
<asrwt>0</asrwt>
<pdfrwt beam="1">  1        2 0.50624543E+00 0.42153307E+04</pdfrwt>
<pdfrwt beam="2">  1       -2 0.20768996E+00 0.42153307E+04</pdfrwt>
<totfact> 0.10370077E-01</totfact>
</mgrwt>
</event>
<event>
 6    1  0.5026615E-004  0.1860371E+04  0.7818608E-02  0.8674838E-01
          2   -1    0    0  501    0  0.00000000000E+00  0.00000000000E+00  0.19451261253E+04  0.19451261253E+04  0.00000000000E+00 0.  1.
         -2   -1    0    0    0  501 -0.00000000000E+00 -0.00000000000E+00 -0.44482713665E+03  0.44482713665E+03  0.00000000000E+00 0. -1.
         23    2    1    2    0    0  0.73617524211E+03 -0.42941235988E+03  0.28003637012E+03  0.90153469849E+03  0.89417459556E+02 0.  0.
         11    1    3    3    0    0  0.47861241942E+03 -0.23330645852E+03  0.19259577940E+03  0.56621099058E+03  0.00000000000E+00 0. -1.
        -11    1    3    3    0    0  0.25756282270E+03 -0.19610590135E+03  0.87440590714E+02  0.33532370791E+03  0.00000000000E+00 0.  1.
         22    1    1    2    0    0 -0.73617524211E+03  0.42941235988E+03  0.12202626186E+04  0.14884185635E+04  0.00000000000E+00 0.  1.
<mgrwt>
<rscale>  0 0.18603708E+04</rscale>
<asrwt>0</asrwt>
<pdfrwt beam="1">  1        2 0.29925017E+00 0.18603708E+04</pdfrwt>
<pdfrwt beam="2">  1       -2 0.68434945E-01 0.18603708E+04</pdfrwt>
<totfact> 0.13150167E+01</totfact>
</mgrwt>
</event>
<event>
 6    1  0.5026615E-004  0.2832983E+04  0.7818608E-02  0.8293101E-01
         -2   -1    0    0    0  501 -0.00000000000E+00  0.00000000000E+00  0.53088564752E+03  0.53088564752E+03  0.00000000000E+00 0. -1.
          2   -1    0    0  501    0  0.00000000000E+00 -0.00000000000E+00 -0.37794361390E+04  0.37794361390E+04  0.00000000000E+00 0.  1.
         23    2    1    2    0    0  0.72916937324E+03  0.93047684034E+03 -0.28095715868E+04  0.30492993426E+04  0.84016988096E+02 0.  0.
         11    1    3    3    0    0  0.30318355033E+03  0.37830393748E+03 -0.12588732029E+04  0.13489981005E+04  0.00000000000E+00 0.  1.
        -11    1    3    3    0    0  0.42598582291E+03  0.55217290286E+03 -0.15506983839E+04  0.17003012421E+04  0.00000000000E+00 0. -1.
         22    1    1    2    0    0 -0.72916937324E+03 -0.93047684034E+03 -0.43897890468E+03  0.12610224439E+04  0.00000000000E+00 0. -1.
<mgrwt>
<rscale>  0 0.28329832E+04</rscale>
<asrwt>0</asrwt>
<pdfrwt beam="1">  1        2 0.58145172E+00 0.28329832E+04</pdfrwt>
<pdfrwt beam="2">  1       -2 0.81674714E-01 0.28329832E+04</pdfrwt>
<totfact> 0.58284064E-01</totfact>
</mgrwt>
</event>
<event>
 6    1  0.5026615E-004  0.1556953E+04  0.7818608E-02  0.8847439E-01
         -2   -1    0    0    0  501 -0.00000000000E+00  0.00000000000E+00  0.57228933881E+03  0.57228933881E+03  0.00000000000E+00 0. -1.
          2   -1    0    0  501    0  0.00000000000E+00 -0.00000000000E+00 -0.10589493444E+04  0.10589493444E+04  0.00000000000E+00 0.  1.
         23    2    1    2    0    0 -0.63949735435E+03 -0.43859823141E+03 -0.26687611308E+03  0.82524226001E+03  0.92068741415E+02 0.  0.
         11    1    3    3    0    0 -0.47479208502E+03 -0.33319947057E+03 -0.15686958219E+03  0.60088058465E+03  0.00000000000E+00 0. -1.
        -11    1    3    3    0    0 -0.16470526933E+03 -0.10539876084E+03 -0.11000653089E+03  0.22436167536E+03  0.00000000000E+00 0.  1.
         22    1    1    2    0    0  0.63949735435E+03  0.43859823141E+03 -0.21978389251E+03  0.80599642321E+03  0.00000000000E+00 0.  1.
<mgrwt>
<rscale>  0 0.15569527E+04</rscale>
<asrwt>0</asrwt>
<pdfrwt beam="1">  1        2 0.16291528E+00 0.15569527E+04</pdfrwt>
<pdfrwt beam="2">  1       -2 0.88044515E-01 0.15569527E+04</pdfrwt>
<totfact> 0.24718333E+01</totfact>
</mgrwt>
</event>
<event>
 6    1  0.5026615E-004  0.3304266E+04  0.7818608E-02  0.8161811E-01
         -2   -1    0    0    0  501 -0.00000000000E+00  0.00000000000E+00  0.64251834251E+03  0.64251834251E+03  0.00000000000E+00 0. -1.
          2   -1    0    0  501    0  0.00000000000E+00 -0.00000000000E+00 -0.42481946446E+04  0.42481946446E+04  0.00000000000E+00 0.  1.
         23    2    1    2    0    0 -0.78319692238E+03 -0.73890236920E+03  0.47985173485E+02  0.10816952255E+04  0.91585225124E+02 0.  0.
         11    1    3    3    0    0 -0.18295764302E+03 -0.14042996158E+03 -0.19091442058E+02  0.23142721622E+03  0.00000000000E+00 0. -1.
        -11    1    3    3    0    0 -0.60023927936E+03 -0.59847240763E+03  0.67076615542E+02  0.85026800924E+03  0.00000000000E+00 0.  1.
         22    1    1    2    0    0  0.78319692238E+03  0.73890236920E+03 -0.36536614756E+04  0.38090177616E+04  0.00000000000E+00 0.  1.
<mgrwt>
<rscale>  0 0.33042657E+04</rscale>
<asrwt>0</asrwt>
<pdfrwt beam="1">  1        2 0.65356840E+00 0.33042657E+04</pdfrwt>
<pdfrwt beam="2">  1       -2 0.98848976E-01 0.33042657E+04</pdfrwt>
<totfact> 0.14914845E-01</totfact>
</mgrwt>
</event>
<event>
 6    1  0.5026615E-004  0.1384321E+04  0.7818608E-02  0.8965247E-01
          2   -1    0    0  501    0  0.00000000000E+00  0.00000000000E+00  0.70043814380E+03  0.70043814380E+03  0.00000000000E+00 0.  1.
         -2   -1    0    0    0  501 -0.00000000000E+00 -0.00000000000E+00 -0.68398023679E+03  0.68398023679E+03  0.00000000000E+00 0. -1.
         23    2    1    2    0    0 -0.68773707333E+03 -0.45337141321E+02  0.25099581477E+02  0.69513439198E+03  0.86856752748E+02 0.  0.
         13    1    3    3    0    0 -0.10081160140E+03  0.34143323520E+01 -0.25425312695E+02  0.10402443544E+03  0.00000000000E+00 0. -1.
        -13    1    3    3    0    0 -0.58692547193E+03 -0.48751473673E+02  0.50524894173E+02  0.59110995654E+03  0.00000000000E+00 0.  1.
         22    1    1    2    0    0  0.68773707333E+03  0.45337141321E+02 -0.86416744648E+01  0.68928398861E+03  0.00000000000E+00 0.  1.
<mgrwt>
<rscale>  0 0.13843206E+04</rscale>
<asrwt>0</asrwt>
<pdfrwt beam="1">  1        2 0.10775971E+00 0.13843206E+04</pdfrwt>
<pdfrwt beam="2">  1       -2 0.10522773E+00 0.13843206E+04</pdfrwt>
<totfact> 0.29176385E+01</totfact>
</mgrwt>
</event>
<event>
 6    1  0.5026615E-004  0.2662778E+04  0.7818608E-02  0.8347184E-01
         -2   -1    0    0    0  501 -0.00000000000E+00  0.00000000000E+00  0.16593408552E+04  0.16593408552E+04  0.00000000000E+00 0. -1.
          2   -1    0    0  501    0  0.00000000000E+00 -0.00000000000E+00 -0.10682535899E+04  0.10682535899E+04  0.00000000000E+00 0.  1.
         23    2    1    2    0    0 -0.15339028625E+03  0.13132400801E+04  0.43825752405E+03  0.13966229887E+04  0.10177439301E+03 0.  0.
         11    1    3    3    0    0 -0.36059597625E+02  0.67511879669E+03  0.25307301402E+03  0.72189447612E+03  0.00000000000E+00 0. -1.
        -11    1    3    3    0    0 -0.11733068862E+03  0.63812128344E+03  0.18518451003E+03  0.67472851254E+03  0.00000000000E+00 0.  1.
         22    1    1    2    0    0  0.15339028625E+03 -0.13132400801E+04  0.15282974125E+03  0.13309714564E+04  0.00000000000E+00 0. -1.
<mgrwt>
<rscale>  0 0.26627781E+04</rscale>
<asrwt>0</asrwt>
<pdfrwt beam="1">  1        2 0.16434671E+00 0.26627781E+04</pdfrwt>
<pdfrwt beam="2">  1       -2 0.25528321E+00 0.26627781E+04</pdfrwt>
<totfact> 0.11963227E+00</totfact>
</mgrwt>
</event>
<event>
 6    1  0.5026615E-004  0.2992983E+04  0.7818608E-02  0.8245737E-01
          2   -1    0    0  501    0  0.00000000000E+00  0.00000000000E+00  0.16732661248E+04  0.16732661248E+04  0.00000000000E+00 0. -1.
         -2   -1    0    0    0  501 -0.00000000000E+00 -0.00000000000E+00 -0.13383927169E+04  0.13383927169E+04  0.00000000000E+00 0.  1.
         23    2    1    2    0    0 -0.22838088189E+03 -0.43275678427E+03  0.15891847589E+04  0.16652810244E+04  0.90644530998E+02 0.  0.
         13    1    3    3    0    0 -0.15981413837E+03 -0.21898852610E+03  0.94385432128E+03  0.98201706360E+03  0.00000000000E+00 0. -1.
        -13    1    3    3    0    0 -0.68566743518E+02 -0.21376825817E+03  0.64533043759E+03  0.68326396085E+03  0.00000000000E+00 0.  1.
         22    1    1    2    0    0  0.22838088189E+03  0.43275678427E+03 -0.12543113510E+04  0.13463778173E+04  0.00000000000E+00 0.  1.
<mgrwt>
<rscale>  0 0.29929833E+04</rscale>
<asrwt>0</asrwt>
<pdfrwt beam="1">  1        2 0.25742556E+00 0.29929833E+04</pdfrwt>
<pdfrwt beam="2">  1       -2 0.20590657E+00 0.29929833E+04</pdfrwt>
<totfact> 0.10580113E+00</totfact>
</mgrwt>
</event>
<event>
 6    1  0.5026615E-004  0.4866173E+04  0.7818608E-02  0.7849490E-01
          2   -1    0    0  501    0  0.00000000000E+00  0.00000000000E+00  0.28633573184E+04  0.28633573184E+04  0.00000000000E+00 0.  1.
         -2   -1    0    0    0  501 -0.00000000000E+00 -0.00000000000E+00 -0.20674712234E+04  0.20674712234E+04  0.00000000000E+00 0. -1.
         23    2    1    2    0    0  0.11253973242E+04  0.11519754273E+04  0.22450020282E+04  0.27643790248E+04  0.90502837421E+02 0.  0.
         13    1    3    3    0    0  0.58113757453E+03  0.55566587539E+03  0.10584748854E+04  0.13292308034E+04  0.00000000000E+00 0. -1.
        -13    1    3    3    0    0  0.54425974971E+03  0.59630955187E+03  0.11865271428E+04  0.14351482214E+04  0.00000000000E+00 0.  1.
         22    1    1    2    0    0 -0.11253973242E+04 -0.11519754273E+04 -0.14491159332E+04  0.21664495171E+04  0.00000000000E+00 0. -1.
<mgrwt>
<rscale>  0 0.48661726E+04</rscale>
<asrwt>0</asrwt>
<pdfrwt beam="1">  1        2 0.44051651E+00 0.48661726E+04</pdfrwt>
<pdfrwt beam="2">  1       -2 0.31807249E+00 0.48661726E+04</pdfrwt>
<totfact> 0.38303102E-02</totfact>
</mgrwt>
</event>
<event>
 6    1  0.5026615E-004  0.3165221E+04  0.7818608E-02  0.8198063E-01
          2   -1    0    0  501    0  0.00000000000E+00  0.00000000000E+00  0.81922201486E+03  0.81922201486E+03  0.00000000000E+00 0.  1.
         -2   -1    0    0    0  501 -0.00000000000E+00 -0.00000000000E+00 -0.30573596427E+04  0.30573596427E+04  0.00000000000E+00 0. -1.
         23    2    1    2    0    0 -0.33414068586E+03  0.53172890332E+03  0.65750361604E+03  0.91362302844E+03  0.89500885060E+02 0.  0.
         13    1    3    3    0    0 -0.74623704022E+02  0.12641262024E+03  0.21156417225E+03  0.25750387713E+03  0.00000000000E+00 0. -1.
        -13    1    3    3    0    0 -0.25951698184E+03  0.40531628308E+03  0.44593944379E+03  0.65611915131E+03  0.00000000000E+00 0.  1.
         22    1    1    2    0    0  0.33414068586E+03 -0.53172890332E+03 -0.28956412439E+04  0.29629586291E+04  0.00000000000E+00 0. -1.
<mgrwt>
<rscale>  0 0.31652212E+04</rscale>
<asrwt>0</asrwt>
<pdfrwt beam="1">  1        2 0.12603415E+00 0.31652212E+04</pdfrwt>
<pdfrwt beam="2">  1       -2 0.47036303E+00 0.31652212E+04</pdfrwt>
<totfact> 0.71724787E-02</totfact>
</mgrwt>
</event>
<event>
 6    1  0.5026615E-004  0.6179512E+04  0.7818608E-02  0.7668534E-01
          2   -1    0    0  501    0  0.00000000000E+00  0.00000000000E+00  0.38951166867E+04  0.38951166867E+04  0.00000000000E+00 0.  1.
         -2   -1    0    0    0  501 -0.00000000000E+00 -0.00000000000E+00 -0.24509131670E+04  0.24509131670E+04  0.00000000000E+00 0. -1.
         23    2    1    2    0    0  0.60192647888E+03 -0.23239050327E+04 -0.12742861289E+04  0.27193183879E+04  0.89650821826E+02 0.  0.
         13    1    3    3    0    0  0.20531416229E+03 -0.96857272879E+03 -0.52676754080E+03  0.11215039359E+04  0.00000000000E+00 0.  1.
        -13    1    3    3    0    0  0.39661231659E+03 -0.13553323039E+04 -0.74751858805E+03  0.15978144520E+04  0.00000000000E+00 0. -1.
         22    1    1    2    0    0 -0.60192647888E+03  0.23239050327E+04  0.27184896486E+04  0.36267114658E+04  0.00000000000E+00 0.  1.
<mgrwt>
<rscale>  0 0.61795122E+04</rscale>
<asrwt>0</asrwt>
<pdfrwt beam="1">  1        2 0.59924872E+00 0.61795122E+04</pdfrwt>
<pdfrwt beam="2">  1       -2 0.37706356E+00 0.61795122E+04</pdfrwt>
<totfact> 0.28677280E-03</totfact>
</mgrwt>
</event>
<event>
 6    1  0.5026615E-004  0.1086026E+04  0.7818608E-02  0.9218920E-01
          2   -1    0    0  501    0  0.00000000000E+00  0.00000000000E+00  0.68400900885E+03  0.68400900885E+03  0.00000000000E+00 0.  1.
         -2   -1    0    0    0  501 -0.00000000000E+00 -0.00000000000E+00 -0.43108039792E+03  0.43108039792E+03  0.00000000000E+00 0. -1.
         23    2    1    2    0    0 -0.60711051898E+01  0.32951514730E+03 -0.31080364475E+03  0.46208776304E+03  0.91154289763E+02 0.  0.
         11    1    3    3    0    0  0.16433233566E+02  0.23767948836E+03 -0.17079681036E+03  0.29314354979E+03  0.00000000000E+00 0. -1.
        -11    1    3    3    0    0 -0.22504338756E+02  0.91835658941E+02 -0.14000683439E+03  0.16894421325E+03  0.00000000000E+00 0.  1.
         22    1    1    2    0    0  0.60711051898E+01 -0.32951514730E+03  0.56373225568E+03  0.65300164373E+03  0.00000000000E+00 0.  1.
<mgrwt>
<rscale>  0 0.10860256E+04</rscale>
<asrwt>0</asrwt>
<pdfrwt beam="1">  1        2 0.10523215E+00 0.10860256E+04</pdfrwt>
<pdfrwt beam="2">  1       -2 0.66320061E-01 0.10860256E+04</pdfrwt>
<totfact> 0.87685963E+01</totfact>
</mgrwt>
</event>
<event>
 6    1  0.5026615E-004  0.1822134E+04  0.7818608E-02  0.8694617E-01
         -2   -1    0    0    0  501 -0.00000000000E+00  0.00000000000E+00  0.97594535922E+03  0.97594535922E+03  0.00000000000E+00 0. -1.
          2   -1    0    0  501    0  0.00000000000E+00 -0.00000000000E+00 -0.85050166091E+03  0.85050166091E+03  0.00000000000E+00 0.  1.
         23    2    1    2    0    0  0.39829711960E+03  0.42066681766E+02  0.88072371521E+03  0.97154462504E+03  0.88399630764E+02 0.  0.
         11    1    3    3    0    0  0.85385625164E+02  0.21420522156E+02  0.28553074505E+03  0.29879315609E+03  0.00000000000E+00 0. -1.
        -11    1    3    3    0    0  0.31291149444E+03  0.20646159610E+02  0.59519297015E+03  0.67275146895E+03  0.00000000000E+00 0.  1.
         22    1    1    2    0    0 -0.39829711960E+03 -0.42066681766E+02 -0.75528001690E+03  0.85490239509E+03  0.00000000000E+00 0.  1.
<mgrwt>
<rscale>  0 0.18221341E+04</rscale>
<asrwt>0</asrwt>
<pdfrwt beam="1">  1        2 0.13084641E+00 0.18221341E+04</pdfrwt>
<pdfrwt beam="2">  1       -2 0.15014544E+00 0.18221341E+04</pdfrwt>
<totfact> 0.89287850E+00</totfact>
</mgrwt>
</event>
<event>
 6    1  0.5026615E-004  0.5033501E+04  0.7818608E-02  0.7823360E-01
          2   -1    0    0  501    0  0.00000000000E+00  0.00000000000E+00  0.50085274777E+04  0.50085274777E+04  0.00000000000E+00 0.  1.
         -2   -1    0    0    0  501 -0.00000000000E+00 -0.00000000000E+00 -0.12646497076E+04  0.12646497076E+04  0.00000000000E+00 0. -1.
         23    2    1    2    0    0  0.18316351099E+04  0.17501116542E+03 -0.26593934337E+03  0.18613579043E+04  0.91724750913E+02 0.  0.
         11    1    3    3    0    0  0.95414547697E+03  0.71140120824E+02 -0.96556374879E+02  0.96165359748E+03  0.00000000000E+00 0. -1.
        -11    1    3    3    0    0  0.87748963289E+03  0.10387104460E+03 -0.16938296849E+03  0.89970430684E+03  0.00000000000E+00 0.  1.
         22    1    1    2    0    0 -0.18316351099E+04 -0.17501116542E+03  0.40098171135E+04  0.44118192810E+04  0.00000000000E+00 0.  1.
<mgrwt>
<rscale>  0 0.50335009E+04</rscale>
<asrwt>0</asrwt>
<pdfrwt beam="1">  1        2 0.77054268E+00 0.50335009E+04</pdfrwt>
<pdfrwt beam="2">  1       -2 0.19456150E+00 0.50335009E+04</pdfrwt>
<totfact> 0.34516407E-03</totfact>
</mgrwt>
</event>
<event>
 6    1  0.5026615E-004  0.9535437E+03  0.7818608E-02  0.9361018E-01
         -2   -1    0    0    0  501 -0.00000000000E+00  0.00000000000E+00  0.19297594099E+03  0.19297594099E+03  0.00000000000E+00 0. -1.
          2   -1    0    0  501    0  0.00000000000E+00 -0.00000000000E+00 -0.11779260163E+04  0.11779260163E+04  0.00000000000E+00 0.  1.
         23    2    1    2    0    0  0.89795678941E+02 -0.93488005720E+02 -0.11501788245E+04  0.11608928843E+04  0.89205881845E+02 0.  0.
         13    1    3    3    0    0  0.39958050975E+02  0.56719599370E+01 -0.18478423770E+03  0.18914024286E+03  0.00000000000E+00 0.  1.
        -13    1    3    3    0    0  0.49837627966E+02 -0.99159965657E+02 -0.96539458677E+03  0.97175264143E+03  0.00000000000E+00 0. -1.
         22    1    1    2    0    0 -0.89795678941E+02  0.93488005720E+02  0.16522874920E+03  0.21000907297E+03  0.00000000000E+00 0.  1.
<mgrwt>
<rscale>  0 0.95354367E+03</rscale>
<asrwt>0</asrwt>
<pdfrwt beam="1">  1        2 0.18121939E+00 0.95354367E+03</pdfrwt>
<pdfrwt beam="2">  1       -2 0.29688606E-01 0.95354367E+03</pdfrwt>
<totfact> 0.20397989E+02</totfact>
</mgrwt>
</event>
<event>
 6    1  0.5026615E-004  0.1149279E+04  0.7818608E-02  0.9158449E-01
          2   -1    0    0  501    0  0.00000000000E+00  0.00000000000E+00  0.15291342684E+04  0.15291342684E+04  0.00000000000E+00 0.  1.
         -2   -1    0    0    0  501 -0.00000000000E+00 -0.00000000000E+00 -0.21594620132E+03  0.21594620132E+03  0.00000000000E+00 0. -1.
         23    2    1    2    0    0  0.39981809859E+02  0.56905248549E+03  0.62095749713E+03  0.84808412728E+03  0.90770024521E+02 0.  0.
         13    1    3    3    0    0  0.67490906286E+02  0.38553931193E+03  0.40196740813E+03  0.56104668315E+03  0.00000000000E+00 0. -1.
        -13    1    3    3    0    0 -0.27509096427E+02  0.18351317355E+03  0.21899008899E+03  0.28703744413E+03  0.00000000000E+00 0.  1.
         22    1    1    2    0    0 -0.39981809859E+02 -0.56905248549E+03  0.69223056996E+03  0.89699634244E+03  0.00000000000E+00 0.  1.
<mgrwt>
<rscale>  0 0.11492793E+04</rscale>
<asrwt>0</asrwt>
<pdfrwt beam="1">  1        2 0.23525142E+00 0.11492793E+04</pdfrwt>
<pdfrwt beam="2">  1       -2 0.33222494E-01 0.11492793E+04</pdfrwt>
<totfact> 0.10231254E+02</totfact>
</mgrwt>
</event>
<event>
 6    1  0.5026615E-004  0.3094428E+04  0.7818608E-02  0.8217269E-01
          2   -1    0    0  501    0  0.00000000000E+00  0.00000000000E+00  0.18273579382E+04  0.18273579382E+04  0.00000000000E+00 0.  1.
         -2   -1    0    0    0  501 -0.00000000000E+00 -0.00000000000E+00 -0.13100179178E+04  0.13100179178E+04  0.00000000000E+00 0. -1.
         23    2    1    2    0    0 -0.12161982488E+03  0.87766148054E+03 -0.10254195514E+04  0.13582782890E+04  0.91398018189E+02 0.  0.
         13    1    3    3    0    0 -0.10723045804E+03  0.78544889322E+03 -0.87008250387E+03  0.11770607030E+04  0.00000000000E+00 0.  1.
        -13    1    3    3    0    0 -0.14389366835E+02  0.92212587312E+02 -0.15533704756E+03  0.18121758602E+03  0.00000000000E+00 0. -1.
         22    1    1    2    0    0  0.12161982488E+03 -0.87766148054E+03  0.15427595718E+04  0.17790975669E+04  0.00000000000E+00 0.  1.
<mgrwt>
<rscale>  0 0.30944283E+04</rscale>
<asrwt>0</asrwt>
<pdfrwt beam="1">  1        2 0.28113199E+00 0.30944283E+04</pdfrwt>
<pdfrwt beam="2">  1       -2 0.20154122E+00 0.30944283E+04</pdfrwt>
<totfact> 0.91973451E-01</totfact>
</mgrwt>
</event>
<event>
 6    1  0.5026615E-004  0.4406656E+04  0.7818608E-02  0.7927185E-01
         -2   -1    0    0    0  501 -0.00000000000E+00  0.00000000000E+00  0.19541137806E+04  0.19541137806E+04  0.00000000000E+00 0. -1.
          2   -1    0    0  501    0  0.00000000000E+00 -0.00000000000E+00 -0.24843251303E+04  0.24843251303E+04  0.00000000000E+00 0.  1.
         23    2    1    2    0    0  0.21060202353E+04  0.51365641846E+03 -0.65699847828E+03  0.22669787746E+04  0.91551166859E+02 0.  0.
         13    1    3    3    0    0  0.15715230191E+04  0.38611988602E+03 -0.44864621653E+03  0.16793024128E+04  0.00000000000E+00 0. -1.
        -13    1    3    3    0    0  0.53449721617E+03  0.12753653244E+03 -0.20835226175E+03  0.58767636177E+03  0.00000000000E+00 0.  1.
         22    1    1    2    0    0 -0.21060202353E+04 -0.51365641846E+03  0.12678712852E+03  0.21714601363E+04  0.00000000000E+00 0. -1.
<mgrwt>
<rscale>  0 0.44066559E+04</rscale>
<asrwt>0</asrwt>
<pdfrwt beam="1">  1        2 0.38220387E+00 0.44066559E+04</pdfrwt>
<pdfrwt beam="2">  1       -2 0.30063289E+00 0.44066559E+04</pdfrwt>
<totfact> 0.85488951E-02</totfact>
</mgrwt>
</event>
<event>
 6    1  0.5026615E-004  0.1496060E+04  0.7818608E-02  0.8887077E-01
          2   -1    0    0  501    0  0.00000000000E+00  0.00000000000E+00  0.94874069713E+03  0.94874069713E+03  0.00000000000E+00 0.  1.
         -2   -1    0    0    0  501 -0.00000000000E+00 -0.00000000000E+00 -0.58978072390E+03  0.58978072390E+03  0.00000000000E+00 0. -1.
         23    2    1    2    0    0  0.41504362635E+03  0.87552473962E+02  0.81028857327E+03  0.91914742037E+03  0.91311340655E+02 0.  0.
         13    1    3    3    0    0  0.14604527113E+03  0.59394841592E+01  0.35708740671E+03  0.38584441777E+03  0.00000000000E+00 0.  1.
        -13    1    3    3    0    0  0.26899835521E+03  0.81612989803E+02  0.45320116657E+03  0.53330300261E+03  0.00000000000E+00 0. -1.
         22    1    1    2    0    0 -0.41504362635E+03 -0.87552473962E+02 -0.45132860005E+03  0.61937400065E+03  0.00000000000E+00 0. -1.
<mgrwt>
<rscale>  0 0.14960601E+04</rscale>
<asrwt>0</asrwt>
<pdfrwt beam="1">  1        2 0.14596011E+00 0.14960601E+04</pdfrwt>
<pdfrwt beam="2">  1       -2 0.90735496E-01 0.14960601E+04</pdfrwt>
<totfact> 0.27272674E+01</totfact>
</mgrwt>
</event>
<event>
 6    1  0.5026615E-004  0.2287081E+04  0.7818608E-02  0.8483032E-01
         -2   -1    0    0    0  501 -0.00000000000E+00  0.00000000000E+00  0.14517668431E+04  0.14517668431E+04  0.00000000000E+00 0. -1.
          2   -1    0    0  501    0  0.00000000000E+00 -0.00000000000E+00 -0.90075415595E+03  0.90075415595E+03  0.00000000000E+00 0.  1.
         23    2    1    2    0    0  0.10219238675E+04 -0.22728511420E+03  0.74078831569E+03  0.12885653123E+04  0.12508525560E+03 0.  0.
         13    1    3    3    0    0  0.26531833986E+03 -0.10551115594E+02  0.21998391217E+03  0.34481599314E+03  0.00000000000E+00 0.  1.
        -13    1    3    3    0    0  0.75660552767E+03 -0.21673399861E+03  0.52080440351E+03  0.94374931914E+03  0.00000000000E+00 0. -1.
         22    1    1    2    0    0 -0.10219238675E+04  0.22728511420E+03 -0.18977562856E+03  0.10639556867E+04  0.00000000000E+00 0.  1.
<mgrwt>
<rscale>  0 0.22870811E+04</rscale>
<asrwt>0</asrwt>
<pdfrwt beam="1">  1        2 0.13857756E+00 0.22870811E+04</pdfrwt>
<pdfrwt beam="2">  1       -2 0.22334875E+00 0.22870811E+04</pdfrwt>
<totfact> 0.25013106E+00</totfact>
</mgrwt>
</event>
<event>
 6    1  0.5026615E-004  0.2068133E+04  0.7818608E-02  0.8575412E-01
          2   -1    0    0  501    0  0.00000000000E+00  0.00000000000E+00  0.20500602710E+04  0.20500602710E+04  0.00000000000E+00 0.  1.
         -2   -1    0    0    0  501 -0.00000000000E+00 -0.00000000000E+00 -0.52159137470E+03  0.52159137470E+03  0.00000000000E+00 0. -1.
         23    2    1    2    0    0  0.29005452976E+03  0.97506732165E+03  0.98267515692E+03  0.14171912878E+04  0.88841264038E+02 0.  0.
         11    1    3    3    0    0  0.20320338271E+03  0.55631080923E+03  0.60484577869E+03  0.84652923589E+03  0.00000000000E+00 0. -1.
        -11    1    3    3    0    0  0.86851147057E+02  0.41875651242E+03  0.37782937823E+03  0.57066205191E+03  0.00000000000E+00 0.  1.
         22    1    1    2    0    0 -0.29005452976E+03 -0.97506732165E+03  0.54579373934E+03  0.11544603579E+04  0.00000000000E+00 0. -1.
<mgrwt>
<rscale>  0 0.20681332E+04</rscale>
<asrwt>0</asrwt>
<pdfrwt beam="1">  1        2 0.31539388E+00 0.20681332E+04</pdfrwt>
<pdfrwt beam="2">  1       -2 0.80244828E-01 0.20681332E+04</pdfrwt>
<totfact> 0.79466244E+00</totfact>
</mgrwt>
</event>
<event>
 6    1  0.5026615E-004  0.3827686E+04  0.7818608E-02  0.8040240E-01
         -2   -1    0    0    0  501 -0.00000000000E+00  0.00000000000E+00  0.15975606589E+04  0.15975606589E+04  0.00000000000E+00 0. -1.
          2   -1    0    0  501    0  0.00000000000E+00 -0.00000000000E+00 -0.22927418597E+04  0.22927418597E+04  0.00000000000E+00 0.  1.
         23    2    1    2    0    0  0.49644908943E+03  0.18356410115E+04 -0.55768193482E+03  0.19837491704E+04  0.90620137600E+02 0.  0.
         13    1    3    3    0    0  0.17659587419E+03  0.82540600005E+03 -0.24715568915E+03  0.87952663540E+03  0.00000000000E+00 0. -1.
        -13    1    3    3    0    0  0.31985321525E+03  0.10102350114E+04 -0.31052624566E+03  0.11042225350E+04  0.00000000000E+00 0.  1.
         22    1    1    2    0    0 -0.49644908943E+03 -0.18356410115E+04 -0.13749926597E+03  0.19065533482E+04  0.00000000000E+00 0. -1.
<mgrwt>
<rscale>  0 0.38276856E+04</rscale>
<asrwt>0</asrwt>
<pdfrwt beam="1">  1        2 0.35272951E+00 0.38276856E+04</pdfrwt>
<pdfrwt beam="2">  1       -2 0.24577857E+00 0.38276856E+04</pdfrwt>
<totfact> 0.24982862E-01</totfact>
</mgrwt>
</event>
<event>
 6    1  0.5026615E-004  0.4687658E+04  0.7818608E-02  0.7878583E-01
          2   -1    0    0  501    0  0.00000000000E+00  0.00000000000E+00  0.23573841298E+04  0.23573841298E+04  0.00000000000E+00 0. -1.
         -2   -1    0    0    0  501 -0.00000000000E+00 -0.00000000000E+00 -0.23303517504E+04  0.23303517504E+04  0.00000000000E+00 0.  1.
         23    2    1    2    0    0 -0.76938847698E+03 -0.64454962716E+02  0.22256317420E+04  0.23575100911E+04  0.91126878709E+02 0.  0.
         13    1    3    3    0    0 -0.51574379033E+03 -0.12112117554E+02  0.15696617213E+04  0.16522639861E+04  0.00000000000E+00 0.  1.
        -13    1    3    3    0    0 -0.25364468666E+03 -0.52342845163E+02  0.65597002071E+03  0.70524610497E+03  0.00000000000E+00 0. -1.
         22    1    1    2    0    0  0.76938847698E+03  0.64454962716E+02 -0.21985993626E+04  0.23302257891E+04  0.00000000000E+00 0.  1.
<mgrwt>
<rscale>  0 0.46876579E+04</rscale>
<asrwt>0</asrwt>
<pdfrwt beam="1">  1        2 0.36267448E+00 0.46876579E+04</pdfrwt>
<pdfrwt beam="2">  1       -2 0.35851565E+00 0.46876579E+04</pdfrwt>
<totfact> 0.43132260E-02</totfact>
</mgrwt>
</event>
<event>
 6    1  0.5026615E-004  0.1101873E+04  0.7818608E-02  0.9203368E-01
          2   -1    0    0  501    0  0.00000000000E+00  0.00000000000E+00  0.10264368651E+04  0.10264368651E+04  0.00000000000E+00 0.  1.
         -2   -1    0    0    0  501 -0.00000000000E+00 -0.00000000000E+00 -0.29571326097E+03  0.29571326097E+03  0.00000000000E+00 0. -1.
         23    2    1    2    0    0  0.14751112065E+03  0.52680241143E+03  0.35622985938E+03  0.65918264854E+03  0.91333126643E+02 0.  0.
         13    1    3    3    0    0  0.12463799697E+03  0.27991308982E+03  0.18642759892E+03  0.35866588600E+03  0.00000000000E+00 0.  1.
        -13    1    3    3    0    0  0.22873123683E+02  0.24688932162E+03  0.16980226045E+03  0.30051676254E+03  0.00000000000E+00 0. -1.
         22    1    1    2    0    0 -0.14751112065E+03 -0.52680241143E+03  0.37449374480E+03  0.66296747756E+03  0.00000000000E+00 0. -1.
<mgrwt>
<rscale>  0 0.11018729E+04</rscale>
<asrwt>0</asrwt>
<pdfrwt beam="1">  1        2 0.15791336E+00 0.11018729E+04</pdfrwt>
<pdfrwt beam="2">  1       -2 0.45494348E-01 0.11018729E+04</pdfrwt>
<totfact> 0.11014457E+02</totfact>
</mgrwt>
</event>
<event>
 6    1  0.5026615E-004  0.1263027E+04  0.7818608E-02  0.9059410E-01
          2   -1    0    0  501    0  0.00000000000E+00  0.00000000000E+00  0.50992391871E+03  0.50992391871E+03  0.00000000000E+00 0.  1.
         -2   -1    0    0    0  501 -0.00000000000E+00 -0.00000000000E+00 -0.78209578479E+03  0.78209578479E+03  0.00000000000E+00 0. -1.
         23    2    1    2    0    0  0.45170267621E+03  0.56471432483E+02  0.30694267812E+03  0.55540719636E+03  0.83898842243E+02 0.  0.
         11    1    3    3    0    0  0.21195599769E+03  0.58795599336E+02  0.17935822810E+03  0.28381621068E+03  0.00000000000E+00 0. -1.
        -11    1    3    3    0    0  0.23974667852E+03 -0.23241668527E+01  0.12758445002E+03  0.27159098568E+03  0.00000000000E+00 0.  1.
         22    1    1    2    0    0 -0.45170267621E+03 -0.56471432483E+02 -0.57911454420E+03  0.73661250715E+03  0.00000000000E+00 0. -1.
<mgrwt>
<rscale>  0 0.12630271E+04</rscale>
<asrwt>0</asrwt>
<pdfrwt beam="1">  1        2 0.78449834E-01 0.12630271E+04</pdfrwt>
<pdfrwt beam="2">  1       -2 0.12032243E+00 0.12630271E+04</pdfrwt>
<totfact> 0.31184449E+01</totfact>
</mgrwt>
</event>
<event>
 6    1  0.5026615E-004  0.1659682E+04  0.7818608E-02  0.8784699E-01
         -2   -1    0    0    0  501 -0.00000000000E+00  0.00000000000E+00  0.14463665786E+03  0.14463665786E+03  0.00000000000E+00 0. -1.
          2   -1    0    0  501    0  0.00000000000E+00 -0.00000000000E+00 -0.47611458536E+04  0.47611458536E+04  0.00000000000E+00 0.  1.
         23    2    1    2    0    0  0.54593301989E+03  0.48951460691E+03 -0.11812005749E+04  0.13930894231E+04  0.88294563998E+02 0.  0.
         11    1    3    3    0    0  0.16716871423E+03  0.12483700256E+03 -0.27197055272E+03  0.34277928434E+03  0.00000000000E+00 0.  1.
        -11    1    3    3    0    0  0.37876430567E+03  0.36467760435E+03 -0.90923002217E+03  0.10503101388E+04  0.00000000000E+00 0. -1.
         22    1    1    2    0    0 -0.54593301989E+03 -0.48951460691E+03 -0.34353086209E+04  0.35126930884E+04  0.00000000000E+00 0.  1.
<mgrwt>
<rscale>  0 0.16596822E+04</rscale>
<asrwt>0</asrwt>
<pdfrwt beam="1">  1        2 0.73248405E+00 0.16596822E+04</pdfrwt>
<pdfrwt beam="2">  1       -2 0.22251791E-01 0.16596822E+04</pdfrwt>
<totfact> 0.11502399E+00</totfact>
</mgrwt>
</event>
<event>
 6    1  0.5026615E-004  0.1561140E+04  0.7818608E-02  0.8844783E-01
          1   -1    0    0  501    0  0.00000000000E+00  0.00000000000E+00  0.12649521028E+04  0.12649521028E+04  0.00000000000E+00 0.  1.
         -1   -1    0    0    0  501 -0.00000000000E+00 -0.00000000000E+00 -0.48167002250E+03  0.48167002250E+03  0.00000000000E+00 0. -1.
         23    2    1    2    0    0  0.76125174248E+03 -0.15636594113E+03  0.42961850863E+03  0.89278815732E+03  0.92434343838E+02 0.  0.
         11    1    3    3    0    0  0.33828397065E+03 -0.65782926652E+02  0.24306582812E+03  0.42171605974E+03  0.00000000000E+00 0.  1.
        -11    1    3    3    0    0  0.42296777183E+03 -0.90583014482E+02  0.18655268050E+03  0.47107209758E+03  0.00000000000E+00 0. -1.
         22    1    1    2    0    0 -0.76125174248E+03  0.15636594113E+03  0.35366357170E+03  0.85383396800E+03  0.00000000000E+00 0. -1.
<mgrwt>
<rscale>  0 0.15611400E+04</rscale>
<asrwt>0</asrwt>
<pdfrwt beam="1">  1        1 0.19460801E+00 0.15611400E+04</pdfrwt>
<pdfrwt beam="2">  1       -1 0.74103081E-01 0.15611400E+04</pdfrwt>
<totfact> 0.16917627E+01</totfact>
</mgrwt>
</event>
<event>
 6    1  0.5026615E-004  0.3831335E+04  0.7818608E-02  0.8039464E-01
         -2   -1    0    0    0  501 -0.00000000000E+00  0.00000000000E+00  0.12244434807E+04  0.12244434807E+04  0.00000000000E+00 0. -1.
          2   -1    0    0  501    0  0.00000000000E+00 -0.00000000000E+00 -0.29971015428E+04  0.29971015428E+04  0.00000000000E+00 0.  1.
         23    2    1    2    0    0  0.32064102473E+03  0.15952679860E+04 -0.19985597058E+04  0.25787662293E+04  0.90020851692E+02 0.  0.
         13    1    3    3    0    0  0.11637146448E+03  0.54717051576E+03 -0.75493653033E+03  0.93961005523E+03  0.00000000000E+00 0. -1.
        -13    1    3    3    0    0  0.20426956025E+03  0.10480974702E+04 -0.12436231755E+04  0.16391561741E+04  0.00000000000E+00 0.  1.
         22    1    1    2    0    0 -0.32064102473E+03 -0.15952679860E+04  0.22590164379E+03  0.16427787942E+04  0.00000000000E+00 0. -1.
<mgrwt>
<rscale>  0 0.38313347E+04</rscale>
<asrwt>0</asrwt>
<pdfrwt beam="1">  1        2 0.46109254E+00 0.38313347E+04</pdfrwt>
<pdfrwt beam="2">  1       -2 0.18837592E+00 0.38313347E+04</pdfrwt>
<totfact> 0.22212870E-01</totfact>
</mgrwt>
</event>
<event>
 6    1  0.6364635E-004  0.2854635E+04  0.7818608E-02  0.8286504E-01
         -2   -1    0    0    0  501 -0.00000000000E+00  0.00000000000E+00  0.14398484341E+04  0.14398484341E+04  0.00000000000E+00 0. -1.
          2   -1    0    0  501    0  0.00000000000E+00 -0.00000000000E+00 -0.14148961012E+04  0.14148961012E+04  0.00000000000E+00 0.  1.
         23    2    1    2    0    0 -0.13089203825E+04  0.18800795769E+03 -0.52075497539E+03  0.14242145544E+04  0.92637966716E+02 0.  0.
         11    1    3    3    0    0 -0.67515402904E+03  0.14309556108E+03 -0.26297320768E+03  0.73855548911E+03  0.00000000000E+00 0.  1.
        -11    1    3    3    0    0 -0.63376635341E+03  0.44912396615E+02 -0.25778176771E+03  0.68565906531E+03  0.00000000000E+00 0. -1.
         22    1    1    2    0    0  0.13089203825E+04 -0.18800795769E+03  0.54570730830E+03  0.14305299808E+04  0.00000000000E+00 0. -1.
<mgrwt>
<rscale>  0 0.28546355E+04</rscale>
<asrwt>0</asrwt>
<pdfrwt beam="1">  1        2 0.21767632E+00 0.28546355E+04</pdfrwt>
<pdfrwt beam="2">  1       -2 0.22151514E+00 0.28546355E+04</pdfrwt>
<totfact> 0.11883878E+00</totfact>
</mgrwt>
</event>
<event>
 6    1  0.5026615E-004  0.3375889E+04  0.7818608E-02  0.8143849E-01
         -2   -1    0    0    0  501 -0.00000000000E+00  0.00000000000E+00  0.81154817139E+03  0.81154817139E+03  0.00000000000E+00 0. -1.
          2   -1    0    0  501    0  0.00000000000E+00 -0.00000000000E+00 -0.35107668418E+04  0.35107668418E+04  0.00000000000E+00 0.  1.
         23    2    1    2    0    0  0.86960966570E+03  0.23447002410E+03 -0.31765405984E+04  0.33029851422E+04  0.90019519031E+02 0.  0.
         11    1    3    3    0    0  0.31588696964E+03  0.58762119435E+02 -0.10073197197E+04  0.10573223643E+04  0.00000000000E+00 0.  1.
        -11    1    3    3    0    0  0.55372269606E+03  0.17570790467E+03 -0.21692208786E+04  0.22456627779E+04  0.00000000000E+00 0. -1.
         22    1    1    2    0    0 -0.86960966570E+03 -0.23447002410E+03  0.47732192798E+03  0.10193298710E+04  0.00000000000E+00 0. -1.
<mgrwt>
<rscale>  0 0.33758889E+04</rscale>
<asrwt>0</asrwt>
<pdfrwt beam="1">  1        2 0.54011796E+00 0.33758889E+04</pdfrwt>
<pdfrwt beam="2">  1       -2 0.12485357E+00 0.33758889E+04</pdfrwt>
<totfact> 0.31843929E-01</totfact>
</mgrwt>
</event>
<event>
 6    1  0.5026615E-004  0.2062590E+04  0.7818608E-02  0.8577904E-01
          2   -1    0    0  501    0  0.00000000000E+00  0.00000000000E+00  0.10462756863E+04  0.10462756863E+04  0.00000000000E+00 0.  1.
         -2   -1    0    0    0  501 -0.00000000000E+00 -0.00000000000E+00 -0.10165285891E+04  0.10165285891E+04  0.00000000000E+00 0. -1.
         23    2    1    2    0    0 -0.37055987258E+03  0.20909399306E+03 -0.92224050918E+03  0.10200601459E+04  0.94658477540E+02 0.  0.
         11    1    3    3    0    0 -0.12749180759E+03  0.24844127688E+02 -0.30768040740E+03  0.33397398818E+03  0.00000000000E+00 0. -1.
        -11    1    3    3    0    0 -0.24306806499E+03  0.18424986537E+03 -0.61456010178E+03  0.68608615771E+03  0.00000000000E+00 0.  1.
         22    1    1    2    0    0  0.37055987258E+03 -0.20909399306E+03  0.95198760633E+03  0.10427441296E+04  0.00000000000E+00 0.  1.
<mgrwt>
<rscale>  0 0.20625898E+04</rscale>
<asrwt>0</asrwt>
<pdfrwt beam="1">  1        2 0.16096549E+00 0.20625898E+04</pdfrwt>
<pdfrwt beam="2">  1       -2 0.15638901E+00 0.20625898E+04</pdfrwt>
<totfact> 0.58297620E+00</totfact>
</mgrwt>
</event>
<event>
 6    1  0.5026615E-004  0.2294600E+04  0.7818608E-02  0.8480053E-01
          2   -1    0    0  501    0  0.00000000000E+00  0.00000000000E+00  0.26031543302E+04  0.26031543302E+04  0.00000000000E+00 0.  1.
         -2   -1    0    0    0  501 -0.00000000000E+00 -0.00000000000E+00 -0.50565494621E+03  0.50565494621E+03  0.00000000000E+00 0. -1.
         23    2    1    2    0    0  0.18383800179E+03  0.71341701476E+03 -0.13797302287E+03  0.75506818410E+03  0.91275186914E+02 0.  0.
         11    1    3    3    0    0  0.87656927571E+02  0.41816798812E+03 -0.12111255809E+03  0.44409059320E+03  0.00000000000E+00 0. -1.
        -11    1    3    3    0    0  0.96181074217E+02  0.29524902664E+03 -0.16860464780E+02  0.31097759090E+03  0.00000000000E+00 0.  1.
         22    1    1    2    0    0 -0.18383800179E+03 -0.71341701476E+03  0.22354724069E+04  0.23537410923E+04  0.00000000000E+00 0.  1.
<mgrwt>
<rscale>  0 0.22946005E+04</rscale>
<asrwt>0</asrwt>
<pdfrwt beam="1">  1        2 0.40048527E+00 0.22946005E+04</pdfrwt>
<pdfrwt beam="2">  1       -2 0.77793070E-01 0.22946005E+04</pdfrwt>
<totfact> 0.40457288E+00</totfact>
</mgrwt>
</event>
<event>
 6    1  0.5026615E-004  0.1835752E+04  0.7818608E-02  0.8687515E-01
         -2   -1    0    0    0  501 -0.00000000000E+00  0.00000000000E+00  0.20422717770E+03  0.20422717770E+03  0.00000000000E+00 0. -1.
          2   -1    0    0  501    0  0.00000000000E+00 -0.00000000000E+00 -0.41252886790E+04  0.41252886790E+04  0.00000000000E+00 0.  1.
         23    2    1    2    0    0 -0.82459198098E+03 -0.77140141405E+02 -0.28861065990E+04  0.30039841949E+04  0.91690819014E+02 0.  0.
         13    1    3    3    0    0 -0.50742967318E+03 -0.43216595948E+02 -0.16104450077E+04  0.16890487471E+04  0.00000000000E+00 0. -1.
        -13    1    3    3    0    0 -0.31716230780E+03 -0.33923545457E+02 -0.12756615913E+04  0.13149354478E+04  0.00000000000E+00 0.  1.
         22    1    1    2    0    0  0.82459198098E+03  0.77140141405E+02 -0.10349549024E+04  0.13255316618E+04  0.00000000000E+00 0. -1.
<mgrwt>
<rscale>  0 0.18357517E+04</rscale>
<asrwt>0</asrwt>
<pdfrwt beam="1">  1        2 0.63465982E+00 0.18357517E+04</pdfrwt>
<pdfrwt beam="2">  1       -2 0.31419565E-01 0.18357517E+04</pdfrwt>
<totfact> 0.24225635E+00</totfact>
</mgrwt>
</event>
<event>
 6    1  0.5026615E-004  0.2660289E+04  0.7818608E-02  0.8348006E-01
         -2   -1    0    0    0  501 -0.00000000000E+00  0.00000000000E+00  0.72707845185E+03  0.72707845185E+03  0.00000000000E+00 0. -1.
          2   -1    0    0  501    0  0.00000000000E+00 -0.00000000000E+00 -0.24334159040E+04  0.24334159040E+04  0.00000000000E+00 0.  1.
         23    2    1    2    0    0  0.78168743786E+03  0.10113435594E+04 -0.42374649586E+03  0.13497236341E+04  0.91333181694E+02 0.  0.
         11    1    3    3    0    0  0.66621384375E+03  0.81985212853E+03 -0.37387275839E+03  0.11206155620E+04  0.00000000000E+00 0.  1.
        -11    1    3    3    0    0  0.11547359412E+03  0.19149143084E+03 -0.49873737463E+02  0.22910807212E+03  0.00000000000E+00 0. -1.
         22    1    1    2    0    0 -0.78168743786E+03 -0.10113435594E+04 -0.12825909563E+04  0.18107707217E+04  0.00000000000E+00 0. -1.
<mgrwt>
<rscale>  0 0.26602889E+04</rscale>
<asrwt>0</asrwt>
<pdfrwt beam="1">  1        2 0.37437167E+00 0.26602889E+04</pdfrwt>
<pdfrwt beam="2">  1       -2 0.11185823E+00 0.26602889E+04</pdfrwt>
<totfact> 0.21114566E+00</totfact>
</mgrwt>
</event>
<event>
 6    1  0.5026615E-004  0.2756255E+04  0.7818608E-02  0.8316980E-01
          2   -1    0    0  501    0  0.00000000000E+00  0.00000000000E+00  0.38700925631E+04  0.38700925631E+04  0.00000000000E+00 0.  1.
         -2   -1    0    0    0  501 -0.00000000000E+00 -0.00000000000E+00 -0.49074660782E+03  0.49074660782E+03  0.00000000000E+00 0. -1.
         23    2    1    2    0    0  0.27747909294E+03 -0.40258031552E+03  0.37275090790E+04  0.37606032855E+04  0.93528493341E+02 0.  0.
         11    1    3    3    0    0  0.23818234950E+03 -0.29538334362E+03  0.30544756216E+04  0.30779544301E+04  0.00000000000E+00 0. -1.
        -11    1    3    3    0    0  0.39296743441E+02 -0.10719697190E+03  0.67303345749E+03  0.68264885536E+03  0.00000000000E+00 0.  1.
         22    1    1    2    0    0 -0.27747909294E+03  0.40258031552E+03 -0.34816312373E+03  0.60023588546E+03  0.00000000000E+00 0. -1.
<mgrwt>
<rscale>  0 0.27562546E+04</rscale>
<asrwt>0</asrwt>
<pdfrwt beam="1">  1        2 0.59539884E+00 0.27562546E+04</pdfrwt>
<pdfrwt beam="2">  1       -2 0.75499480E-01 0.27562546E+04</pdfrwt>
<totfact> 0.59646057E-01</totfact>
</mgrwt>
</event>
<event>
 6    1  0.5026615E-004  0.1693653E+04  0.7818608E-02  0.8764993E-01
          2   -1    0    0  501    0  0.00000000000E+00  0.00000000000E+00  0.29862138091E+04  0.29862138091E+04  0.00000000000E+00 0.  1.
         -2   -1    0    0    0  501 -0.00000000000E+00 -0.00000000000E+00 -0.24014187973E+03  0.24014187973E+03  0.00000000000E+00 0. -1.
         23    2    1    2    0    0  0.35013882425E+03 -0.63201618318E+03  0.22094282414E+04  0.23263400779E+04  0.90792908813E+02 0.  0.
         13    1    3    3    0    0  0.12273848255E+03 -0.31498152573E+03  0.10253232124E+04  0.10796137210E+04  0.00000000000E+00 0. -1.
        -13    1    3    3    0    0  0.22740034170E+03 -0.31703465745E+03  0.11841050289E+04  0.12467263569E+04  0.00000000000E+00 0.  1.
         22    1    1    2    0    0 -0.35013882425E+03  0.63201618318E+03  0.53664368801E+03  0.90001561094E+03  0.00000000000E+00 0. -1.
<mgrwt>
<rscale>  0 0.16936529E+04</rscale>
<asrwt>0</asrwt>
<pdfrwt beam="1">  1        2 0.45941748E+00 0.16936529E+04</pdfrwt>
<pdfrwt beam="2">  1       -2 0.36944907E-01 0.16936529E+04</pdfrwt>
<totfact> 0.11729549E+01</totfact>
</mgrwt>
</event>
<event>
 6    1  0.5026615E-004  0.5602962E+03  0.7818608E-02  0.9991385E-01
          2   -1    0    0  501    0  0.00000000000E+00  0.00000000000E+00  0.23117068397E+03  0.23117068397E+03  0.00000000000E+00 0.  1.
         -2   -1    0    0    0  501 -0.00000000000E+00 -0.00000000000E+00 -0.33950219883E+03  0.33950219883E+03  0.00000000000E+00 0. -1.
         23    2    1    2    0    0  0.20293749574E+03 -0.17945900483E+03 -0.23967503685E+02  0.28693630079E+03  0.91481352667E+02 0.  0.
         13    1    3    3    0    0  0.58711315335E+02 -0.10913805695E+03  0.43315069816E+01  0.12400361276E+03  0.00000000000E+00 0.  1.
        -13    1    3    3    0    0  0.14422618040E+03 -0.70320947871E+02 -0.28299010666E+02  0.16293268803E+03  0.00000000000E+00 0. -1.
         22    1    1    2    0    0 -0.20293749574E+03  0.17945900483E+03 -0.84364011173E+02  0.28373658201E+03  0.00000000000E+00 0.  1.
<mgrwt>
<rscale>  0 0.56029619E+03</rscale>
<asrwt>0</asrwt>
<pdfrwt beam="1">  1        2 0.35564721E-01 0.56029619E+03</pdfrwt>
<pdfrwt beam="2">  1       -2 0.52231107E-01 0.56029619E+03</pdfrwt>
<totfact> 0.51250729E+02</totfact>
</mgrwt>
</event>
<event>
 6    1  0.5857992E-004  0.2890802E+04  0.7818608E-02  0.8275619E-01
         -2   -1    0    0    0  501 -0.00000000000E+00  0.00000000000E+00  0.14013141809E+04  0.14013141809E+04  0.00000000000E+00 0.  1.
          2   -1    0    0  501    0  0.00000000000E+00 -0.00000000000E+00 -0.14908751342E+04  0.14908751342E+04  0.00000000000E+00 0. -1.
         23    2    1    2    0    0  0.11435980416E+04  0.27923340544E+03 -0.88149125600E+03  0.14734076618E+04  0.90086224224E+02 0.  0.
         11    1    3    3    0    0  0.51663362899E+03  0.16256483205E+03 -0.43939123437E+03  0.69742547133E+03  0.00000000000E+00 0. -1.
        -11    1    3    3    0    0  0.62696441265E+03  0.11666857339E+03 -0.44210002164E+03  0.77598219044E+03  0.00000000000E+00 0.  1.
         22    1    1    2    0    0 -0.11435980416E+04 -0.27923340544E+03  0.79193030272E+03  0.14187816534E+04  0.00000000000E+00 0.  1.
<mgrwt>
<rscale>  0 0.28908023E+04</rscale>
<asrwt>0</asrwt>
<pdfrwt beam="1">  1        2 0.22936540E+00 0.28908023E+04</pdfrwt>
<pdfrwt beam="2">  1       -2 0.21558680E+00 0.28908023E+04</pdfrwt>
<totfact> 0.11698970E+00</totfact>
</mgrwt>
</event>
<event>
 6    1  0.5026615E-004  0.2436983E+04  0.7818608E-02  0.8425786E-01
          2   -1    0    0  501    0  0.00000000000E+00  0.00000000000E+00  0.18217750215E+04  0.18217750215E+04  0.00000000000E+00 0.  1.
         -2   -1    0    0    0  501 -0.00000000000E+00 -0.00000000000E+00 -0.81498593856E+03  0.81498593856E+03  0.00000000000E+00 0. -1.
         23    2    1    2    0    0  0.60405742073E+03 -0.52104895784E+03 -0.49001230738E+03  0.94065017769E+03  0.91286972815E+02 0.  0.
         11    1    3    3    0    0  0.41406097495E+03 -0.40264638767E+03 -0.37863383449E+03  0.69060421741E+03  0.00000000000E+00 0. -1.
        -11    1    3    3    0    0  0.18999644578E+03 -0.11840257017E+03 -0.11137847288E+03  0.25004596028E+03  0.00000000000E+00 0.  1.
         22    1    1    2    0    0 -0.60405742073E+03  0.52104895784E+03  0.14968013904E+04  0.16961107824E+04  0.00000000000E+00 0.  1.
<mgrwt>
<rscale>  0 0.24369826E+04</rscale>
<asrwt>0</asrwt>
<pdfrwt beam="1">  1        2 0.28027308E+00 0.24369826E+04</pdfrwt>
<pdfrwt beam="2">  1       -2 0.12538245E+00 0.24369826E+04</pdfrwt>
<totfact> 0.35800683E+00</totfact>
</mgrwt>
</event>
<event>
 6    1  0.5026615E-004  0.5311280E+03  0.7818608E-02  0.1005959E+00
          2   -1    0    0  501    0  0.00000000000E+00  0.00000000000E+00  0.26646947267E+03  0.26646947267E+03  0.00000000000E+00 0.  1.
         -2   -1    0    0    0  501 -0.00000000000E+00 -0.00000000000E+00 -0.26466159672E+03  0.26466159672E+03  0.00000000000E+00 0. -1.
         23    2    1    2    0    0  0.21377759270E+02 -0.12146012873E+03  0.22741540078E+03  0.27401567367E+03  0.90317514595E+02 0.  0.
         11    1    3    3    0    0 -0.25830941033E+02 -0.95551157083E+02  0.14468080973E+03  0.17529916668E+03  0.00000000000E+00 0. -1.
        -11    1    3    3    0    0  0.47208700303E+02 -0.25908971646E+02  0.82734591051E+02  0.98716506991E+02  0.00000000000E+00 0.  1.
         22    1    1    2    0    0 -0.21377759270E+02  0.12146012873E+03 -0.22560752482E+03  0.25711539572E+03  0.00000000000E+00 0. -1.
<mgrwt>
<rscale>  0 0.53112799E+03</rscale>
<asrwt>0</asrwt>
<pdfrwt beam="1">  1        2 0.40995304E-01 0.53112799E+03</pdfrwt>
<pdfrwt beam="2">  1       -2 0.40717169E-01 0.53112799E+03</pdfrwt>
<totfact> 0.71951385E+02</totfact>
</mgrwt>
</event>
<event>
 6    1  0.5026615E-004  0.2940625E+04  0.7818608E-02  0.8260892E-01
          2   -1    0    0  501    0  0.00000000000E+00  0.00000000000E+00  0.17217708414E+04  0.17217708414E+04  0.00000000000E+00 0.  1.
         -2   -1    0    0    0  501 -0.00000000000E+00 -0.00000000000E+00 -0.12555791569E+04  0.12555791569E+04  0.00000000000E+00 0. -1.
         23    2    1    2    0    0 -0.10484786657E+04  0.71017790257E+03  0.98682632935E+03  0.16081456311E+04  0.92983874719E+02 0.  0.
         11    1    3    3    0    0 -0.52905234790E+03  0.30421994169E+03  0.48989088197E+03  0.78258497045E+03  0.00000000000E+00 0. -1.
        -11    1    3    3    0    0 -0.51942631778E+03  0.40595796089E+03  0.49693544738E+03  0.82556066069E+03  0.00000000000E+00 0.  1.
         22    1    1    2    0    0  0.10484786657E+04 -0.71017790257E+03 -0.52063464491E+03  0.13692043672E+04  0.00000000000E+00 0. -1.
<mgrwt>
<rscale>  0 0.29406255E+04</rscale>
<asrwt>0</asrwt>
<pdfrwt beam="1">  1        2 0.26488782E+00 0.29406255E+04</pdfrwt>
<pdfrwt beam="2">  1       -2 0.19316602E+00 0.29406255E+04</pdfrwt>
<totfact> 0.12111574E+00</totfact>
</mgrwt>
</event>
<event>
 6    1  0.5026615E-004  0.1146291E+04  0.7818608E-02  0.9161212E-01
          2   -1    0    0  501    0  0.00000000000E+00  0.00000000000E+00  0.34454230673E+03  0.34454230673E+03  0.00000000000E+00 0.  1.
         -2   -1    0    0    0  501 -0.00000000000E+00 -0.00000000000E+00 -0.95342618993E+03  0.95342618993E+03  0.00000000000E+00 0. -1.
         23    2    1    2    0    0  0.36453112342E+02  0.37764841029E+03 -0.78733086079E+03  0.87869474957E+03  0.90925394491E+02 0.  0.
         13    1    3    3    0    0  0.42404545241E+02  0.26739378031E+03 -0.46618179588E+03  0.53909465404E+03  0.00000000000E+00 0. -1.
        -13    1    3    3    0    0 -0.59514328991E+01  0.11025462998E+03 -0.32114906491E+03  0.33960009552E+03  0.00000000000E+00 0.  1.
         22    1    1    2    0    0 -0.36453112342E+02 -0.37764841029E+03  0.17844697760E+03  0.41927374710E+03  0.00000000000E+00 0.  1.
<mgrwt>
<rscale>  0 0.11462908E+04</rscale>
<asrwt>0</asrwt>
<pdfrwt beam="1">  1        2 0.53006509E-01 0.11462908E+04</pdfrwt>
<pdfrwt beam="2">  1       -2 0.14668095E+00 0.11462908E+04</pdfrwt>
<totfact> 0.29570864E+01</totfact>
</mgrwt>
</event>
<event>
 6    1  0.5026615E-004  0.4945886E+04  0.7818608E-02  0.7836909E-01
         -2   -1    0    0    0  501 -0.00000000000E+00  0.00000000000E+00  0.16526779328E+04  0.16526779328E+04  0.00000000000E+00 0. -1.
          2   -1    0    0  501    0  0.00000000000E+00 -0.00000000000E+00 -0.37003258869E+04  0.37003258869E+04  0.00000000000E+00 0.  1.
         23    2    1    2    0    0  0.48127430647E+03 -0.36019654307E+03 -0.36192581918E+04  0.36703495929E+04  0.10521295923E+03 0.  0.
         11    1    3    3    0    0  0.24966151732E+03 -0.19235712229E+03 -0.15798311150E+04  0.16109619758E+04  0.00000000000E+00 0. -1.
        -11    1    3    3    0    0  0.23161278915E+03 -0.16783942078E+03 -0.20394270769E+04  0.20593876170E+04  0.00000000000E+00 0.  1.
         22    1    1    2    0    0 -0.48127430647E+03  0.36019654307E+03  0.15716102378E+04  0.16826542269E+04  0.00000000000E+00 0. -1.
<mgrwt>
<rscale>  0 0.49458859E+04</rscale>
<asrwt>0</asrwt>
<pdfrwt beam="1">  1        2 0.56928090E+00 0.49458859E+04</pdfrwt>
<pdfrwt beam="2">  1       -2 0.25425814E+00 0.49458859E+04</pdfrwt>
<totfact> 0.25732738E-02</totfact>
</mgrwt>
</event>
<event>
 6    1  0.5026615E-004  0.3058686E+04  0.7818608E-02  0.8227169E-01
          2   -1    0    0  501    0  0.00000000000E+00  0.00000000000E+00  0.11970322840E+04  0.11970322840E+04  0.00000000000E+00 0.  1.
         -2   -1    0    0    0  501 -0.00000000000E+00 -0.00000000000E+00 -0.19539066489E+04  0.19539066489E+04  0.00000000000E+00 0. -1.
         23    2    1    2    0    0  0.58416921022E+03 -0.80577454821E+02  0.10733126697E+04  0.12280944321E+04  0.92029641154E+02 0.  0.
         11    1    3    3    0    0  0.38496756329E+03 -0.72953591603E+02  0.78801499770E+03  0.88005107120E+03  0.00000000000E+00 0. -1.
        -11    1    3    3    0    0  0.19920164692E+03 -0.76238632176E+01  0.28529767202E+03  0.34804336093E+03  0.00000000000E+00 0.  1.
         22    1    1    2    0    0 -0.58416921022E+03  0.80577454821E+02 -0.18301870346E+04  0.19228445007E+04  0.00000000000E+00 0. -1.
<mgrwt>
<rscale>  0 0.30586856E+04</rscale>
<asrwt>0</asrwt>
<pdfrwt beam="1">  1        2 0.18415881E+00 0.30586856E+04</pdfrwt>
<pdfrwt beam="2">  1       -2 0.30060102E+00 0.30586856E+04</pdfrwt>
<totfact> 0.51056736E-01</totfact>
</mgrwt>
</event>
<event>
 6    1  0.5026615E-004  0.3252015E+04  0.7818608E-02  0.8175214E-01
          2   -1    0    0  501    0  0.00000000000E+00  0.00000000000E+00  0.19787688163E+04  0.19787688163E+04  0.00000000000E+00 0.  1.
         -2   -1    0    0    0  501 -0.00000000000E+00 -0.00000000000E+00 -0.13361341653E+04  0.13361341653E+04  0.00000000000E+00 0. -1.
         23    2    1    2    0    0  0.64987510369E+03  0.14100858584E+04  0.80939317093E+03  0.17533370424E+04  0.91617140797E+02 0.  0.
         13    1    3    3    0    0  0.41573318010E+03  0.97074692294E+03  0.51413289284E+03  0.11745281167E+04  0.00000000000E+00 0.  1.
        -13    1    3    3    0    0  0.23414192359E+03  0.43933893550E+03  0.29526027810E+03  0.57880892568E+03  0.00000000000E+00 0. -1.
         22    1    1    2    0    0 -0.64987510369E+03 -0.14100858584E+04 -0.16675851999E+03  0.15615659392E+04  0.00000000000E+00 0.  1.
<mgrwt>
<rscale>  0 0.32520151E+04</rscale>
<asrwt>0</asrwt>
<pdfrwt beam="1">  1        2 0.30442597E+00 0.32520151E+04</pdfrwt>
<pdfrwt beam="2">  1       -2 0.20555910E+00 0.32520151E+04</pdfrwt>
<totfact> 0.70426302E-01</totfact>
</mgrwt>
</event>
<event>
 6    1  0.5026615E-004  0.1977443E+04  0.7818608E-02  0.8617240E-01
          2   -1    0    0  501    0  0.00000000000E+00  0.00000000000E+00  0.11288883301E+04  0.11288883301E+04  0.00000000000E+00 0.  1.
         -2   -1    0    0    0  501 -0.00000000000E+00 -0.00000000000E+00 -0.86595845106E+03  0.86595845106E+03  0.00000000000E+00 0. -1.
         23    2    1    2    0    0  0.40378456749E+03  0.52374938321E+03 -0.60873098686E+03  0.90070416775E+03  0.57958520344E+02 0.  0.
         11    1    3    3    0    0  0.34511152697E+03  0.42920916520E+03 -0.48012039305E+03  0.73064222802E+03  0.00000000000E+00 0.  1.
        -11    1    3    3    0    0  0.58673040522E+02  0.94540218007E+02 -0.12861059381E+03  0.17006193973E+03  0.00000000000E+00 0. -1.
         22    1    1    2    0    0 -0.40378456749E+03 -0.52374938321E+03  0.87166086588E+03  0.10941426134E+04  0.00000000000E+00 0.  1.
<mgrwt>
<rscale>  0 0.19774432E+04</rscale>
<asrwt>0</asrwt>
<pdfrwt beam="1">  1        2 0.17367513E+00 0.19774432E+04</pdfrwt>
<pdfrwt beam="2">  1       -2 0.13322438E+00 0.19774432E+04</pdfrwt>
<totfact> 0.79439621E+00</totfact>
</mgrwt>
</event>
<event>
 6    1  0.5026615E-004  0.3426117E+04  0.7818608E-02  0.8131526E-01
         -2   -1    0    0    0  501 -0.00000000000E+00  0.00000000000E+00  0.12657032285E+04  0.12657032285E+04  0.00000000000E+00 0. -1.
          2   -1    0    0  501    0  0.00000000000E+00 -0.00000000000E+00 -0.23185282134E+04  0.23185282134E+04  0.00000000000E+00 0.  1.
         23    2    1    2    0    0 -0.47138410477E+03  0.10954391382E+04 -0.18117276687E+04  0.21706815973E+04  0.85507729116E+02 0.  0.
         13    1    3    3    0    0 -0.29927469540E+03  0.58857624828E+03 -0.99199823285E+03  0.11916576007E+04  0.00000000000E+00 0.  1.
        -13    1    3    3    0    0 -0.17210940937E+03  0.50686288988E+03 -0.81972943581E+03  0.97902399657E+03  0.00000000000E+00 0. -1.
         22    1    1    2    0    0  0.47138410477E+03 -0.10954391382E+04  0.75890268381E+03  0.14135498446E+04  0.00000000000E+00 0.  1.
<mgrwt>
<rscale>  0 0.34261165E+04</rscale>
<asrwt>0</asrwt>
<pdfrwt beam="1">  1        2 0.35669665E+00 0.34261165E+04</pdfrwt>
<pdfrwt beam="2">  1       -2 0.19472357E+00 0.34261165E+04</pdfrwt>
<totfact> 0.52721334E-01</totfact>
</mgrwt>
</event>
<event>
 6    1  0.5026615E-004  0.3924968E+04  0.7818608E-02  0.8019856E-01
         -2   -1    0    0    0  501 -0.00000000000E+00  0.00000000000E+00  0.27108373073E+04  0.27108373073E+04  0.00000000000E+00 0. -1.
          2   -1    0    0  501    0  0.00000000000E+00 -0.00000000000E+00 -0.14207213164E+04  0.14207213164E+04  0.00000000000E+00 0.  1.
         23    2    1    2    0    0  0.42726436706E+03  0.19063685242E+04  0.82916905813E+03  0.21242549934E+04  0.90233920894E+02 0.  0.
         13    1    3    3    0    0  0.20480571541E+03  0.87994570866E+03  0.43170001492E+03  0.10013065136E+04  0.00000000000E+00 0. -1.
        -13    1    3    3    0    0  0.22245865165E+03  0.10264228156E+04  0.39746904320E+03  0.11229484798E+04  0.00000000000E+00 0.  1.
         22    1    1    2    0    0 -0.42726436706E+03 -0.19063685242E+04  0.46094693283E+03  0.20073036303E+04  0.00000000000E+00 0.  1.
<mgrwt>
<rscale>  0 0.39249685E+04</rscale>
<asrwt>0</asrwt>
<pdfrwt beam="1">  1        2 0.21857251E+00 0.39249685E+04</pdfrwt>
<pdfrwt beam="2">  1       -2 0.41705189E+00 0.39249685E+04</pdfrwt>
<totfact> 0.64050059E-02</totfact>
</mgrwt>
</event>
<event>
 6    1  0.5026615E-004  0.9275556E+03  0.7818608E-02  0.9391776E-01
          2   -1    0    0  501    0  0.00000000000E+00  0.00000000000E+00  0.71538659034E+03  0.71538659034E+03  0.00000000000E+00 0.  1.
         -2   -1    0    0    0  501 -0.00000000000E+00 -0.00000000000E+00 -0.30066238477E+03  0.30066238477E+03  0.00000000000E+00 0. -1.
         23    2    1    2    0    0 -0.32403201213E+03  0.28379128570E+03  0.34713558305E+02  0.44164290728E+03  0.91154745862E+02 0.  0.
         13    1    3    3    0    0 -0.11347910477E+03  0.50795625158E+02  0.28452270874E+02  0.12754306909E+03  0.00000000000E+00 0.  1.
        -13    1    3    3    0    0 -0.21055290736E+03  0.23299566054E+03  0.62612874304E+01  0.31409983819E+03  0.00000000000E+00 0. -1.
         22    1    1    2    0    0  0.32403201213E+03 -0.28379128570E+03  0.38001064727E+03  0.57440606783E+03  0.00000000000E+00 0.  1.
<mgrwt>
<rscale>  0 0.92755558E+03</rscale>
<asrwt>0</asrwt>
<pdfrwt beam="1">  1        2 0.11005947E+00 0.92755558E+03</pdfrwt>
<pdfrwt beam="2">  1       -2 0.46255752E-01 0.92755558E+03</pdfrwt>
<totfact> 0.17691515E+02</totfact>
</mgrwt>
</event>
<event>
 6    1  0.5026615E-004  0.1401696E+03  0.7818608E-02  0.1213101E+00
         -1   -1    0    0    0  501 -0.00000000000E+00  0.00000000000E+00  0.34346149978E+02  0.34346149978E+02  0.00000000000E+00 0.  1.
          1   -1    0    0  501    0  0.00000000000E+00 -0.00000000000E+00 -0.14301099796E+03  0.14301099796E+03  0.00000000000E+00 0. -1.
         23    2    1    2    0    0 -0.18885203987E+01  0.19988930157E+02 -0.12235442414E+03  0.15305635919E+03  0.89735835332E+02 0.  0.
         13    1    3    3    0    0  0.21443090320E+02  0.16248507280E+01 -0.12146217270E+03  0.12335114778E+03  0.00000000000E+00 0.  1.
        -13    1    3    3    0    0 -0.23331610719E+02  0.18364079429E+02 -0.89225144227E+00  0.29705211406E+02  0.00000000000E+00 0. -1.
         22    1    1    2    0    0  0.18885203987E+01 -0.19988930157E+02  0.13689576163E+02  0.24300788746E+02  0.00000000000E+00 0.  1.
<mgrwt>
<rscale>  0 0.14016957E+03</rscale>
<asrwt>0</asrwt>
<pdfrwt beam="1">  1        1 0.22001692E-01 0.14016957E+03</pdfrwt>
<pdfrwt beam="2">  1       -1 0.52840231E-02 0.14016957E+03</pdfrwt>
<totfact> 0.33681948E+04</totfact>
</mgrwt>
</event>
<event>
 6    1  0.5026615E-004  0.3131218E+04  0.7818608E-02  0.8207222E-01
          2   -1    0    0  501    0  0.00000000000E+00  0.00000000000E+00  0.33445058301E+04  0.33445058301E+04  0.00000000000E+00 0.  1.
         -2   -1    0    0    0  501 -0.00000000000E+00 -0.00000000000E+00 -0.73288307135E+03  0.73288307135E+03  0.00000000000E+00 0. -1.
         23    2    1    2    0    0 -0.10865130839E+03 -0.74146682757E+03 -0.48115875200E+03  0.89511367194E+03  0.90202981491E+02 0.  0.
         11    1    3    3    0    0 -0.42018906723E+02 -0.35707741823E+03 -0.17884247250E+03  0.40156506459E+03  0.00000000000E+00 0.  1.
        -11    1    3    3    0    0 -0.66632401669E+02 -0.38438940934E+03 -0.30231627950E+03  0.49354860734E+03  0.00000000000E+00 0. -1.
         22    1    1    2    0    0  0.10865130839E+03  0.74146682757E+03  0.30927815108E+04  0.31822752295E+04  0.00000000000E+00 0.  1.
<mgrwt>
<rscale>  0 0.31312181E+04</rscale>
<asrwt>0</asrwt>
<pdfrwt beam="1">  1        2 0.51453935E+00 0.31312181E+04</pdfrwt>
<pdfrwt beam="2">  1       -2 0.11275124E+00 0.31312181E+04</pdfrwt>
<totfact> 0.54429598E-01</totfact>
</mgrwt>
</event>
<event>
 6    1  0.5026615E-004  0.2034266E+04  0.7818608E-02  0.8590766E-01
          2   -1    0    0  501    0  0.00000000000E+00  0.00000000000E+00  0.39287375359E+04  0.39287375359E+04  0.00000000000E+00 0.  1.
         -2   -1    0    0    0  501 -0.00000000000E+00 -0.00000000000E+00 -0.26333133208E+03  0.26333133208E+03  0.00000000000E+00 0. -1.
         23    2    1    2    0    0 -0.29898200656E+03  0.91929637743E+03  0.24744153851E+04  0.26581343192E+04  0.91926551773E+02 0.  0.
         11    1    3    3    0    0 -0.19688851614E+03  0.46595915097E+03  0.12463964434E+04  0.13451346074E+04  0.00000000000E+00 0. -1.
        -11    1    3    3    0    0 -0.10209349042E+03  0.45333722646E+03  0.12280189417E+04  0.13129997117E+04  0.00000000000E+00 0.  1.
         22    1    1    2    0    0  0.29898200656E+03 -0.91929637743E+03  0.11909908187E+04  0.15339345488E+04  0.00000000000E+00 0. -1.
<mgrwt>
<rscale>  0 0.20342661E+04</rscale>
<asrwt>0</asrwt>
<pdfrwt beam="1">  1        2 0.60442112E+00 0.20342661E+04</pdfrwt>
<pdfrwt beam="2">  1       -2 0.40512515E-01 0.20342661E+04</pdfrwt>
<totfact> 0.21044368E+00</totfact>
</mgrwt>
</event>
<event>
 6    1  0.5026615E-004  0.1045215E+04  0.7818608E-02  0.9260299E-01
         -2   -1    0    0    0  501 -0.00000000000E+00  0.00000000000E+00  0.94703956670E+03  0.94703956670E+03  0.00000000000E+00 0.  1.
          2   -1    0    0  501    0  0.00000000000E+00 -0.00000000000E+00 -0.28839177652E+03  0.28839177652E+03  0.00000000000E+00 0. -1.
         23    2    1    2    0    0 -0.46198051306E+03  0.18798446528E+02  0.60823000915E+03  0.77032777553E+03  0.98395943435E+02 0.  0.
         11    1    3    3    0    0 -0.35317078391E+03  0.23111531014E+02  0.39141042307E+03  0.52769864957E+03  0.00000000000E+00 0.  1.
        -11    1    3    3    0    0 -0.10880972915E+03 -0.43130844857E+01  0.21681958608E+03  0.24262912596E+03  0.00000000000E+00 0. -1.
         22    1    1    2    0    0  0.46198051306E+03 -0.18798446528E+02  0.50417781031E+02  0.46510356770E+03  0.00000000000E+00 0. -1.
<mgrwt>
<rscale>  0 0.10452147E+04</rscale>
<asrwt>0</asrwt>
<pdfrwt beam="1">  1        2 0.44367966E-01 0.10452147E+04</pdfrwt>
<pdfrwt beam="2">  1       -2 0.14569839E+00 0.10452147E+04</pdfrwt>
<totfact> 0.36938010E+01</totfact>
</mgrwt>
</event>
<event>
 6    1  0.5026615E-004  0.2574442E+04  0.7818608E-02  0.8376935E-01
         -2   -1    0    0    0  501 -0.00000000000E+00  0.00000000000E+00  0.42546499269E+03  0.42546499269E+03  0.00000000000E+00 0.  1.
          2   -1    0    0  501    0  0.00000000000E+00 -0.00000000000E+00 -0.38944165983E+04  0.38944165983E+04  0.00000000000E+00 0. -1.
         23    2    1    2    0    0 -0.12236982511E+04 -0.38805785521E+03 -0.16272560972E+04  0.20749164121E+04  0.96381546114E+02 0.  0.
         13    1    3    3    0    0 -0.55769151980E+03 -0.14696282842E+03 -0.79275894889E+03  0.98034925167E+03  0.00000000000E+00 0. -1.
        -13    1    3    3    0    0 -0.66600673133E+03 -0.24109502679E+03 -0.83449714830E+03  0.10945671604E+04  0.00000000000E+00 0.  1.
         22    1    1    2    0    0  0.12236982511E+04  0.38805785521E+03 -0.18416955084E+04  0.22449651789E+04  0.00000000000E+00 0.  1.
<mgrwt>
<rscale>  0 0.25744420E+04</rscale>
<asrwt>0</asrwt>
<pdfrwt beam="1">  1        2 0.59914102E+00 0.25744420E+04</pdfrwt>
<pdfrwt beam="2">  1       -2 0.65456152E-01 0.25744420E+04</pdfrwt>
<totfact> 0.79330368E-01</totfact>
</mgrwt>
</event>
<event>
 6    1  0.5026615E-004  0.8540858E+03  0.7818608E-02  0.9484870E-01
          2   -1    0    0  501    0  0.00000000000E+00  0.00000000000E+00  0.22038507315E+04  0.22038507315E+04  0.00000000000E+00 0.  1.
         -2   -1    0    0    0  501 -0.00000000000E+00 -0.00000000000E+00 -0.82748624748E+02  0.82748624748E+02  0.00000000000E+00 0. -1.
         23    2    1    2    0    0 -0.19516828875E+03  0.37357800380E+03  0.11314867010E+04  0.12109647356E+04  0.92316035625E+02 0.  0.
         11    1    3    3    0    0 -0.55363044287E+02  0.14007771731E+03  0.52570074785E+03  0.54685291427E+03  0.00000000000E+00 0. -1.
        -11    1    3    3    0    0 -0.13980524447E+03  0.23350028649E+03  0.60578595311E+03  0.66411182128E+03  0.00000000000E+00 0.  1.
         22    1    1    2    0    0  0.19516828875E+03 -0.37357800380E+03  0.98961540577E+03  0.10756346207E+04  0.00000000000E+00 0.  1.
<mgrwt>
<rscale>  0 0.85408575E+03</rscale>
<asrwt>0</asrwt>
<pdfrwt beam="1">  1        2 0.33905392E+00 0.85408575E+03</pdfrwt>
<pdfrwt beam="2">  1       -2 0.12730559E-01 0.85408575E+03</pdfrwt>
<totfact> 0.24182352E+02</totfact>
</mgrwt>
</event>
<event>
 6    1  0.5026615E-004  0.3047502E+04  0.7818608E-02  0.8230295E-01
          1   -1    0    0  501    0  0.00000000000E+00  0.00000000000E+00  0.52627682194E+04  0.52627682194E+04  0.00000000000E+00 0.  1.
         -1   -1    0    0    0  501 -0.00000000000E+00 -0.00000000000E+00 -0.44117792888E+03  0.44117792888E+03  0.00000000000E+00 0. -1.
         23    2    1    2    0    0  0.94925417047E+03 -0.40191067736E+03  0.45097708337E+04  0.46269841961E+04  0.91291324836E+02 0.  0.
         11    1    3    3    0    0  0.91347001514E+03 -0.39792003689E+03  0.42827519311E+04  0.43971276906E+04  0.00000000000E+00 0. -1.
        -11    1    3    3    0    0  0.35784155327E+02 -0.39906404695E+01  0.22701890260E+03  0.22985650550E+03  0.00000000000E+00 0.  1.
         22    1    1    2    0    0 -0.94925417047E+03  0.40191067736E+03  0.31181945682E+03  0.10769619521E+04  0.00000000000E+00 0. -1.
<mgrwt>
<rscale>  0 0.30475020E+04</rscale>
<asrwt>0</asrwt>
<pdfrwt beam="1">  1        1 0.80965661E+00 0.30475020E+04</pdfrwt>
<pdfrwt beam="2">  1       -1 0.67873531E-01 0.30475020E+04</pdfrwt>
<totfact> 0.69542623E-03</totfact>
</mgrwt>
</event>
<event>
 6    1  0.5026615E-004  0.6223119E+03  0.7818608E-02  0.9860168E-01
          2   -1    0    0  501    0  0.00000000000E+00  0.00000000000E+00  0.19284567447E+04  0.19284567447E+04  0.00000000000E+00 0.  1.
         -2   -1    0    0    0  501 -0.00000000000E+00 -0.00000000000E+00 -0.50204918186E+02  0.50204918186E+02  0.00000000000E+00 0. -1.
         23    2    1    2    0    0  0.12811268718E+03 -0.19923370962E+03  0.15677778897E+04  0.15881479024E+04  0.90439575929E+02 0.  0.
         11    1    3    3    0    0  0.68231952537E+02 -0.13794069751E+03  0.73282368977E+03  0.74880825026E+03  0.00000000000E+00 0. -1.
        -11    1    3    3    0    0  0.59880734645E+02 -0.61293012107E+02  0.83495419993E+03  0.83933965216E+03  0.00000000000E+00 0.  1.
         22    1    1    2    0    0 -0.12811268718E+03  0.19923370962E+03  0.31047393682E+03  0.39051376046E+03  0.00000000000E+00 0. -1.
<mgrwt>
<rscale>  0 0.62231186E+03</rscale>
<asrwt>0</asrwt>
<pdfrwt beam="1">  1        2 0.29668560E+00 0.62231186E+03</pdfrwt>
<pdfrwt beam="2">  1       -2 0.77238350E-02 0.62231186E+03</pdfrwt>
<totfact> 0.78481360E+02</totfact>
</mgrwt>
</event>
<event>
 6    1  0.5026615E-004  0.2101406E+04  0.7818608E-02  0.8560624E-01
         -2   -1    0    0    0  501 -0.00000000000E+00  0.00000000000E+00  0.15681011305E+04  0.15681011305E+04  0.00000000000E+00 0. -1.
          2   -1    0    0  501    0  0.00000000000E+00 -0.00000000000E+00 -0.70402138966E+03  0.70402138966E+03  0.00000000000E+00 0.  1.
         23    2    1    2    0    0  0.52374895972E+03  0.38435257068E+03 -0.45738122005E+03  0.79960802362E+03  0.90197226019E+02 0.  0.
         13    1    3    3    0    0  0.40718258334E+03  0.26530313174E+03 -0.37435012093E+03  0.61345042255E+03  0.00000000000E+00 0.  1.
        -13    1    3    3    0    0  0.11656637638E+03  0.11904943893E+03 -0.83031099121E+02  0.18615760106E+03  0.00000000000E+00 0. -1.
         22    1    1    2    0    0 -0.52374895972E+03 -0.38435257068E+03  0.13214609609E+04  0.14725144966E+04  0.00000000000E+00 0. -1.
<mgrwt>
<rscale>  0 0.21014059E+04</rscale>
<asrwt>0</asrwt>
<pdfrwt beam="1">  1        2 0.10831098E+00 0.21014059E+04</pdfrwt>
<pdfrwt beam="2">  1       -2 0.24124633E+00 0.21014059E+04</pdfrwt>
<totfact> 0.27266624E+00</totfact>
</mgrwt>
</event>
<event>
 6    1  0.5026615E-004  0.1631920E+04  0.7818608E-02  0.8801175E-01
          2   -1    0    0  501    0  0.00000000000E+00  0.00000000000E+00  0.34144388617E+03  0.34144388617E+03  0.00000000000E+00 0.  1.
         -2   -1    0    0    0  501 -0.00000000000E+00 -0.00000000000E+00 -0.19499271995E+04  0.19499271995E+04  0.00000000000E+00 0. -1.
         23    2    1    2    0    0  0.64820421209E+03 -0.36694750969E+03 -0.12657254914E+04  0.14714307831E+04  0.90710275987E+02 0.  0.
         13    1    3    3    0    0  0.15215157053E+03 -0.43928775798E+02 -0.27376696063E+03  0.31627232963E+03  0.00000000000E+00 0.  1.
        -13    1    3    3    0    0  0.49605264156E+03 -0.32301873390E+03 -0.99195853081E+03  0.11551584534E+04  0.00000000000E+00 0. -1.
         22    1    1    2    0    0 -0.64820421209E+03  0.36694750969E+03 -0.34275782193E+03  0.81994030267E+03  0.00000000000E+00 0. -1.
<mgrwt>
<rscale>  0 0.16319200E+04</rscale>
<asrwt>0</asrwt>
<pdfrwt beam="1">  1        2 0.52529828E-01 0.16319200E+04</pdfrwt>
<pdfrwt beam="2">  1       -2 0.29998880E+00 0.16319200E+04</pdfrwt>
<totfact> 0.28967844E+00</totfact>
</mgrwt>
</event>
<event>
 6    1  0.5026615E-004  0.3593504E+04  0.7818608E-02  0.8091981E-01
         -2   -1    0    0    0  501 -0.00000000000E+00  0.00000000000E+00  0.73268106160E+03  0.73268106160E+03  0.00000000000E+00 0. -1.
          2   -1    0    0  501    0  0.00000000000E+00 -0.00000000000E+00 -0.44061703989E+04  0.44061703989E+04  0.00000000000E+00 0.  1.
         23    2    1    2    0    0 -0.16331165148E+04 -0.51944482145E+03 -0.26043630372E+04  0.31189694048E+04  0.91492321129E+02 0.  0.
         13    1    3    3    0    0 -0.54078217528E+03 -0.21283291648E+03 -0.84787058920E+03  0.10279239989E+04  0.00000000000E+00 0.  1.
        -13    1    3    3    0    0 -0.10923343396E+04 -0.30661190497E+03 -0.17564924480E+04  0.20910454059E+04  0.00000000000E+00 0. -1.
         22    1    1    2    0    0  0.16331165148E+04  0.51944482145E+03 -0.10691263001E+04  0.20198820558E+04  0.00000000000E+00 0. -1.
<mgrwt>
<rscale>  0 0.35935039E+04</rscale>
<asrwt>0</asrwt>
<pdfrwt beam="1">  1        2 0.67787236E+00 0.35935039E+04</pdfrwt>
<pdfrwt beam="2">  1       -2 0.11272016E+00 0.35935039E+04</pdfrwt>
<totfact> 0.76098411E-02</totfact>
</mgrwt>
</event>
<event>
 6    1  0.5026615E-004  0.3476793E+04  0.7818608E-02  0.8119312E-01
          2   -1    0    0  501    0  0.00000000000E+00  0.00000000000E+00  0.21119936509E+04  0.21119936509E+04  0.00000000000E+00 0. -1.
         -2   -1    0    0    0  501 -0.00000000000E+00 -0.00000000000E+00 -0.14308864573E+04  0.14308864573E+04  0.00000000000E+00 0.  1.
         23    2    1    2    0    0 -0.90480573716E+03  0.64245619639E+03 -0.10212036973E+04  0.15108157009E+04  0.91014858835E+02 0.  0.
         11    1    3    3    0    0 -0.27284342575E+03  0.22509411794E+03 -0.37179379580E+03  0.51316812401E+03  0.00000000000E+00 0. -1.
        -11    1    3    3    0    0 -0.63196231141E+03  0.41736207845E+03 -0.64940990149E+03  0.99764757691E+03  0.00000000000E+00 0.  1.
         22    1    1    2    0    0  0.90480573716E+03 -0.64245619639E+03  0.17023108909E+04  0.20320644073E+04  0.00000000000E+00 0. -1.
<mgrwt>
<rscale>  0 0.34767934E+04</rscale>
<asrwt>0</asrwt>
<pdfrwt beam="1">  1        2 0.32492210E+00 0.34767934E+04</pdfrwt>
<pdfrwt beam="2">  1       -2 0.22013638E+00 0.34767934E+04</pdfrwt>
<totfact> 0.46986606E-01</totfact>
</mgrwt>
</event>
<event>
 6    1  0.5026615E-004  0.2492988E+04  0.7818608E-02  0.8405488E-01
          2   -1    0    0  501    0  0.00000000000E+00  0.00000000000E+00  0.19384858244E+04  0.19384858244E+04  0.00000000000E+00 0.  1.
         -2   -1    0    0    0  501 -0.00000000000E+00 -0.00000000000E+00 -0.80152623325E+03  0.80152623325E+03  0.00000000000E+00 0. -1.
         23    2    1    2    0    0  0.40932611638E+03  0.10124479883E+04 -0.87728623422E+02  0.10991403315E+04  0.88398859862E+02 0.  0.
         11    1    3    3    0    0  0.52940584214E+02  0.21984821574E+03 -0.31089497583E+02  0.22825972111E+03  0.00000000000E+00 0.  1.
        -11    1    3    3    0    0  0.35638553217E+03  0.79259977259E+03 -0.56639125839E+02  0.87088061043E+03  0.00000000000E+00 0. -1.
         22    1    1    2    0    0 -0.40932611638E+03 -0.10124479883E+04  0.12246882145E+04  0.16408717261E+04  0.00000000000E+00 0. -1.
<mgrwt>
<rscale>  0 0.24929880E+04</rscale>
<asrwt>0</asrwt>
<pdfrwt beam="1">  1        2 0.29822859E+00 0.24929880E+04</pdfrwt>
<pdfrwt beam="2">  1       -2 0.12331173E+00 0.24929880E+04</pdfrwt>
<totfact> 0.32005127E+00</totfact>
</mgrwt>
</event>
<event>
 6    1  0.9775351E-004  0.2805767E+04  0.7818608E-02  0.8301480E-01
         -2   -1    0    0    0  501 -0.00000000000E+00  0.00000000000E+00  0.65288851463E+03  0.65288851463E+03  0.00000000000E+00 0. -1.
          2   -1    0    0  501    0  0.00000000000E+00 -0.00000000000E+00 -0.30144238509E+04  0.30144238509E+04  0.00000000000E+00 0.  1.
         23    2    1    2    0    0  0.12137074879E+03  0.52186666852E+03  0.51050561187E+03  0.74572120895E+03  0.91697673605E+02 0.  0.
         13    1    3    3    0    0  0.50898081862E+02  0.27243856150E+03  0.20295607107E+03  0.34351790537E+03  0.00000000000E+00 0. -1.
        -13    1    3    3    0    0  0.70472666933E+02  0.24942810702E+03  0.30754954080E+03  0.40220330358E+03  0.00000000000E+00 0.  1.
         22    1    1    2    0    0 -0.12137074879E+03 -0.52186666852E+03 -0.28720409482E+04  0.29215911566E+04  0.00000000000E+00 0.  1.
<mgrwt>
<rscale>  0 0.28057674E+04</rscale>
<asrwt>0</asrwt>
<pdfrwt beam="1">  1        2 0.46375752E+00 0.28057674E+04</pdfrwt>
<pdfrwt beam="2">  1       -2 0.10044439E+00 0.28057674E+04</pdfrwt>
<totfact> 0.12117017E+00</totfact>
</mgrwt>
</event>
<event>
 6    1  0.5026615E-004  0.2922697E+04  0.7818608E-02  0.8266156E-01
          2   -1    0    0  501    0  0.00000000000E+00  0.00000000000E+00  0.18921489599E+04  0.18921489599E+04  0.00000000000E+00 0.  1.
         -2   -1    0    0    0  501 -0.00000000000E+00 -0.00000000000E+00 -0.11286317453E+04  0.11286317453E+04  0.00000000000E+00 0. -1.
         23    2    1    2    0    0  0.45734870469E+03  0.78653134600E+03  0.15622953358E+04  0.18100594810E+04  0.88029611646E+02 0.  0.
         11    1    3    3    0    0  0.82338945456E+02  0.15378096423E+03  0.37153647813E+03  0.41044809840E+03  0.00000000000E+00 0. -1.
        -11    1    3    3    0    0  0.37500975923E+03  0.63275038177E+03  0.11907588577E+04  0.13996113826E+04  0.00000000000E+00 0.  1.
         22    1    1    2    0    0 -0.45734870469E+03 -0.78653134600E+03 -0.79877812119E+03  0.12107212242E+04  0.00000000000E+00 0. -1.
<mgrwt>
<rscale>  0 0.29226970E+04</rscale>
<asrwt>0</asrwt>
<pdfrwt beam="1">  1        2 0.29109984E+00 0.29226970E+04</pdfrwt>
<pdfrwt beam="2">  1       -2 0.17363565E+00 0.29226970E+04</pdfrwt>
<totfact> 0.13274172E+00</totfact>
</mgrwt>
</event>
<event>
 6    1  0.5026615E-004  0.1493748E+04  0.7818608E-02  0.8888621E-01
         -2   -1    0    0    0  501 -0.00000000000E+00  0.00000000000E+00  0.24499404373E+03  0.24499404373E+03  0.00000000000E+00 0. -1.
          2   -1    0    0  501    0  0.00000000000E+00 -0.00000000000E+00 -0.22768755145E+04  0.22768755145E+04  0.00000000000E+00 0.  1.
         23    2    1    2    0    0 -0.29282637309E+03 -0.52737061539E+03 -0.17551717184E+04  0.18582165331E+04  0.92053635483E+02 0.  0.
         13    1    3    3    0    0 -0.19915360717E+03 -0.29156761797E+03 -0.11160271690E+04  0.11705513560E+04  0.00000000000E+00 0.  1.
        -13    1    3    3    0    0 -0.93672765923E+02 -0.23580299742E+03 -0.63914454942E+03  0.68766517704E+03  0.00000000000E+00 0. -1.
         22    1    1    2    0    0  0.29282637309E+03  0.52737061539E+03 -0.27670975232E+03  0.66365302515E+03  0.00000000000E+00 0. -1.
<mgrwt>
<rscale>  0 0.14937482E+04</rscale>
<asrwt>0</asrwt>
<pdfrwt beam="1">  1        2 0.35028853E+00 0.14937482E+04</pdfrwt>
<pdfrwt beam="2">  1       -2 0.37691392E-01 0.14937482E+04</pdfrwt>
<totfact> 0.30041354E+01</totfact>
</mgrwt>
</event>
<event>
 6    1  0.6357314E-004  0.3639726E+04  0.7818608E-02  0.8081452E-01
         -2   -1    0    0    0  501 -0.00000000000E+00  0.00000000000E+00  0.13458788746E+04  0.13458788746E+04  0.00000000000E+00 0. -1.
          2   -1    0    0  501    0  0.00000000000E+00 -0.00000000000E+00 -0.24607720234E+04  0.24607720234E+04  0.00000000000E+00 0.  1.
         23    2    1    2    0    0 -0.94721547121E+03  0.76839280788E+03 -0.19687642686E+04  0.23177786586E+04  0.91763330204E+02 0.  0.
         13    1    3    3    0    0 -0.47372299266E+03  0.40132763456E+03 -0.91861341514E+03  0.11087506259E+04  0.00000000000E+00 0.  1.
        -13    1    3    3    0    0 -0.47349247856E+03  0.36706517332E+03 -0.10501508535E+04  0.12090280327E+04  0.00000000000E+00 0. -1.
         22    1    1    2    0    0  0.94721547121E+03 -0.76839280788E+03  0.85387111983E+03  0.14888722394E+04  0.00000000000E+00 0. -1.
<mgrwt>
<rscale>  0 0.36397259E+04</rscale>
<asrwt>0</asrwt>
<pdfrwt beam="1">  1        2 0.37858031E+00 0.36397259E+04</pdfrwt>
<pdfrwt beam="2">  1       -2 0.20705829E+00 0.36397259E+04</pdfrwt>
<totfact> 0.35644253E-01</totfact>
</mgrwt>
</event>
<event>
 6    1  0.5026615E-004  0.2074357E+04  0.7818608E-02  0.8572624E-01
         -2   -1    0    0    0  501 -0.00000000000E+00  0.00000000000E+00  0.68852513218E+03  0.68852513218E+03  0.00000000000E+00 0. -1.
          2   -1    0    0  501    0  0.00000000000E+00 -0.00000000000E+00 -0.15623821329E+04  0.15623821329E+04  0.00000000000E+00 0.  1.
         23    2    1    2    0    0  0.78076944955E+03 -0.41448723759E+03 -0.10223329217E+04  0.13545559374E+04  0.90865732811E+02 0.  0.
         11    1    3    3    0    0  0.24592243122E+03 -0.16389188492E+03 -0.29444515870E+03  0.41717663358E+03  0.00000000000E+00 0.  1.
        -11    1    3    3    0    0  0.53484701833E+03 -0.25059535267E+03 -0.72788776299E+03  0.93737930386E+03  0.00000000000E+00 0. -1.
         22    1    1    2    0    0 -0.78076944955E+03  0.41448723759E+03  0.14847592097E+03  0.89635132765E+03  0.00000000000E+00 0. -1.
<mgrwt>
<rscale>  0 0.20743571E+04</rscale>
<asrwt>0</asrwt>
<pdfrwt beam="1">  1        2 0.24036648E+00 0.20743571E+04</pdfrwt>
<pdfrwt beam="2">  1       -2 0.10592694E+00 0.20743571E+04</pdfrwt>
<totfact> 0.77817519E+00</totfact>
</mgrwt>
</event>
<event>
 6    1  0.5026615E-004  0.4640945E+04  0.7818608E-02  0.7886416E-01
          2   -1    0    0  501    0  0.00000000000E+00  0.00000000000E+00  0.31723359465E+04  0.31723359465E+04  0.00000000000E+00 0.  1.
         -2   -1    0    0    0  501 -0.00000000000E+00 -0.00000000000E+00 -0.16973587160E+04  0.16973587160E+04  0.00000000000E+00 0. -1.
         23    2    1    2    0    0 -0.20567906910E+03  0.25967635742E+03  0.31467684296E+04  0.31653996459E+04  0.88699934246E+02 0.  0.
         11    1    3    3    0    0 -0.11067756145E+03  0.13186015026E+03  0.20371494688E+04  0.20444105703E+04  0.00000000000E+00 0. -1.
        -11    1    3    3    0    0 -0.95001507647E+02  0.12781620716E+03  0.11096189608E+04  0.11209890756E+04  0.00000000000E+00 0.  1.
         22    1    1    2    0    0  0.20567906910E+03 -0.25967635742E+03 -0.16717911991E+04  0.17042950166E+04  0.00000000000E+00 0. -1.
<mgrwt>
<rscale>  0 0.46409448E+04</rscale>
<asrwt>0</asrwt>
<pdfrwt beam="1">  1        2 0.48805168E+00 0.46409448E+04</pdfrwt>
<pdfrwt beam="2">  1       -2 0.26113211E+00 0.46409448E+04</pdfrwt>
<totfact> 0.55551489E-02</totfact>
</mgrwt>
</event>
<event>
 6    1  0.5026615E-004  0.1677205E+04  0.7818608E-02  0.8774473E-01
         -2   -1    0    0    0  501 -0.00000000000E+00  0.00000000000E+00  0.23269146100E+04  0.23269146100E+04  0.00000000000E+00 0. -1.
          2   -1    0    0  501    0  0.00000000000E+00 -0.00000000000E+00 -0.30222587328E+03  0.30222587328E+03  0.00000000000E+00 0.  1.
         23    2    1    2    0    0 -0.67876003911E+03 -0.82257020417E+02  0.26109576010E+03  0.73764858657E+03  0.92049080598E+02 0.  0.
         11    1    3    3    0    0 -0.10510739274E+03  0.13444586676E+02  0.62886920731E+02  0.12321966449E+03  0.00000000000E+00 0. -1.
        -11    1    3    3    0    0 -0.57365264637E+03 -0.95701607093E+02  0.19820883937E+03  0.61442892208E+03  0.00000000000E+00 0.  1.
         22    1    1    2    0    0  0.67876003911E+03  0.82257020417E+02  0.17635929766E+04  0.18914918967E+04  0.00000000000E+00 0.  1.
<mgrwt>
<rscale>  0 0.16772046E+04</rscale>
<asrwt>0</asrwt>
<pdfrwt beam="1">  1        2 0.46496290E-01 0.16772046E+04</pdfrwt>
<pdfrwt beam="2">  1       -2 0.35798685E+00 0.16772046E+04</pdfrwt>
<totfact> 0.14450690E+00</totfact>
</mgrwt>
</event>
<event>
 6    1  0.5026615E-004  0.4295606E+04  0.7818608E-02  0.7947431E-01
          2   -1    0    0  501    0  0.00000000000E+00  0.00000000000E+00  0.46332274864E+04  0.46332274864E+04  0.00000000000E+00 0.  1.
         -2   -1    0    0    0  501 -0.00000000000E+00 -0.00000000000E+00 -0.99564670652E+03  0.99564670652E+03  0.00000000000E+00 0. -1.
         23    2    1    2    0    0  0.92711750281E+03 -0.10409646706E+04 -0.31991058264E+03  0.14330557753E+04  0.90287123418E+02 0.  0.
         11    1    3    3    0    0  0.28236443115E+03 -0.26720568467E+03 -0.65373327210E+02  0.39421088494E+03  0.00000000000E+00 0. -1.
        -11    1    3    3    0    0  0.64475307166E+03 -0.77375898596E+03 -0.25453725543E+03  0.10388448903E+04  0.00000000000E+00 0.  1.
         22    1    1    2    0    0 -0.92711750281E+03  0.10409646706E+04  0.39574913625E+04  0.41958184176E+04  0.00000000000E+00 0.  1.
<mgrwt>
<rscale>  0 0.42956060E+04</rscale>
<asrwt>0</asrwt>
<pdfrwt beam="1">  1        2 0.71280422E+00 0.42956060E+04</pdfrwt>
<pdfrwt beam="2">  1       -2 0.15317642E+00 0.42956060E+04</pdfrwt>
<totfact> 0.19524597E-02</totfact>
</mgrwt>
</event>
<event>
 6    1  0.5026615E-004  0.9759646E+03  0.7818608E-02  0.9335306E-01
         -2   -1    0    0    0  501 -0.00000000000E+00  0.00000000000E+00  0.26442943454E+03  0.26442943454E+03  0.00000000000E+00 0. -1.
          2   -1    0    0  501    0  0.00000000000E+00 -0.00000000000E+00 -0.90053035173E+03  0.90053035173E+03  0.00000000000E+00 0.  1.
         23    2    1    2    0    0  0.14414765075E+03 -0.24368492373E+03 -0.78906916990E+03  0.84315212073E+03  0.90080278268E+02 0.  0.
         13    1    3    3    0    0  0.20786514743E+02 -0.10911942084E+03 -0.36315045320E+03  0.37975963300E+03  0.00000000000E+00 0. -1.
        -13    1    3    3    0    0  0.12336113601E+03 -0.13456550288E+03 -0.42591871671E+03  0.46339248773E+03  0.00000000000E+00 0.  1.
         22    1    1    2    0    0 -0.14414765075E+03  0.24368492373E+03  0.15296825271E+03  0.32180766555E+03  0.00000000000E+00 0. -1.
<mgrwt>
<rscale>  0 0.97596461E+03</rscale>
<asrwt>0</asrwt>
<pdfrwt beam="1">  1        2 0.13854313E+00 0.97596461E+03</pdfrwt>
<pdfrwt beam="2">  1       -2 0.40681451E-01 0.97596461E+03</pdfrwt>
<totfact> 0.16741997E+02</totfact>
</mgrwt>
</event>
<event>
 6    1  0.5026615E-004  0.1237780E+04  0.7818608E-02  0.9080416E-01
         -2   -1    0    0    0  501 -0.00000000000E+00  0.00000000000E+00  0.85450313182E+02  0.85450313182E+02  0.00000000000E+00 0. -1.
          2   -1    0    0  501    0  0.00000000000E+00 -0.00000000000E+00 -0.44824242879E+04  0.44824242879E+04  0.00000000000E+00 0.  1.
         23    2    1    2    0    0 -0.47825082678E+03 -0.26139974642E+03 -0.32660307169E+04  0.33124518304E+04  0.91251324767E+02 0.  0.
         13    1    3    3    0    0 -0.26478748451E+03 -0.19118385535E+03 -0.20450980418E+04  0.20710117525E+04  0.00000000000E+00 0. -1.
        -13    1    3    3    0    0 -0.21346334227E+03 -0.70215891061E+02 -0.12209326751E+04  0.12414400779E+04  0.00000000000E+00 0.  1.
         22    1    1    2    0    0  0.47825082678E+03  0.26139974642E+03 -0.11309432579E+04  0.12554227707E+04  0.00000000000E+00 0. -1.
<mgrwt>
<rscale>  0 0.12377796E+04</rscale>
<asrwt>0</asrwt>
<pdfrwt beam="1">  1        2 0.68960372E+00 0.12377796E+04</pdfrwt>
<pdfrwt beam="2">  1       -2 0.13146202E-01 0.12377796E+04</pdfrwt>
<totfact> 0.58284176E+00</totfact>
</mgrwt>
</event>
<event>
 6    1  0.5026615E-004  0.2801386E+04  0.7818608E-02  0.8302838E-01
          2   -1    0    0  501    0  0.00000000000E+00  0.00000000000E+00  0.15841594745E+04  0.15841594745E+04  0.00000000000E+00 0.  1.
         -2   -1    0    0    0  501 -0.00000000000E+00 -0.00000000000E+00 -0.12384745548E+04  0.12384745548E+04  0.00000000000E+00 0. -1.
         23    2    1    2    0    0  0.77332425743E+03 -0.10324941578E+04 -0.37371171173E+03  0.13456079271E+04  0.83220531780E+02 0.  0.
         13    1    3    3    0    0  0.63232679303E+03 -0.82704312363E+03 -0.33361508260E+03  0.10932229987E+04  0.00000000000E+00 0. -1.
        -13    1    3    3    0    0  0.14099746441E+03 -0.20545103420E+03 -0.40096629129E+02  0.25238492842E+03  0.00000000000E+00 0.  1.
         22    1    1    2    0    0 -0.77332425743E+03  0.10324941578E+04  0.71939663146E+03  0.14770261022E+04  0.00000000000E+00 0.  1.
<mgrwt>
<rscale>  0 0.28013862E+04</rscale>
<asrwt>0</asrwt>
<pdfrwt beam="1">  1        2 0.24371684E+00 0.28013862E+04</pdfrwt>
<pdfrwt beam="2">  1       -2 0.19053455E+00 0.28013862E+04</pdfrwt>
<totfact> 0.15225680E+00</totfact>
</mgrwt>
</event>
<event>
 6    1  0.7723181E-004  0.2261335E+04  0.7818608E-02  0.8493324E-01
         -2   -1    0    0    0  501 -0.00000000000E+00  0.00000000000E+00  0.78089259804E+03  0.78089259804E+03  0.00000000000E+00 0. -1.
          2   -1    0    0  501    0  0.00000000000E+00 -0.00000000000E+00 -0.16371121453E+04  0.16371121453E+04  0.00000000000E+00 0.  1.
         23    2    1    2    0    0 -0.14919403967E+03 -0.33394030975E+03  0.71299560586E+03  0.80672848249E+03  0.93129579251E+02 0.  0.
         11    1    3    3    0    0 -0.16149105228E+03 -0.29737363456E+03  0.62739032704E+03  0.71283171995E+03  0.00000000000E+00 0. -1.
        -11    1    3    3    0    0  0.12297012615E+02 -0.36566675192E+02  0.85605278820E+02  0.93896762541E+02  0.00000000000E+00 0.  1.
         22    1    1    2    0    0  0.14919403967E+03  0.33394030975E+03 -0.15692151531E+04  0.16112762608E+04  0.00000000000E+00 0.  1.
<mgrwt>
<rscale>  0 0.22613348E+04</rscale>
<asrwt>0</asrwt>
<pdfrwt beam="1">  1        2 0.25186340E+00 0.22613348E+04</pdfrwt>
<pdfrwt beam="2">  1       -2 0.12013732E+00 0.22613348E+04</pdfrwt>
<totfact> 0.51204123E+00</totfact>
</mgrwt>
</event>
<event>
 6    1  0.5026615E-004  0.2560900E+04  0.7818608E-02  0.8381605E-01
          2   -1    0    0  501    0  0.00000000000E+00  0.00000000000E+00  0.30714647206E+04  0.30714647206E+04  0.00000000000E+00 0.  1.
         -2   -1    0    0    0  501 -0.00000000000E+00 -0.00000000000E+00 -0.53380128074E+03  0.53380128074E+03  0.00000000000E+00 0. -1.
         23    2    1    2    0    0 -0.24561495647E+03  0.44260101902E+03  0.29237384379E+04  0.29686528747E+04  0.91820849650E+02 0.  0.
         13    1    3    3    0    0 -0.19458938232E+03  0.37584624061E+03  0.22263885059E+04  0.22662592975E+04  0.00000000000E+00 0.  1.
        -13    1    3    3    0    0 -0.51025574155E+02  0.66754778412E+02  0.69734993200E+03  0.70239357722E+03  0.00000000000E+00 0. -1.
         22    1    1    2    0    0  0.24561495647E+03 -0.44260101902E+03 -0.38607499804E+03  0.63661312662E+03  0.00000000000E+00 0. -1.
<mgrwt>
<rscale>  0 0.25608997E+04</rscale>
<asrwt>0</asrwt>
<pdfrwt beam="1">  1        2 0.47253302E+00 0.25608997E+04</pdfrwt>
<pdfrwt beam="2">  1       -2 0.82123276E-01 0.25608997E+04</pdfrwt>
<totfact> 0.18146074E+00</totfact>
</mgrwt>
</event>
<event>
 6    1  0.5026615E-004  0.3931129E+04  0.7818608E-02  0.8018586E-01
         -2   -1    0    0    0  501 -0.00000000000E+00  0.00000000000E+00  0.19502655434E+04  0.19502655434E+04  0.00000000000E+00 0. -1.
          2   -1    0    0  501    0  0.00000000000E+00 -0.00000000000E+00 -0.19809837053E+04  0.19809837053E+04  0.00000000000E+00 0.  1.
         23    2    1    2    0    0 -0.16254605052E+04 -0.79113782617E+03 -0.78449203449E+03  0.19726283142E+04  0.88395701507E+02 0.  0.
         13    1    3    3    0    0 -0.53352716226E+03 -0.30131609537E+03 -0.24537778242E+03  0.66004005811E+03  0.00000000000E+00 0. -1.
        -13    1    3    3    0    0 -0.10919333429E+04 -0.48982173080E+03 -0.53911425207E+03  0.13125882561E+04  0.00000000000E+00 0.  1.
         22    1    1    2    0    0  0.16254605052E+04  0.79113782617E+03  0.75377387264E+03  0.19586209345E+04  0.00000000000E+00 0. -1.
<mgrwt>
<rscale>  0 0.39311292E+04</rscale>
<asrwt>0</asrwt>
<pdfrwt beam="1">  1        2 0.30476672E+00 0.39311292E+04</pdfrwt>
<pdfrwt beam="2">  1       -2 0.30004085E+00 0.39311292E+04</pdfrwt>
<totfact> 0.17251257E-01</totfact>
</mgrwt>
</event>
<event>
 6    1  0.5026615E-004  0.4133002E+04  0.7818608E-02  0.7978240E-01
          1   -1    0    0  501    0  0.00000000000E+00  0.00000000000E+00  0.32250747819E+04  0.32250747819E+04  0.00000000000E+00 0.  1.
         -1   -1    0    0    0  501 -0.00000000000E+00 -0.00000000000E+00 -0.13241323545E+04  0.13241323545E+04  0.00000000000E+00 0. -1.
         23    2    1    2    0    0  0.79016657854E+03 -0.19080876507E+04  0.90707231120E+03  0.22572779245E+04  0.85800618368E+02 0.  0.
         13    1    3    3    0    0  0.25157306157E+03 -0.70825328082E+03  0.31379492425E+03  0.81448079756E+03  0.00000000000E+00 0. -1.
        -13    1    3    3    0    0  0.53859351697E+03 -0.11998343699E+04  0.59327738695E+03  0.14427971269E+04  0.00000000000E+00 0.  1.
         22    1    1    2    0    0 -0.79016657854E+03  0.19080876507E+04  0.99387011623E+03  0.22919292119E+04  0.00000000000E+00 0.  1.
<mgrwt>
<rscale>  0 0.41330017E+04</rscale>
<asrwt>0</asrwt>
<pdfrwt beam="1">  1        1 0.49616535E+00 0.41330017E+04</pdfrwt>
<pdfrwt beam="2">  1       -1 0.20371267E+00 0.41330017E+04</pdfrwt>
<totfact> 0.44677618E-02</totfact>
</mgrwt>
</event>
<event>
 6    1  0.5026615E-004  0.3397744E+04  0.7818608E-02  0.8138460E-01
         -2   -1    0    0    0  501 -0.00000000000E+00  0.00000000000E+00  0.24129207852E+04  0.24129207852E+04  0.00000000000E+00 0. -1.
          2   -1    0    0  501    0  0.00000000000E+00 -0.00000000000E+00 -0.11961294781E+04  0.11961294781E+04  0.00000000000E+00 0.  1.
         23    2    1    2    0    0  0.71991785421E+03  0.11649755969E+04 -0.45686266484E+03  0.14465129860E+04  0.90699867450E+02 0.  0.
         11    1    3    3    0    0  0.16355519856E+03  0.30720032832E+03 -0.15065967093E+03  0.37923697227E+03  0.00000000000E+00 0. -1.
        -11    1    3    3    0    0  0.55636265565E+03  0.85777526860E+03 -0.30620299391E+03  0.10672760137E+04  0.00000000000E+00 0.  1.
         22    1    1    2    0    0 -0.71991785421E+03 -0.11649755969E+04  0.16736539719E+04  0.21625372773E+04  0.00000000000E+00 0. -1.
<mgrwt>
<rscale>  0 0.33977438E+04</rscale>
<asrwt>0</asrwt>
<pdfrwt beam="1">  1        2 0.18401992E+00 0.33977438E+04</pdfrwt>
<pdfrwt beam="2">  1       -2 0.37121858E+00 0.33977438E+04</pdfrwt>
<totfact> 0.17980717E-01</totfact>
</mgrwt>
</event>
<event>
 6    1  0.5026615E-004  0.2988458E+04  0.7818608E-02  0.8247034E-01
         -2   -1    0    0    0  501 -0.00000000000E+00  0.00000000000E+00  0.17385686220E+04  0.17385686220E+04  0.00000000000E+00 0. -1.
          2   -1    0    0  501    0  0.00000000000E+00 -0.00000000000E+00 -0.12842294245E+04  0.12842294245E+04  0.00000000000E+00 0.  1.
         23    2    1    2    0    0 -0.45513863230E+03  0.14910318321E+03 -0.12027757645E+04  0.12978595168E+04  0.91579756161E+02 0.  0.
         11    1    3    3    0    0 -0.42497895260E+03  0.16193454526E+03 -0.11169149131E+04  0.12059555673E+04  0.00000000000E+00 0.  1.
        -11    1    3    3    0    0 -0.30159679693E+02 -0.12831362049E+02 -0.85860851437E+02  0.91903949538E+02  0.00000000000E+00 0. -1.
         22    1    1    2    0    0  0.45513863230E+03 -0.14910318321E+03  0.16571149620E+04  0.17249385297E+04  0.00000000000E+00 0. -1.
<mgrwt>
<rscale>  0 0.29884585E+04</rscale>
<asrwt>0</asrwt>
<pdfrwt beam="1">  1        2 0.19757376E+00 0.29884585E+04</pdfrwt>
<pdfrwt beam="2">  1       -2 0.26747210E+00 0.29884585E+04</pdfrwt>
<totfact> 0.72662995E-01</totfact>
</mgrwt>
</event>
<event>
 6    1  0.5026615E-004  0.2789976E+04  0.7818608E-02  0.8306387E-01
         -2   -1    0    0    0  501 -0.00000000000E+00  0.00000000000E+00  0.90681611369E+03  0.90681611369E+03  0.00000000000E+00 0. -1.
          2   -1    0    0  501    0  0.00000000000E+00 -0.00000000000E+00 -0.21459602969E+04  0.21459602969E+04  0.00000000000E+00 0.  1.
         23    2    1    2    0    0 -0.12670476529E+04 -0.40435506219E+03 -0.10755518212E+04  0.17127483392E+04  0.88217812770E+02 0.  0.
         11    1    3    3    0    0 -0.23082539495E+03 -0.84575876569E+02 -0.15813321612E+03  0.29230045483E+03  0.00000000000E+00 0.  1.
        -11    1    3    3    0    0 -0.10362222579E+04 -0.31977918562E+03 -0.91741860507E+03  0.14204478844E+04  0.00000000000E+00 0. -1.
         22    1    1    2    0    0  0.12670476529E+04  0.40435506219E+03 -0.16359236196E+03  0.13400280713E+04  0.00000000000E+00 0. -1.
<mgrwt>
<rscale>  0 0.27899759E+04</rscale>
<asrwt>0</asrwt>
<pdfrwt beam="1">  1        2 0.33014773E+00 0.27899759E+04</pdfrwt>
<pdfrwt beam="2">  1       -2 0.13951017E+00 0.27899759E+04</pdfrwt>
<totfact> 0.17479427E+00</totfact>
</mgrwt>
</event>
<event>
 6    1  0.5026615E-004  0.4051337E+04  0.7818608E-02  0.7994270E-01
          2   -1    0    0  501    0  0.00000000000E+00  0.00000000000E+00  0.47382024132E+04  0.47382024132E+04  0.00000000000E+00 0.  1.
         -2   -1    0    0    0  501 -0.00000000000E+00 -0.00000000000E+00 -0.86601032235E+03  0.86601032235E+03  0.00000000000E+00 0. -1.
         23    2    1    2    0    0  0.19920370490E+04 -0.11061206897E+03  0.24137549002E+04  0.31328799628E+04  0.90980815905E+02 0.  0.
         13    1    3    3    0    0  0.27217346476E+03 -0.44346802178E+02  0.31557563806E+03  0.41908593047E+03  0.00000000000E+00 0. -1.
        -13    1    3    3    0    0  0.17198635843E+04 -0.66265266791E+02  0.20981792621E+04  0.27137940323E+04  0.00000000000E+00 0.  1.
         22    1    1    2    0    0 -0.19920370490E+04  0.11061206897E+03  0.14584371907E+04  0.24713327728E+04  0.00000000000E+00 0.  1.
<mgrwt>
<rscale>  0 0.40513367E+04</rscale>
<asrwt>0</asrwt>
<pdfrwt beam="1">  1        2 0.72895421E+00 0.40513367E+04</pdfrwt>
<pdfrwt beam="2">  1       -2 0.13323236E+00 0.40513367E+04</pdfrwt>
<totfact> 0.22146807E-02</totfact>
</mgrwt>
</event>
<event>
 6    1  0.5026615E-004  0.2436577E+04  0.7818608E-02  0.8425935E-01
         -2   -1    0    0    0  501 -0.00000000000E+00  0.00000000000E+00  0.91149778132E+03  0.91149778132E+03  0.00000000000E+00 0. -1.
          2   -1    0    0  501    0  0.00000000000E+00 -0.00000000000E+00 -0.16283389042E+04  0.16283389042E+04  0.00000000000E+00 0.  1.
         23    2    1    2    0    0  0.63431875854E+03  0.53907824084E+03  0.56580425470E+03  0.10107373422E+04  0.92140561335E+02 0.  0.
         13    1    3    3    0    0  0.66943547403E+02  0.56091688762E+02  0.96474283620E+02  0.13013455916E+03  0.00000000000E+00 0. -1.
        -13    1    3    3    0    0  0.56737521113E+03  0.48298655208E+03  0.46932997108E+03  0.88060278301E+03  0.00000000000E+00 0.  1.
         22    1    1    2    0    0 -0.63431875854E+03 -0.53907824084E+03 -0.12826453776E+04  0.15290993433E+04  0.00000000000E+00 0.  1.
<mgrwt>
<rscale>  0 0.24365774E+04</rscale>
<asrwt>0</asrwt>
<pdfrwt beam="1">  1        2 0.25051367E+00 0.24365774E+04</pdfrwt>
<pdfrwt beam="2">  1       -2 0.14023043E+00 0.24365774E+04</pdfrwt>
<totfact> 0.34480018E+00</totfact>
</mgrwt>
</event>
<event>
 6    1  0.5026615E-004  0.2163159E+04  0.7818608E-02  0.8533921E-01
         -2   -1    0    0    0  501 -0.00000000000E+00  0.00000000000E+00  0.81275779990E+03  0.81275779990E+03  0.00000000000E+00 0. -1.
          2   -1    0    0  501    0  0.00000000000E+00 -0.00000000000E+00 -0.14393143498E+04  0.14393143498E+04  0.00000000000E+00 0.  1.
         23    2    1    2    0    0  0.46639801759E+03  0.74515748786E+03 -0.96658154325E+03  0.13095204064E+04  0.88187428891E+02 0.  0.
         13    1    3    3    0    0  0.29650782915E+03  0.51526842567E+03 -0.59973711864E+03  0.84445429403E+03  0.00000000000E+00 0. -1.
        -13    1    3    3    0    0  0.16989018844E+03  0.22988906219E+03 -0.36684442462E+03  0.46506611242E+03  0.00000000000E+00 0.  1.
         22    1    1    2    0    0 -0.46639801759E+03 -0.74515748786E+03  0.34002499339E+03  0.94255174323E+03  0.00000000000E+00 0. -1.
<mgrwt>
<rscale>  0 0.21631588E+04</rscale>
<asrwt>0</asrwt>
<pdfrwt beam="1">  1        2 0.22143297E+00 0.21631588E+04</pdfrwt>
<pdfrwt beam="2">  1       -2 0.12503966E+00 0.21631588E+04</pdfrwt>
<totfact> 0.60367988E+00</totfact>
</mgrwt>
</event>
<event>
 6    1  0.5026615E-004  0.1613978E+04  0.7818608E-02  0.8812007E-01
         -2   -1    0    0    0  501 -0.00000000000E+00  0.00000000000E+00  0.28540021181E+03  0.28540021181E+03  0.00000000000E+00 0. -1.
          2   -1    0    0  501    0  0.00000000000E+00 -0.00000000000E+00 -0.22818175819E+04  0.22818175819E+04  0.00000000000E+00 0.  1.
         23    2    1    2    0    0 -0.49737005108E+03 -0.63077968282E+03 -0.93358006710E+03  0.12349704036E+04  0.91215020676E+02 0.  0.
         11    1    3    3    0    0 -0.26732072725E+03 -0.40840798503E+03 -0.54554983139E+03  0.73203966558E+03  0.00000000000E+00 0.  1.
        -11    1    3    3    0    0 -0.23004932383E+03 -0.22237169779E+03 -0.38803023571E+03  0.50293073798E+03  0.00000000000E+00 0. -1.
         22    1    1    2    0    0  0.49737005108E+03  0.63077968282E+03 -0.10628373030E+04  0.13322473902E+04  0.00000000000E+00 0. -1.
<mgrwt>
<rscale>  0 0.16139780E+04</rscale>
<asrwt>0</asrwt>
<pdfrwt beam="1">  1        2 0.35104886E+00 0.16139780E+04</pdfrwt>
<pdfrwt beam="2">  1       -2 0.43907725E-01 0.16139780E+04</pdfrwt>
<totfact> 0.21897611E+01</totfact>
</mgrwt>
</event>
<event>
 6    1  0.5026615E-004  0.2087190E+04  0.7818608E-02  0.8566907E-01
          2   -1    0    0  501    0  0.00000000000E+00  0.00000000000E+00  0.25417666772E+04  0.25417666772E+04  0.00000000000E+00 0.  1.
         -2   -1    0    0    0  501 -0.00000000000E+00 -0.00000000000E+00 -0.42847785592E+03  0.42847785592E+03  0.00000000000E+00 0. -1.
         23    2    1    2    0    0  0.10344496071E+04 -0.31732905909E+02  0.88812371102E+03  0.13664607215E+04  0.85780011224E+02 0.  0.
         11    1    3    3    0    0  0.87180054164E+03 -0.34433921932E+02  0.70667955531E+03  0.11227724049E+04  0.00000000000E+00 0.  1.
        -11    1    3    3    0    0  0.16264906550E+03  0.27010160232E+01  0.18144415571E+03  0.24368831658E+03  0.00000000000E+00 0. -1.
         22    1    1    2    0    0 -0.10344496071E+04  0.31732905909E+02  0.12251651103E+04  0.16037838116E+04  0.00000000000E+00 0.  1.
<mgrwt>
<rscale>  0 0.20871902E+04</rscale>
<asrwt>0</asrwt>
<pdfrwt beam="1">  1        2 0.39104102E+00 0.20871902E+04</pdfrwt>
<pdfrwt beam="2">  1       -2 0.65919672E-01 0.20871902E+04</pdfrwt>
<totfact> 0.64344220E+00</totfact>
</mgrwt>
</event>
<event>
 6    1  0.7255499E-004  0.2788973E+04  0.7818608E-02  0.8306700E-01
         -2   -1    0    0    0  501 -0.00000000000E+00  0.00000000000E+00  0.14560391987E+04  0.14560391987E+04  0.00000000000E+00 0. -1.
          2   -1    0    0  501    0  0.00000000000E+00 -0.00000000000E+00 -0.13355363133E+04  0.13355363133E+04  0.00000000000E+00 0.  1.
         23    2    1    2    0    0  0.25675533082E+03  0.49752700695E+03 -0.12164016361E+04  0.13421721444E+04  0.91305544502E+02 0.  0.
         11    1    3    3    0    0  0.16101692714E+03  0.25057527688E+03 -0.55852803955E+03  0.63298340513E+03  0.00000000000E+00 0. -1.
        -11    1    3    3    0    0  0.95738403679E+02  0.24695173006E+03 -0.65787359654E+03  0.70918873930E+03  0.00000000000E+00 0.  1.
         22    1    1    2    0    0 -0.25675533082E+03 -0.49752700695E+03  0.13369045215E+04  0.14494033676E+04  0.00000000000E+00 0. -1.
<mgrwt>
<rscale>  0 0.27889734E+04</rscale>
<asrwt>0</asrwt>
<pdfrwt beam="1">  1        2 0.20546712E+00 0.27889734E+04</pdfrwt>
<pdfrwt beam="2">  1       -2 0.22400603E+00 0.27889734E+04</pdfrwt>
<totfact> 0.12800633E+00</totfact>
</mgrwt>
</event>
<event>
 6    1  0.5026615E-004  0.2040138E+04  0.7818608E-02  0.8588081E-01
         -2   -1    0    0    0  501 -0.00000000000E+00  0.00000000000E+00  0.69856416442E+03  0.69856416442E+03  0.00000000000E+00 0. -1.
          2   -1    0    0  501    0  0.00000000000E+00 -0.00000000000E+00 -0.14895427737E+04  0.14895427737E+04  0.00000000000E+00 0.  1.
         23    2    1    2    0    0  0.23003365599E+03  0.65534753893E+03  0.40253765035E+03  0.80720978711E+03  0.84588419950E+02 0.  0.
         13    1    3    3    0    0  0.10753737353E+03  0.42198711308E+03  0.23383924549E+03  0.49428554808E+03  0.00000000000E+00 0. -1.
        -13    1    3    3    0    0  0.12249628247E+03  0.23336042585E+03  0.16869840486E+03  0.31292423903E+03  0.00000000000E+00 0.  1.
         22    1    1    2    0    0 -0.23003365599E+03 -0.65534753893E+03 -0.11935162596E+04  0.13808971510E+04  0.00000000000E+00 0.  1.
<mgrwt>
<rscale>  0 0.20401384E+04</rscale>
<asrwt>0</asrwt>
<pdfrwt beam="1">  1        2 0.22916042E+00 0.20401384E+04</pdfrwt>
<pdfrwt beam="2">  1       -2 0.10747141E+00 0.20401384E+04</pdfrwt>
<totfact> 0.82833356E+00</totfact>
</mgrwt>
</event>
<event>
 6    1  0.5026615E-004  0.2441808E+04  0.7818608E-02  0.8424015E-01
         -2   -1    0    0    0  501 -0.00000000000E+00  0.00000000000E+00  0.74441479158E+03  0.74441479158E+03  0.00000000000E+00 0. -1.
          2   -1    0    0  501    0  0.00000000000E+00 -0.00000000000E+00 -0.20023870279E+04  0.20023870279E+04  0.00000000000E+00 0.  1.
         23    2    1    2    0    0 -0.26800608259E+03 -0.10522604197E+04 -0.60626580809E+01  0.10895882414E+04  0.89925128395E+02 0.  0.
         13    1    3    3    0    0 -0.14047203712E+03 -0.51965976844E+03  0.41262772169E+02  0.53989006707E+03  0.00000000000E+00 0.  1.
        -13    1    3    3    0    0 -0.12753404547E+03 -0.53260065130E+03 -0.47325430250E+02  0.54969817434E+03  0.00000000000E+00 0. -1.
         22    1    1    2    0    0  0.26800608259E+03  0.10522604197E+04 -0.12519095782E+04  0.16572135781E+04  0.00000000000E+00 0.  1.
<mgrwt>
<rscale>  0 0.24418080E+04</rscale>
<asrwt>0</asrwt>
<pdfrwt beam="1">  1        2 0.30805954E+00 0.24418080E+04</pdfrwt>
<pdfrwt beam="2">  1       -2 0.11452535E+00 0.24418080E+04</pdfrwt>
<totfact> 0.35553518E+00</totfact>
</mgrwt>
</event>
<event>
 6    1  0.5026615E-004  0.5199714E+04  0.7818608E-02  0.7798417E-01
         -2   -1    0    0    0  501 -0.00000000000E+00  0.00000000000E+00  0.24461572289E+04  0.24461572289E+04  0.00000000000E+00 0. -1.
          2   -1    0    0  501    0  0.00000000000E+00 -0.00000000000E+00 -0.27632141838E+04  0.27632141838E+04  0.00000000000E+00 0.  1.
         23    2    1    2    0    0  0.12919914901E+04 -0.41760015751E+03  0.20617012270E+04  0.24703711589E+04  0.92140170270E+02 0.  0.
         11    1    3    3    0    0  0.93855187094E+03 -0.31139422089E+03  0.14261482494E+04  0.17354379288E+04  0.00000000000E+00 0. -1.
        -11    1    3    3    0    0  0.35343961912E+03 -0.10620593661E+03  0.63555297761E+03  0.73493323009E+03  0.00000000000E+00 0.  1.
         22    1    1    2    0    0 -0.12919914901E+04  0.41760015751E+03 -0.23787581820E+04  0.27390002538E+04  0.00000000000E+00 0.  1.
<mgrwt>
<rscale>  0 0.51997140E+04</rscale>
<asrwt>0</asrwt>
<pdfrwt beam="1">  1        2 0.42510987E+00 0.51997140E+04</pdfrwt>
<pdfrwt beam="2">  1       -2 0.37633188E+00 0.51997140E+04</pdfrwt>
<totfact> 0.18443241E-02</totfact>
</mgrwt>
</event>
<event>
 6    1  0.5026615E-004  0.4101312E+04  0.7818608E-02  0.7984415E-01
         -2   -1    0    0    0  501 -0.00000000000E+00  0.00000000000E+00  0.23665152588E+04  0.23665152588E+04  0.00000000000E+00 0. -1.
          2   -1    0    0  501    0  0.00000000000E+00 -0.00000000000E+00 -0.17769543537E+04  0.17769543537E+04  0.00000000000E+00 0.  1.
         23    2    1    2    0    0  0.64449680865E+03 -0.17871061628E+04  0.10722630426E+04  0.21833354520E+04  0.89894883762E+02 0.  0.
         11    1    3    3    0    0  0.50806780809E+03 -0.13739562163E+04  0.78492983088E+03  0.16619276222E+04  0.00000000000E+00 0.  1.
        -11    1    3    3    0    0  0.13642900056E+03 -0.41314994643E+03  0.28733321176E+03  0.52140782983E+03  0.00000000000E+00 0. -1.
         22    1    1    2    0    0 -0.64449680865E+03  0.17871061628E+04 -0.48270213758E+03  0.19601341605E+04  0.00000000000E+00 0.  1.
<mgrwt>
<rscale>  0 0.41013118E+04</rscale>
<asrwt>0</asrwt>
<pdfrwt beam="1">  1        2 0.27337759E+00 0.41013118E+04</pdfrwt>
<pdfrwt beam="2">  1       -2 0.36407927E+00 0.41013118E+04</pdfrwt>
<totfact> 0.88056187E-02</totfact>
</mgrwt>
</event>
<event>
 6    1  0.5026615E-004  0.2083549E+04  0.7818608E-02  0.8568525E-01
          2   -1    0    0  501    0  0.00000000000E+00  0.00000000000E+00  0.16809960764E+04  0.16809960764E+04  0.00000000000E+00 0.  1.
         -2   -1    0    0    0  501 -0.00000000000E+00 -0.00000000000E+00 -0.64562535197E+03  0.64562535197E+03  0.00000000000E+00 0. -1.
         23    2    1    2    0    0  0.42415350133E+03 -0.55088424545E+03  0.13819730282E+04  0.15497605647E+04  0.92351029978E+02 0.  0.
         13    1    3    3    0    0  0.10758264556E+03 -0.18668879767E+03  0.49897345125E+03  0.54350826843E+03  0.00000000000E+00 0. -1.
        -13    1    3    3    0    0  0.31657085577E+03 -0.36419544777E+03  0.88299957691E+03  0.10062522963E+04  0.00000000000E+00 0.  1.
         22    1    1    2    0    0 -0.42415350133E+03  0.55088424545E+03 -0.34660230372E+03  0.77686086368E+03  0.00000000000E+00 0. -1.
<mgrwt>
<rscale>  0 0.20835486E+04</rscale>
<asrwt>0</asrwt>
<pdfrwt beam="1">  1        2 0.25861478E+00 0.20835486E+04</pdfrwt>
<pdfrwt beam="2">  1       -2 0.99326978E-01 0.20835486E+04</pdfrwt>
<totfact> 0.77833562E+00</totfact>
</mgrwt>
</event>
<event>
 6    1  0.5026615E-004  0.8209424E+03  0.7818608E-02  0.9530189E-01
          2   -1    0    0  501    0  0.00000000000E+00  0.00000000000E+00  0.27552398825E+03  0.27552398825E+03  0.00000000000E+00 0.  1.
         -2   -1    0    0    0  501 -0.00000000000E+00 -0.00000000000E+00 -0.61151336795E+03  0.61151336795E+03  0.00000000000E+00 0. -1.
         23    2    1    2    0    0 -0.10616202354E+03  0.49642517848E+02 -0.58971019174E+03  0.60755747269E+03  0.87368286916E+02 0.  0.
         13    1    3    3    0    0 -0.56902167662E+02 -0.19956037927E+02 -0.27203387603E+03  0.27863691399E+03  0.00000000000E+00 0. -1.
        -13    1    3    3    0    0 -0.49259855880E+02  0.69598555775E+02 -0.31767631572E+03  0.32892055870E+03  0.00000000000E+00 0.  1.
         22    1    1    2    0    0  0.10616202354E+03 -0.49642517848E+02  0.25372081205E+03  0.27947988351E+03  0.00000000000E+00 0.  1.
<mgrwt>
<rscale>  0 0.82094239E+03</rscale>
<asrwt>0</asrwt>
<pdfrwt beam="1">  1        2 0.42388307E-01 0.82094239E+03</pdfrwt>
<pdfrwt beam="2">  1       -2 0.94078978E-01 0.82094239E+03</pdfrwt>
<totfact> 0.11587006E+02</totfact>
</mgrwt>
</event>
<event>
 6    1  0.5026615E-004  0.2831702E+04  0.7818608E-02  0.8293493E-01
          2   -1    0    0  501    0  0.00000000000E+00  0.00000000000E+00  0.14141645391E+04  0.14141645391E+04  0.00000000000E+00 0.  1.
         -2   -1    0    0    0  501 -0.00000000000E+00 -0.00000000000E+00 -0.14175393985E+04  0.14175393985E+04  0.00000000000E+00 0. -1.
         23    2    1    2    0    0 -0.16585313856E+03 -0.10419469697E+04  0.94028049875E+03  0.14162018407E+04  0.91320787016E+02 0.  0.
         13    1    3    3    0    0 -0.38861924345E+02 -0.53427514614E+03  0.47279147934E+03  0.71448720345E+03  0.00000000000E+00 0.  1.
        -13    1    3    3    0    0 -0.12699121421E+03 -0.50767182353E+03  0.46748901940E+03  0.70171463726E+03  0.00000000000E+00 0. -1.
         22    1    1    2    0    0  0.16585313856E+03  0.10419469697E+04 -0.94365535822E+03  0.14155020969E+04  0.00000000000E+00 0. -1.
<mgrwt>
<rscale>  0 0.28317019E+04</rscale>
<asrwt>0</asrwt>
<pdfrwt beam="1">  1        2 0.21756378E+00 0.28317019E+04</pdfrwt>
<pdfrwt beam="2">  1       -2 0.21808298E+00 0.28317019E+04</pdfrwt>
<totfact> 0.12530262E+00</totfact>
</mgrwt>
</event>
<event>
 6    1  0.5026615E-004  0.1669839E+04  0.7818608E-02  0.8778756E-01
         -2   -1    0    0    0  501 -0.00000000000E+00  0.00000000000E+00  0.61465914425E+03  0.61465914425E+03  0.00000000000E+00 0. -1.
          2   -1    0    0  501    0  0.00000000000E+00 -0.00000000000E+00 -0.11341092353E+04  0.11341092353E+04  0.00000000000E+00 0.  1.
         23    2    1    2    0    0 -0.82728052702E+02  0.93198497872E+02 -0.11224624957E+04  0.11330136793E+04  0.90928832432E+02 0.  0.
         13    1    3    3    0    0 -0.36036938719E+02  0.85943288205E+02 -0.48965463695E+03  0.49844415257E+03  0.00000000000E+00 0. -1.
        -13    1    3    3    0    0 -0.46691113983E+02  0.72552096669E+01 -0.63280785874E+03  0.63456952675E+03  0.00000000000E+00 0.  1.
         22    1    1    2    0    0  0.82728052702E+02 -0.93198497872E+02  0.60301240464E+03  0.61575470024E+03  0.00000000000E+00 0. -1.
<mgrwt>
<rscale>  0 0.16698390E+04</rscale>
<asrwt>0</asrwt>
<pdfrwt beam="1">  1        2 0.17447834E+00 0.16698390E+04</pdfrwt>
<pdfrwt beam="2">  1       -2 0.94562947E-01 0.16698390E+04</pdfrwt>
<totfact> 0.18657792E+01</totfact>
</mgrwt>
</event>
<event>
 6    1  0.5026615E-004  0.3987701E+04  0.7818608E-02  0.8007032E-01
         -2   -1    0    0    0  501 -0.00000000000E+00  0.00000000000E+00  0.28092203335E+04  0.28092203335E+04  0.00000000000E+00 0. -1.
          2   -1    0    0  501    0  0.00000000000E+00 -0.00000000000E+00 -0.14151402278E+04  0.14151402278E+04  0.00000000000E+00 0.  1.
         23    2    1    2    0    0  0.16090180328E+04  0.11497251931E+04  0.95807736676E+03  0.21992913185E+04  0.90349395063E+02 0.  0.
         13    1    3    3    0    0  0.11374704127E+04  0.76382024201E+03  0.67681545918E+03  0.15281817522E+04  0.00000000000E+00 0.  1.
        -13    1    3    3    0    0  0.47154762009E+03  0.38590495113E+03  0.28126190758E+03  0.67110956630E+03  0.00000000000E+00 0. -1.
         22    1    1    2    0    0 -0.16090180328E+04 -0.11497251931E+04  0.43600273892E+03  0.20250692428E+04  0.00000000000E+00 0. -1.
<mgrwt>
<rscale>  0 0.39877014E+04</rscale>
<asrwt>0</asrwt>
<pdfrwt beam="1">  1        2 0.21771388E+00 0.39877014E+04</pdfrwt>
<pdfrwt beam="2">  1       -2 0.43218774E+00 0.39877014E+04</pdfrwt>
<totfact> 0.50993895E-02</totfact>
</mgrwt>
</event>
<event>
 6    1  0.5026615E-004  0.5320206E+04  0.7818608E-02  0.7780925E-01
         -2   -1    0    0    0  501 -0.00000000000E+00  0.00000000000E+00  0.19424829566E+04  0.19424829566E+04  0.00000000000E+00 0. -1.
          2   -1    0    0  501    0  0.00000000000E+00 -0.00000000000E+00 -0.36428359085E+04  0.36428359085E+04  0.00000000000E+00 0.  1.
         23    2    1    2    0    0  0.97657400730E+03 -0.24024571796E+04 -0.14683100935E+04  0.29816020642E+04  0.92298683136E+02 0.  0.
         13    1    3    3    0    0  0.65445944019E+03 -0.14918664048E+04 -0.91804310703E+03  0.18699694315E+04  0.00000000000E+00 0.  1.
        -13    1    3    3    0    0  0.32211456711E+03 -0.91059077482E+03 -0.55026698648E+03  0.11116326326E+04  0.00000000000E+00 0. -1.
         22    1    1    2    0    0 -0.97657400730E+03  0.24024571796E+04 -0.23204285844E+03  0.26037168010E+04  0.00000000000E+00 0. -1.
<mgrwt>
<rscale>  0 0.53202055E+04</rscale>
<asrwt>0</asrwt>
<pdfrwt beam="1">  1        2 0.56043629E+00 0.53202055E+04</pdfrwt>
<pdfrwt beam="2">  1       -2 0.29884353E+00 0.53202055E+04</pdfrwt>
<totfact> 0.14701368E-02</totfact>
</mgrwt>
</event>
<event>
 6    1  0.5150883E-004  0.1460225E+04  0.7818608E-02  0.8911342E-01
         -2   -1    0    0    0  501 -0.00000000000E+00  0.00000000000E+00  0.66470224748E+03  0.66470224748E+03  0.00000000000E+00 0. -1.
          2   -1    0    0  501    0  0.00000000000E+00 -0.00000000000E+00 -0.80195939139E+03  0.80195939139E+03  0.00000000000E+00 0.  1.
         23    2    1    2    0    0 -0.57996962514E+03  0.12200634259E+03 -0.49350938997E+03  0.77516617500E+03  0.77979273936E+02 0.  0.
         13    1    3    3    0    0 -0.23951815772E+03  0.13609144165E+02 -0.18166757631E+03  0.30092734167E+03  0.00000000000E+00 0. -1.
        -13    1    3    3    0    0 -0.34045146743E+03  0.10839719843E+03 -0.31184181365E+03  0.47423883333E+03  0.00000000000E+00 0.  1.
         22    1    1    2    0    0  0.57996962514E+03 -0.12200634259E+03  0.35625224606E+03  0.69149546386E+03  0.00000000000E+00 0. -1.
<mgrwt>
<rscale>  0 0.14602249E+04</rscale>
<asrwt>0</asrwt>
<pdfrwt beam="1">  1        2 0.12337837E+00 0.14602249E+04</pdfrwt>
<pdfrwt beam="2">  1       -2 0.10226188E+00 0.14602249E+04</pdfrwt>
<totfact> 0.26060822E+01</totfact>
</mgrwt>
</event>
<event>
 6    1  0.5026615E-004  0.1090940E+04  0.7818608E-02  0.9214067E-01
          2   -1    0    0  501    0  0.00000000000E+00  0.00000000000E+00  0.11359893253E+04  0.11359893253E+04  0.00000000000E+00 0.  1.
         -2   -1    0    0    0  501 -0.00000000000E+00 -0.00000000000E+00 -0.26191939236E+03  0.26191939236E+03  0.00000000000E+00 0. -1.
         23    2    1    2    0    0  0.28750172485E+03  0.45843323756E+03  0.49910878981E+03  0.73956675945E+03  0.70930476724E+02 0.  0.
         11    1    3    3    0    0  0.69654719097E+02  0.66981210275E+02  0.70992314020E+02  0.11990901164E+03  0.00000000000E+00 0. -1.
        -11    1    3    3    0    0  0.21784700575E+03  0.39145202728E+03  0.42811647579E+03  0.61965774781E+03  0.00000000000E+00 0.  1.
         22    1    1    2    0    0 -0.28750172485E+03 -0.45843323756E+03  0.37496114313E+03  0.65834195821E+03  0.00000000000E+00 0. -1.
<mgrwt>
<rscale>  0 0.10909402E+04</rscale>
<asrwt>0</asrwt>
<pdfrwt beam="1">  1        2 0.17476759E+00 0.10909402E+04</pdfrwt>
<pdfrwt beam="2">  1       -2 0.40295292E-01 0.10909402E+04</pdfrwt>
<totfact> 0.11980990E+02</totfact>
</mgrwt>
</event>
<event>
 6    1  0.5026615E-004  0.2167328E+04  0.7818608E-02  0.8532151E-01
         -2   -1    0    0    0  501 -0.00000000000E+00  0.00000000000E+00  0.43619678011E+03  0.43619678011E+03  0.00000000000E+00 0. -1.
          2   -1    0    0  501    0  0.00000000000E+00 -0.00000000000E+00 -0.26921971170E+04  0.26921971170E+04  0.00000000000E+00 0.  1.
         23    2    1    2    0    0 -0.35526966995E+03 -0.70840352398E+03 -0.21912130221E+04  0.23332527226E+04  0.12083736216E+03 0.  0.
         13    1    3    3    0    0 -0.35406339341E+03 -0.63746409534E+03 -0.19525939663E+04  0.20843091317E+04  0.00000000000E+00 0.  1.
        -13    1    3    3    0    0 -0.12062765490E+01 -0.70939428643E+02 -0.23861905585E+03  0.24894359091E+03  0.00000000000E+00 0. -1.
         22    1    1    2    0    0  0.35526966995E+03  0.70840352398E+03 -0.64787314744E+02  0.79514117447E+03  0.00000000000E+00 0. -1.
<mgrwt>
<rscale>  0 0.21673280E+04</rscale>
<asrwt>0</asrwt>
<pdfrwt beam="1">  1        2 0.41418418E+00 0.21673280E+04</pdfrwt>
<pdfrwt beam="2">  1       -2 0.67107195E-01 0.21673280E+04</pdfrwt>
<totfact> 0.50154358E+00</totfact>
</mgrwt>
</event>
<event>
 6    1  0.5026615E-004  0.2736686E+04  0.7818608E-02  0.8323199E-01
          2   -1    0    0  501    0  0.00000000000E+00  0.00000000000E+00  0.15704390944E+04  0.15704390944E+04  0.00000000000E+00 0.  1.
         -2   -1    0    0    0  501 -0.00000000000E+00 -0.00000000000E+00 -0.11922541169E+04  0.11922541169E+04  0.00000000000E+00 0. -1.
         23    2    1    2    0    0 -0.11034757870E+04  0.28177941945E+03 -0.57358726088E+03  0.12784665280E+04  0.91738016216E+02 0.  0.
         13    1    3    3    0    0 -0.36700455161E+03  0.11782875205E+03 -0.15344011143E+03  0.41487326198E+03  0.00000000000E+00 0.  1.
        -13    1    3    3    0    0 -0.73647123542E+03  0.16395066739E+03 -0.42014714945E+03  0.86359326603E+03  0.00000000000E+00 0. -1.
         22    1    1    2    0    0  0.11034757870E+04 -0.28177941945E+03  0.95177223829E+03  0.14842266833E+04  0.00000000000E+00 0.  1.
<mgrwt>
<rscale>  0 0.27366859E+04</rscale>
<asrwt>0</asrwt>
<pdfrwt beam="1">  1        2 0.24160601E+00 0.27366859E+04</pdfrwt>
<pdfrwt beam="2">  1       -2 0.18342371E+00 0.27366859E+04</pdfrwt>
<totfact> 0.17407714E+00</totfact>
</mgrwt>
</event>
<event>
 6    1  0.5026615E-004  0.1593955E+04  0.7818608E-02  0.8824270E-01
         -1   -1    0    0    0  501 -0.00000000000E+00  0.00000000000E+00  0.24795594036E+03  0.24795594036E+03  0.00000000000E+00 0. -1.
          1   -1    0    0  501    0  0.00000000000E+00 -0.00000000000E+00 -0.25616381263E+04  0.25616381263E+04  0.00000000000E+00 0.  1.
         23    2    1    2    0    0 -0.31977301205E+03 -0.27388607191E+03 -0.23479898688E+04  0.23871661122E+04  0.90759372786E+02 0.  0.
         13    1    3    3    0    0 -0.15740771296E+03 -0.12497031615E+03 -0.87463930915E+03  0.89743450409E+03  0.00000000000E+00 0.  1.
        -13    1    3    3    0    0 -0.16236529909E+03 -0.14891575576E+03 -0.14733505596E+04  0.14897316081E+04  0.00000000000E+00 0. -1.
         22    1    1    2    0    0  0.31977301205E+03  0.27388607191E+03  0.34307682819E+02  0.42242795448E+03  0.00000000000E+00 0. -1.
<mgrwt>
<rscale>  0 0.15939553E+04</rscale>
<asrwt>0</asrwt>
<pdfrwt beam="1">  1        1 0.39409817E+00 0.15939553E+04</pdfrwt>
<pdfrwt beam="2">  1       -1 0.38147069E-01 0.15939553E+04</pdfrwt>
<totfact> 0.78440541E+00</totfact>
</mgrwt>
</event>
<event>
 6    1  0.5026615E-004  0.4210267E+04  0.7818608E-02  0.7963422E-01
         -2   -1    0    0    0  501 -0.00000000000E+00  0.00000000000E+00  0.17712553434E+04  0.17712553434E+04  0.00000000000E+00 0. -1.
          2   -1    0    0  501    0  0.00000000000E+00 -0.00000000000E+00 -0.25019472217E+04  0.25019472217E+04  0.00000000000E+00 0.  1.
         23    2    1    2    0    0  0.95620693723E+03 -0.15130112483E+04 -0.14883303791E+04  0.23296103130E+04  0.91772267655E+02 0.  0.
         11    1    3    3    0    0  0.79849741099E+03 -0.13157820949E+04 -0.12982416365E+04  0.20135322157E+04  0.00000000000E+00 0.  1.
        -11    1    3    3    0    0  0.15770952624E+03 -0.19722915332E+03 -0.19008874257E+03  0.31607809737E+03  0.00000000000E+00 0. -1.
         22    1    1    2    0    0 -0.95620693723E+03  0.15130112483E+04  0.75763850079E+03  0.19435922520E+04  0.00000000000E+00 0. -1.
<mgrwt>
<rscale>  0 0.42102672E+04</rscale>
<asrwt>0</asrwt>
<pdfrwt beam="1">  1        2 0.38491496E+00 0.42102672E+04</pdfrwt>
<pdfrwt beam="2">  1       -2 0.27250082E+00 0.42102672E+04</pdfrwt>
<totfact> 0.12601362E-01</totfact>
</mgrwt>
</event>
<event>
 6    1  0.1038666E-003  0.4164005E+04  0.7818608E-02  0.7972255E-01
         -2   -1    0    0    0  501 -0.00000000000E+00  0.00000000000E+00  0.20755364532E+04  0.20755364532E+04  0.00000000000E+00 0. -1.
          2   -1    0    0  501    0  0.00000000000E+00 -0.00000000000E+00 -0.20884889086E+04  0.20884889086E+04  0.00000000000E+00 0.  1.
         23    2    1    2    0    0  0.91384761823E+03 -0.27719484241E+03  0.18428538817E+04  0.20769289073E+04  0.74624439422E+02 0.  0.
         13    1    3    3    0    0  0.28591833786E+03 -0.10714773283E+03  0.52760646161E+03  0.60958880477E+03  0.00000000000E+00 0. -1.
        -13    1    3    3    0    0  0.62792928038E+03 -0.17004710958E+03  0.13152474200E+04  0.14673401026E+04  0.00000000000E+00 0.  1.
         22    1    1    2    0    0 -0.91384761823E+03  0.27719484241E+03 -0.18558063370E+04  0.20870964545E+04  0.00000000000E+00 0.  1.
<mgrwt>
<rscale>  0 0.41640052E+04</rscale>
<asrwt>0</asrwt>
<pdfrwt beam="1">  1        2 0.32130599E+00 0.41640052E+04</pdfrwt>
<pdfrwt beam="2">  1       -2 0.31931330E+00 0.41640052E+04</pdfrwt>
<totfact> 0.11225622E-01</totfact>
</mgrwt>
</event>
<event>
 6    1  0.5026615E-004  0.7004678E+03  0.7818608E-02  0.9716433E-01
          2   -1    0    0  501    0  0.00000000000E+00  0.00000000000E+00  0.57163647622E+03  0.57163647622E+03  0.00000000000E+00 0.  1.
         -2   -1    0    0    0  501 -0.00000000000E+00 -0.00000000000E+00 -0.21458352963E+03  0.21458352963E+03  0.00000000000E+00 0. -1.
         23    2    1    2    0    0 -0.19968667297E+03 -0.15053025661E+03  0.44708263101E+03  0.52043913823E+03  0.91868885552E+02 0.  0.
         13    1    3    3    0    0 -0.41391687350E+02 -0.82968614926E+02  0.13031621262E+03  0.15993554363E+03  0.00000000000E+00 0. -1.
        -13    1    3    3    0    0 -0.15829498562E+03 -0.67561641684E+02  0.31676641839E+03  0.36050359460E+03  0.00000000000E+00 0.  1.
         22    1    1    2    0    0  0.19968667297E+03  0.15053025661E+03 -0.90029684419E+02  0.26578086762E+03  0.00000000000E+00 0. -1.
<mgrwt>
<rscale>  0 0.70046777E+03</rscale>
<asrwt>0</asrwt>
<pdfrwt beam="1">  1        2 0.87944073E-01 0.70046777E+03</pdfrwt>
<pdfrwt beam="2">  1       -2 0.33012851E-01 0.70046777E+03</pdfrwt>
<totfact> 0.45324091E+02</totfact>
</mgrwt>
</event>
<event>
 6    1  0.5026615E-004  0.5358332E+04  0.7818608E-02  0.7775489E-01
         -2   -1    0    0    0  501 -0.00000000000E+00  0.00000000000E+00  0.22871370486E+04  0.22871370486E+04  0.00000000000E+00 0. -1.
          2   -1    0    0  501    0  0.00000000000E+00 -0.00000000000E+00 -0.31383905132E+04  0.31383905132E+04  0.00000000000E+00 0.  1.
         23    2    1    2    0    0  0.17015693378E+04 -0.19416296762E+04 -0.11477772367E+04  0.28268374382E+04  0.91396424251E+02 0.  0.
         13    1    3    3    0    0  0.71804174023E+03 -0.88264248059E+03 -0.52511907285E+03  0.12531527161E+04  0.00000000000E+00 0.  1.
        -13    1    3    3    0    0  0.98352759759E+03 -0.10589871956E+04 -0.62265816386E+03  0.15736847221E+04  0.00000000000E+00 0. -1.
         22    1    1    2    0    0 -0.17015693378E+04  0.19416296762E+04  0.29652377214E+03  0.25986901236E+04  0.00000000000E+00 0. -1.
<mgrwt>
<rscale>  0 0.53583315E+04</rscale>
<asrwt>0</asrwt>
<pdfrwt beam="1">  1        2 0.48282931E+00 0.53583315E+04</pdfrwt>
<pdfrwt beam="2">  1       -2 0.35186724E+00 0.53583315E+04</pdfrwt>
<totfact> 0.15225179E-02</totfact>
</mgrwt>
</event>
<event>
 6    1  0.5026615E-004  0.2281172E+04  0.7818608E-02  0.8485382E-01
          2   -1    0    0  501    0  0.00000000000E+00  0.00000000000E+00  0.27499583426E+04  0.27499583426E+04  0.00000000000E+00 0.  1.
         -2   -1    0    0    0  501 -0.00000000000E+00 -0.00000000000E+00 -0.47307498293E+03  0.47307498293E+03  0.00000000000E+00 0. -1.
         23    2    1    2    0    0 -0.41300727873E+03 -0.10101082566E+04  0.68099382479E+03  0.12897053374E+04  0.93239292083E+02 0.  0.
         13    1    3    3    0    0 -0.19373421500E+03 -0.46575376802E+03  0.36958949344E+03  0.62534463470E+03  0.00000000000E+00 0.  1.
        -13    1    3    3    0    0 -0.21927306373E+03 -0.54435448853E+03  0.31140433135E+03  0.66436070266E+03  0.00000000000E+00 0. -1.
         22    1    1    2    0    0  0.41300727873E+03  0.10101082566E+04  0.15958895349E+04  0.19333279881E+04  0.00000000000E+00 0. -1.
<mgrwt>
<rscale>  0 0.22811721E+04</rscale>
<asrwt>0</asrwt>
<pdfrwt beam="1">  1        2 0.42307051E+00 0.22811721E+04</pdfrwt>
<pdfrwt beam="2">  1       -2 0.72780768E-01 0.22811721E+04</pdfrwt>
<totfact> 0.38422750E+00</totfact>
</mgrwt>
</event>
<event>
 6    1  0.5026615E-004  0.2019465E+04  0.7818608E-02  0.8597574E-01
         -2   -1    0    0    0  501 -0.00000000000E+00  0.00000000000E+00  0.36965069795E+03  0.36965069795E+03  0.00000000000E+00 0. -1.
          2   -1    0    0  501    0  0.00000000000E+00 -0.00000000000E+00 -0.27581699878E+04  0.27581699878E+04  0.00000000000E+00 0.  1.
         23    2    1    2    0    0 -0.11462171415E+03 -0.78819311597E+03 -0.21525653859E+04  0.22971217209E+04  0.94042196326E+02 0.  0.
         11    1    3    3    0    0  0.10238039490E+02 -0.17780255917E+03 -0.43486957998E+03  0.46992565273E+03  0.00000000000E+00 0. -1.
        -11    1    3    3    0    0 -0.12485975364E+03 -0.61039055680E+03 -0.17176958059E+04  0.18271960681E+04  0.00000000000E+00 0.  1.
         22    1    1    2    0    0  0.11462171415E+03  0.78819311597E+03 -0.23595390397E+03  0.83069896485E+03  0.00000000000E+00 0. -1.
<mgrwt>
<rscale>  0 0.20194647E+04</rscale>
<asrwt>0</asrwt>
<pdfrwt beam="1">  1        2 0.42433384E+00 0.20194647E+04</pdfrwt>
<pdfrwt beam="2">  1       -2 0.56869339E-01 0.20194647E+04</pdfrwt>
<totfact> 0.65996549E+00</totfact>
</mgrwt>
</event>
<event>
 6    1  0.5026615E-004  0.2824792E+04  0.7818608E-02  0.8295612E-01
          2   -1    0    0  501    0  0.00000000000E+00  0.00000000000E+00  0.78603066448E+03  0.78603066448E+03  0.00000000000E+00 0.  1.
         -2   -1    0    0    0  501 -0.00000000000E+00 -0.00000000000E+00 -0.25378946493E+04  0.25378946493E+04  0.00000000000E+00 0. -1.
         23    2    1    2    0    0  0.97277482221E+03 -0.10144312352E+04 -0.73061986095E+03  0.15865994531E+04  0.90171269527E+02 0.  0.
         13    1    3    3    0    0  0.86989894067E+03 -0.86760564981E+03 -0.65125456652E+03  0.13905381120E+04  0.00000000000E+00 0. -1.
        -13    1    3    3    0    0  0.10287588154E+03 -0.14682558537E+03 -0.79365294435E+02  0.19606134112E+03  0.00000000000E+00 0.  1.
         22    1    1    2    0    0 -0.97277482221E+03  0.10144312352E+04 -0.10212441239E+04  0.17373258607E+04  0.00000000000E+00 0.  1.
<mgrwt>
<rscale>  0 0.28247924E+04</rscale>
<asrwt>0</asrwt>
<pdfrwt beam="1">  1        2 0.12092779E+00 0.28247924E+04</pdfrwt>
<pdfrwt beam="2">  1       -2 0.39044533E+00 0.28247924E+04</pdfrwt>
<totfact> 0.26225803E-01</totfact>
</mgrwt>
</event>
<event>
 6    1  0.5026615E-004  0.4456666E+04  0.7818608E-02  0.7918267E-01
         -2   -1    0    0    0  501 -0.00000000000E+00  0.00000000000E+00  0.20711559980E+04  0.20711559980E+04  0.00000000000E+00 0. -1.
          2   -1    0    0  501    0  0.00000000000E+00 -0.00000000000E+00 -0.23974382186E+04  0.23974382186E+04  0.00000000000E+00 0.  1.
         23    2    1    2    0    0  0.17820462043E+04  0.12890200541E+04  0.18958101757E+03  0.22095288668E+04  0.93890770839E+02 0.  0.
         13    1    3    3    0    0  0.10625313308E+04  0.71779821708E+03  0.89116617333E+02  0.12853594365E+04  0.00000000000E+00 0.  1.
        -13    1    3    3    0    0  0.71951487350E+03  0.57122183704E+03  0.10046440023E+03  0.92416943036E+03  0.00000000000E+00 0. -1.
         22    1    1    2    0    0 -0.17820462043E+04 -0.12890200541E+04 -0.51586323812E+03  0.22590653498E+04  0.00000000000E+00 0.  1.
<mgrwt>
<rscale>  0 0.44566663E+04</rscale>
<asrwt>0</asrwt>
<pdfrwt beam="1">  1        2 0.36883665E+00 0.44566663E+04</pdfrwt>
<pdfrwt beam="2">  1       -2 0.31863939E+00 0.44566663E+04</pdfrwt>
<totfact> 0.74044056E-02</totfact>
</mgrwt>
</event>
<event>
 6    1  0.5026615E-004  0.3008065E+04  0.7818608E-02  0.8241432E-01
         -2   -1    0    0    0  501 -0.00000000000E+00  0.00000000000E+00  0.17701526323E+04  0.17701526323E+04  0.00000000000E+00 0. -1.
          2   -1    0    0  501    0  0.00000000000E+00 -0.00000000000E+00 -0.12779199119E+04  0.12779199119E+04  0.00000000000E+00 0.  1.
         23    2    1    2    0    0 -0.33182915294E+03  0.96933898679E+03  0.13600598290E+04  0.17053690966E+04  0.93767579945E+02 0.  0.
         11    1    3    3    0    0 -0.16440521005E+03  0.47443568797E+03  0.74427490904E+03  0.89781035600E+03  0.00000000000E+00 0.  1.
        -11    1    3    3    0    0 -0.16742394289E+03  0.49490329881E+03  0.61578491996E+03  0.80755874058E+03  0.00000000000E+00 0. -1.
         22    1    1    2    0    0  0.33182915294E+03 -0.96933898679E+03 -0.86782710854E+03  0.13427034477E+04  0.00000000000E+00 0.  1.
<mgrwt>
<rscale>  0 0.30080647E+04</rscale>
<asrwt>0</asrwt>
<pdfrwt beam="1">  1        2 0.19660306E+00 0.30080647E+04</pdfrwt>
<pdfrwt beam="2">  1       -2 0.27233117E+00 0.30080647E+04</pdfrwt>
<totfact> 0.68332565E-01</totfact>
</mgrwt>
</event>
<event>
 6    1  0.5026615E-004  0.2362228E+04  0.7818608E-02  0.8453782E-01
          2   -1    0    0  501    0  0.00000000000E+00  0.00000000000E+00  0.27401030826E+04  0.27401030826E+04  0.00000000000E+00 0.  1.
         -2   -1    0    0    0  501 -0.00000000000E+00 -0.00000000000E+00 -0.50911610733E+03  0.50911610733E+03  0.00000000000E+00 0. -1.
         23    2    1    2    0    0  0.63031310720E+03 -0.28664090244E+03  0.24302913543E+04  0.25286778271E+04  0.91857858877E+02 0.  0.
         11    1    3    3    0    0  0.36283826903E+03 -0.17132682638E+03  0.12419705548E+04  0.13051801983E+04  0.00000000000E+00 0. -1.
        -11    1    3    3    0    0  0.26747483817E+03 -0.11531407606E+03  0.11883207995E+04  0.12234976288E+04  0.00000000000E+00 0.  1.
         22    1    1    2    0    0 -0.63031310720E+03  0.28664090244E+03 -0.19930437905E+03  0.72054136284E+03  0.00000000000E+00 0. -1.
<mgrwt>
<rscale>  0 0.23622283E+04</rscale>
<asrwt>0</asrwt>
<pdfrwt beam="1">  1        2 0.42155431E+00 0.23622283E+04</pdfrwt>
<pdfrwt beam="2">  1       -2 0.78325557E-01 0.23622283E+04</pdfrwt>
<totfact> 0.32860419E+00</totfact>
</mgrwt>
</event>
<event>
 6    1  0.5026615E-004  0.1876808E+04  0.7818608E-02  0.8666487E-01
         -2   -1    0    0    0  501 -0.00000000000E+00  0.00000000000E+00  0.87748433296E+03  0.87748433296E+03  0.00000000000E+00 0. -1.
          2   -1    0    0  501    0  0.00000000000E+00 -0.00000000000E+00 -0.10035535507E+04  0.10035535507E+04  0.00000000000E+00 0.  1.
         23    2    1    2    0    0 -0.35942619675E+03  0.69611244958E+02 -0.92672383300E+03  0.10006511905E+04  0.91939252324E+02 0.  0.
         11    1    3    3    0    0 -0.19665165142E+03  0.57570344038E+02 -0.62324693076E+03  0.65606627197E+03  0.00000000000E+00 0. -1.
        -11    1    3    3    0    0 -0.16277454532E+03  0.12040900919E+02 -0.30347690225E+03  0.34458491856E+03  0.00000000000E+00 0.  1.
         22    1    1    2    0    0  0.35942619675E+03 -0.69611244958E+02  0.80065461531E+03  0.88038669308E+03  0.00000000000E+00 0. -1.
<mgrwt>
<rscale>  0 0.18768085E+04</rscale>
<asrwt>0</asrwt>
<pdfrwt beam="1">  1        2 0.15439285E+00 0.18768085E+04</pdfrwt>
<pdfrwt beam="2">  1       -2 0.13499759E+00 0.18768085E+04</pdfrwt>
<totfact> 0.92753691E+00</totfact>
</mgrwt>
</event>
<event>
 6    1  0.5026615E-004  0.5000047E+04  0.7818608E-02  0.7828500E-01
          1   -1    0    0  501    0  0.00000000000E+00  0.00000000000E+00  0.33349360455E+04  0.33349360455E+04  0.00000000000E+00 0.  1.
         -1   -1    0    0    0  501 -0.00000000000E+00 -0.00000000000E+00 -0.18741344204E+04  0.18741344204E+04  0.00000000000E+00 0. -1.
         23    2    1    2    0    0 -0.15574246471E+04  0.10543270409E+04  0.24452943913E+04  0.30862414460E+04  0.90799572282E+02 0.  0.
         11    1    3    3    0    0 -0.10097495171E+04  0.67726306882E+03  0.15093272989E+04  0.19381300903E+04  0.00000000000E+00 0. -1.
        -11    1    3    3    0    0 -0.54767512999E+03  0.37706397211E+03  0.93596709245E+03  0.11481113558E+04  0.00000000000E+00 0.  1.
         22    1    1    2    0    0  0.15574246471E+04 -0.10543270409E+04 -0.98449276630E+03  0.21228290199E+04  0.00000000000E+00 0. -1.
<mgrwt>
<rscale>  0 0.50000474E+04</rscale>
<asrwt>0</asrwt>
<pdfrwt beam="1">  1        1 0.51306708E+00 0.50000474E+04</pdfrwt>
<pdfrwt beam="2">  1       -1 0.28832837E+00 0.50000474E+04</pdfrwt>
<totfact> 0.95238771E-03</totfact>
</mgrwt>
</event>
<event>
 6    1  0.5026615E-004  0.1508047E+04  0.7818608E-02  0.8879120E-01
          2   -1    0    0  501    0  0.00000000000E+00  0.00000000000E+00  0.17954044427E+04  0.17954044427E+04  0.00000000000E+00 0. -1.
         -2   -1    0    0    0  501 -0.00000000000E+00 -0.00000000000E+00 -0.31667022495E+03  0.31667022495E+03  0.00000000000E+00 0.  1.
         23    2    1    2    0    0 -0.39903211396E+03  0.90674189943E+02  0.16244808110E+04  0.16776894629E+04  0.90860286868E+02 0.  0.
         13    1    3    3    0    0 -0.21759490235E+03  0.71160198669E+02  0.74099703463E+03  0.77555652324E+03  0.00000000000E+00 0. -1.
        -13    1    3    3    0    0 -0.18143721161E+03  0.19513991274E+02  0.88348377638E+03  0.90213293962E+03  0.00000000000E+00 0.  1.
         22    1    1    2    0    0  0.39903211396E+03 -0.90674189943E+02 -0.14574659327E+03  0.43438520479E+03  0.00000000000E+00 0.  1.
<mgrwt>
<rscale>  0 0.15080466E+04</rscale>
<asrwt>0</asrwt>
<pdfrwt beam="1">  1        2 0.27621606E+00 0.15080466E+04</pdfrwt>
<pdfrwt beam="2">  1       -2 0.48718497E-01 0.15080466E+04</pdfrwt>
<totfact> 0.33438751E+01</totfact>
</mgrwt>
</event>
<event>
 6    1  0.5026615E-004  0.8016952E+03  0.7818608E-02  0.9557567E-01
          2   -1    0    0  501    0  0.00000000000E+00  0.00000000000E+00  0.25730875085E+04  0.25730875085E+04  0.00000000000E+00 0.  1.
         -2   -1    0    0    0  501 -0.00000000000E+00 -0.00000000000E+00 -0.62445910887E+02  0.62445910887E+02  0.00000000000E+00 0. -1.
         23    2    1    2    0    0  0.20257647494E+03 -0.30095660570E+03  0.75351114232E+03  0.84134292124E+03  0.92015014043E+02 0.  0.
         11    1    3    3    0    0  0.85533385723E+02 -0.84615347670E+02  0.17155587312E+03  0.20954029382E+03  0.00000000000E+00 0.  1.
        -11    1    3    3    0    0  0.11704308922E+03 -0.21634125803E+03  0.58195526921E+03  0.63180262742E+03  0.00000000000E+00 0. -1.
         22    1    1    2    0    0 -0.20257647494E+03  0.30095660570E+03  0.17571304553E+04  0.17941904981E+04  0.00000000000E+00 0.  1.
<mgrwt>
<rscale>  0 0.80169519E+03</rscale>
<asrwt>0</asrwt>
<pdfrwt beam="1">  1        2 0.39585954E+00 0.80169519E+03</pdfrwt>
<pdfrwt beam="2">  1       -2 0.96070652E-02 0.80169519E+03</pdfrwt>
<totfact> 0.23932067E+02</totfact>
</mgrwt>
</event>
<event>
 6    1  0.5026615E-004  0.4029795E+04  0.7818608E-02  0.7998563E-01
          2   -1    0    0  501    0  0.00000000000E+00  0.00000000000E+00  0.13282954549E+04  0.13282954549E+04  0.00000000000E+00 0.  1.
         -2   -1    0    0    0  501 -0.00000000000E+00 -0.00000000000E+00 -0.30564077077E+04  0.30564077077E+04  0.00000000000E+00 0. -1.
         23    2    1    2    0    0  0.11320193439E+04 -0.74091748412E+03  0.75864162443E+03  0.15537366565E+04  0.90188524980E+02 0.  0.
         11    1    3    3    0    0  0.40643783631E+03 -0.28395707237E+03  0.23160401690E+03  0.54723281552E+03  0.00000000000E+00 0. -1.
        -11    1    3    3    0    0  0.72558150759E+03 -0.45696041175E+03  0.52703760753E+03  0.10065038409E+04  0.00000000000E+00 0.  1.
         22    1    1    2    0    0 -0.11320193439E+04  0.74091748412E+03 -0.24867538772E+04  0.28309665062E+04  0.00000000000E+00 0. -1.
<mgrwt>
<rscale>  0 0.40297953E+04</rscale>
<asrwt>0</asrwt>
<pdfrwt beam="1">  1        2 0.20435315E+00 0.40297953E+04</pdfrwt>
<pdfrwt beam="2">  1       -2 0.47021657E+00 0.40297953E+04</pdfrwt>
<totfact> 0.32029476E-02</totfact>
</mgrwt>
</event>
<event>
 6    1  0.5869273E-004  0.3010477E+04  0.7818608E-02  0.8240746E-01
         -2   -1    0    0    0  501 -0.00000000000E+00  0.00000000000E+00  0.18393221356E+04  0.18393221356E+04  0.00000000000E+00 0. -1.
          2   -1    0    0  501    0  0.00000000000E+00 -0.00000000000E+00 -0.12318356375E+04  0.12318356375E+04  0.00000000000E+00 0.  1.
         23    2    1    2    0    0 -0.40206014188E+03 -0.96793191979E+02  0.17790370407E+04  0.18287601099E+04  0.91484795284E+02 0.  0.
         11    1    3    3    0    0 -0.24311543043E+03 -0.12187953018E+02  0.10384159675E+04  0.10665652256E+04  0.00000000000E+00 0.  1.
        -11    1    3    3    0    0 -0.15894471145E+03 -0.84605238962E+02  0.74062107315E+03  0.76219488437E+03  0.00000000000E+00 0. -1.
         22    1    1    2    0    0  0.40206014188E+03  0.96793191979E+02 -0.11715505425E+04  0.12423976632E+04  0.00000000000E+00 0.  1.
<mgrwt>
<rscale>  0 0.30104767E+04</rscale>
<asrwt>0</asrwt>
<pdfrwt beam="1">  1        2 0.18951317E+00 0.30104767E+04</pdfrwt>
<pdfrwt beam="2">  1       -2 0.28297264E+00 0.30104767E+04</pdfrwt>
<totfact> 0.62631809E-01</totfact>
</mgrwt>
</event>
<event>
 6    1  0.5026615E-004  0.1617983E+04  0.7818608E-02  0.8809576E-01
         -2   -1    0    0    0  501 -0.00000000000E+00  0.00000000000E+00  0.56174912002E+03  0.56174912002E+03  0.00000000000E+00 0. -1.
          2   -1    0    0  501    0  0.00000000000E+00 -0.00000000000E+00 -0.11650524293E+04  0.11650524293E+04  0.00000000000E+00 0.  1.
         23    2    1    2    0    0 -0.16700799901E+03 -0.64575780486E+03 -0.78624842662E+03  0.10351631104E+04  0.92093770240E+02 0.  0.
         11    1    3    3    0    0 -0.12385924617E+03 -0.49877661918E+03 -0.54251661215E+03  0.74729077550E+03  0.00000000000E+00 0.  1.
        -11    1    3    3    0    0 -0.43148752842E+02 -0.14698118568E+03 -0.24373181448E+03  0.28787233491E+03  0.00000000000E+00 0. -1.
         22    1    1    2    0    0  0.16700799901E+03  0.64575780486E+03  0.18294511732E+03  0.69163843894E+03  0.00000000000E+00 0. -1.
<mgrwt>
<rscale>  0 0.16179829E+04</rscale>
<asrwt>0</asrwt>
<pdfrwt beam="1">  1        2 0.17923884E+00 0.16179829E+04</pdfrwt>
<pdfrwt beam="2">  1       -2 0.86422941E-01 0.16179829E+04</pdfrwt>
<totfact> 0.22088861E+01</totfact>
</mgrwt>
</event>
<event>
 6    1  0.5026615E-004  0.3004991E+04  0.7818608E-02  0.8242307E-01
         -2   -1    0    0    0  501 -0.00000000000E+00  0.00000000000E+00  0.13983372832E+04  0.13983372832E+04  0.00000000000E+00 0. -1.
          2   -1    0    0  501    0  0.00000000000E+00 -0.00000000000E+00 -0.16144126658E+04  0.16144126658E+04  0.00000000000E+00 0.  1.
         23    2    1    2    0    0 -0.14788642805E+04  0.15804037981E+03 -0.31149748630E+03  0.15224071362E+04  0.93147639019E+02 0.  0.
         13    1    3    3    0    0 -0.10129659105E+04  0.12421293510E+03 -0.17240011148E+03  0.10350123611E+04  0.00000000000E+00 0. -1.
        -13    1    3    3    0    0 -0.46589836995E+03  0.33827444711E+02 -0.13909737482E+03  0.48739477512E+03  0.00000000000E+00 0.  1.
         22    1    1    2    0    0  0.14788642805E+04 -0.15804037981E+03  0.95422103680E+02  0.14903428128E+04  0.00000000000E+00 0. -1.
<mgrwt>
<rscale>  0 0.30049915E+04</rscale>
<asrwt>0</asrwt>
<pdfrwt beam="1">  1        2 0.24837118E+00 0.30049915E+04</pdfrwt>
<pdfrwt beam="2">  1       -2 0.21512881E+00 0.30049915E+04</pdfrwt>
<totfact> 0.99436089E-01</totfact>
</mgrwt>
</event>
<event>
 6    1  0.5026615E-004  0.2660638E+04  0.7818608E-02  0.8347891E-01
          2   -1    0    0  501    0  0.00000000000E+00  0.00000000000E+00  0.11094607952E+04  0.11094607952E+04  0.00000000000E+00 0.  1.
         -2   -1    0    0    0  501 -0.00000000000E+00 -0.00000000000E+00 -0.15951424822E+04  0.15951424822E+04  0.00000000000E+00 0. -1.
         23    2    1    2    0    0  0.55230119908E+03 -0.11962949043E+04 -0.41729882197E+03  0.13851964679E+04  0.92048005484E+02 0.  0.
         13    1    3    3    0    0  0.34662502495E+03 -0.80438304425E+03 -0.31600733148E+03  0.93115069852E+03  0.00000000000E+00 0. -1.
        -13    1    3    3    0    0  0.20567617413E+03 -0.39191186007E+03 -0.10129149049E+03  0.45404576940E+03  0.00000000000E+00 0.  1.
         22    1    1    2    0    0 -0.55230119908E+03  0.11962949043E+04 -0.68382864998E+02  0.13194068095E+04  0.00000000000E+00 0. -1.
<mgrwt>
<rscale>  0 0.26606376E+04</rscale>
<asrwt>0</asrwt>
<pdfrwt beam="1">  1        2 0.17068628E+00 0.26606376E+04</pdfrwt>
<pdfrwt beam="2">  1       -2 0.24540654E+00 0.26606376E+04</pdfrwt>
<totfact> 0.12975646E+00</totfact>
</mgrwt>
</event>
<event>
 6    1  0.5026615E-004  0.1609566E+04  0.7818608E-02  0.8814693E-01
         -2   -1    0    0    0  501 -0.00000000000E+00  0.00000000000E+00  0.58005227912E+03  0.58005227912E+03  0.00000000000E+00 0. -1.
          2   -1    0    0  501    0  0.00000000000E+00 -0.00000000000E+00 -0.11165814399E+04  0.11165814399E+04  0.00000000000E+00 0.  1.
         23    2    1    2    0    0 -0.15110686049E+03 -0.85708478259E+02 -0.10947016345E+04  0.11120520422E+04  0.90049150594E+02 0.  0.
         13    1    3    3    0    0 -0.10615046999E+03 -0.17625728311E+02 -0.47703590610E+03  0.48902131271E+03  0.00000000000E+00 0.  1.
        -13    1    3    3    0    0 -0.44956390502E+02 -0.68082749949E+02 -0.61766572836E+03  0.62303072948E+03  0.00000000000E+00 0. -1.
         22    1    1    2    0    0  0.15110686049E+03  0.85708478259E+02  0.55817247367E+03  0.58458167683E+03  0.00000000000E+00 0. -1.
<mgrwt>
<rscale>  0 0.16095659E+04</rscale>
<asrwt>0</asrwt>
<pdfrwt beam="1">  1        2 0.17178176E+00 0.16095659E+04</pdfrwt>
<pdfrwt beam="2">  1       -2 0.89238812E-01 0.16095659E+04</pdfrwt>
<totfact> 0.21979818E+01</totfact>
</mgrwt>
</event>
<event>
 6    1  0.5026615E-004  0.4350529E+04  0.7818608E-02  0.7937340E-01
         -2   -1    0    0    0  501 -0.00000000000E+00  0.00000000000E+00  0.20288941139E+04  0.20288941139E+04  0.00000000000E+00 0.  1.
          2   -1    0    0  501    0  0.00000000000E+00 -0.00000000000E+00 -0.23321947384E+04  0.23321947384E+04  0.00000000000E+00 0. -1.
         23    2    1    2    0    0 -0.25177098925E+03  0.19660989738E+04  0.74420113323E+03  0.21191714278E+04  0.90102208825E+02 0.  0.
         13    1    3    3    0    0 -0.12548587339E+02  0.37308653002E+03  0.13555298250E+03  0.39714687080E+03  0.00000000000E+00 0.  1.
        -13    1    3    3    0    0 -0.23922240191E+03  0.15930124438E+04  0.60864815074E+03  0.17220245570E+04  0.00000000000E+00 0. -1.
         22    1    1    2    0    0  0.25177098925E+03 -0.19660989738E+04 -0.10475017577E+04  0.22419174245E+04  0.00000000000E+00 0.  1.
<mgrwt>
<rscale>  0 0.43505292E+04</rscale>
<asrwt>0</asrwt>
<pdfrwt beam="1">  1        2 0.35879919E+00 0.43505292E+04</pdfrwt>
<pdfrwt beam="2">  1       -2 0.31213756E+00 0.43505292E+04</pdfrwt>
<totfact> 0.89241550E-02</totfact>
</mgrwt>
</event>
<event>
 6    1  0.6066706E-004  0.1834062E+04  0.7818608E-02  0.8688393E-01
         -2   -1    0    0    0  501 -0.00000000000E+00  0.00000000000E+00  0.41820157793E+03  0.41820157793E+03  0.00000000000E+00 0. -1.
          2   -1    0    0  501    0  0.00000000000E+00 -0.00000000000E+00 -0.20108618791E+04  0.20108618791E+04  0.00000000000E+00 0.  1.
         23    2    1    2    0    0  0.26516089310E+03  0.25481645676E+03  0.30760196980E+03  0.49354326228E+03  0.11715056146E+03 0.  0.
         11    1    3    3    0    0  0.49778438423E+02  0.10634357289E+03  0.14060980091E+03  0.18318833079E+03  0.00000000000E+00 0. -1.
        -11    1    3    3    0    0  0.21538245468E+03  0.14847288387E+03  0.16699216889E+03  0.31035493149E+03  0.00000000000E+00 0.  1.
         22    1    1    2    0    0 -0.26516089310E+03 -0.25481645676E+03 -0.19002622710E+04  0.19355201948E+04  0.00000000000E+00 0.  1.
<mgrwt>
<rscale>  0 0.18340617E+04</rscale>
<asrwt>0</asrwt>
<pdfrwt beam="1">  1        2 0.30936337E+00 0.18340617E+04</pdfrwt>
<pdfrwt beam="2">  1       -2 0.64338703E-01 0.18340617E+04</pdfrwt>
<totfact> 0.13843694E+01</totfact>
</mgrwt>
</event>
<event>
 6    1  0.5026615E-004  0.1953215E+04  0.7818608E-02  0.8628812E-01
          2   -1    0    0  501    0  0.00000000000E+00  0.00000000000E+00  0.14943259251E+04  0.14943259251E+04  0.00000000000E+00 0.  1.
         -2   -1    0    0    0  501 -0.00000000000E+00 -0.00000000000E+00 -0.63825601596E+03  0.63825601596E+03  0.00000000000E+00 0. -1.
         23    2    1    2    0    0  0.93336928007E+03  0.17240602603E+03  0.66930357048E+03  0.11652227957E+04  0.94206387234E+02 0.  0.
         13    1    3    3    0    0  0.70083994947E+02 -0.27149979946E+01  0.27470590110E+02  0.75324437488E+02  0.00000000000E+00 0.  1.
        -13    1    3    3    0    0  0.86328528512E+03  0.17512102403E+03  0.64183298037E+03  0.10898983582E+04  0.00000000000E+00 0. -1.
         22    1    1    2    0    0 -0.93336928007E+03 -0.17240602603E+03  0.18676633863E+03  0.96735914532E+03  0.00000000000E+00 0. -1.
<mgrwt>
<rscale>  0 0.19532153E+04</rscale>
<asrwt>0</asrwt>
<pdfrwt beam="1">  1        2 0.22989630E+00 0.19532153E+04</pdfrwt>
<pdfrwt beam="2">  1       -2 0.98193234E-01 0.19532153E+04</pdfrwt>
<totfact> 0.10285563E+01</totfact>
</mgrwt>
</event>
<event>
 6    1  0.5026615E-004  0.2606377E+04  0.7818608E-02  0.8366038E-01
         -2   -1    0    0    0  501 -0.00000000000E+00  0.00000000000E+00  0.51863535600E+03  0.51863535600E+03  0.00000000000E+00 0. -1.
          2   -1    0    0  501    0  0.00000000000E+00 -0.00000000000E+00 -0.32745563420E+04  0.32745563420E+04  0.00000000000E+00 0.  1.
         23    2    1    2    0    0 -0.80472839534E+03 -0.61479753921E+03 -0.25693789931E+04  0.27634530323E+04  0.96955903847E+02 0.  0.
         13    1    3    3    0    0 -0.58249115069E+03 -0.46914885867E+03 -0.19949760762E+04  0.21305694396E+04  0.00000000000E+00 0.  1.
        -13    1    3    3    0    0 -0.22223724465E+03 -0.14564868053E+03 -0.57440291683E+03  0.63288359270E+03  0.00000000000E+00 0. -1.
         22    1    1    2    0    0  0.80472839534E+03  0.61479753921E+03 -0.18654199293E+03  0.10297386657E+04  0.00000000000E+00 0. -1.
<mgrwt>
<rscale>  0 0.26063773E+04</rscale>
<asrwt>0</asrwt>
<pdfrwt beam="1">  1        2 0.50377790E+00 0.26063773E+04</pdfrwt>
<pdfrwt beam="2">  1       -2 0.79790054E-01 0.26063773E+04</pdfrwt>
<totfact> 0.14240952E+00</totfact>
</mgrwt>
</event>
<event>
 6    1  0.5026615E-004  0.7271785E+03  0.7818608E-02  0.9671850E-01
          2   -1    0    0  501    0  0.00000000000E+00  0.00000000000E+00  0.22169862730E+03  0.22169862730E+03  0.00000000000E+00 0.  1.
         -2   -1    0    0    0  501 -0.00000000000E+00 -0.00000000000E+00 -0.59629210244E+03  0.59629210244E+03  0.00000000000E+00 0. -1.
         23    2    1    2    0    0  0.11761805814E+03 -0.16300346849E+03 -0.52331313967E+03  0.56794737958E+03  0.91123243379E+02 0.  0.
         13    1    3    3    0    0  0.69002396782E+02 -0.95687981487E+02 -0.18361176560E+03  0.21824481902E+03  0.00000000000E+00 0. -1.
        -13    1    3    3    0    0  0.48615661363E+02 -0.67315487006E+02 -0.33970137406E+03  0.34970256056E+03  0.00000000000E+00 0.  1.
         22    1    1    2    0    0 -0.11761805814E+03  0.16300346849E+03  0.14871966453E+03  0.25004335016E+03  0.00000000000E+00 0.  1.
<mgrwt>
<rscale>  0 0.72717849E+03</rscale>
<asrwt>0</asrwt>
<pdfrwt beam="1">  1        2 0.34107482E-01 0.72717849E+03</pdfrwt>
<pdfrwt beam="2">  1       -2 0.91737245E-01 0.72717849E+03</pdfrwt>
<totfact> 0.15716390E+02</totfact>
</mgrwt>
</event>
<event>
 6    1  0.5026615E-004  0.9691029E+03  0.7818608E-02  0.9343097E-01
         -2   -1    0    0    0  501 -0.00000000000E+00  0.00000000000E+00  0.44322521421E+03  0.44322521421E+03  0.00000000000E+00 0. -1.
          2   -1    0    0  501    0  0.00000000000E+00 -0.00000000000E+00 -0.52973091025E+03  0.52973091025E+03  0.00000000000E+00 0.  1.
         23    2    1    2    0    0 -0.13916264609E+03  0.10388897579E+03  0.40602392864E+03  0.45070657439E+03  0.90121164078E+02 0.  0.
         13    1    3    3    0    0  0.12571063857E+02  0.72414017721E+01  0.18918647333E+02  0.23840821358E+02  0.00000000000E+00 0. -1.
        -13    1    3    3    0    0 -0.15173370995E+03  0.96647574016E+02  0.38710528131E+03  0.42686575304E+03  0.00000000000E+00 0.  1.
         22    1    1    2    0    0  0.13916264609E+03 -0.10388897579E+03 -0.49252962468E+03  0.52224955007E+03  0.00000000000E+00 0.  1.
<mgrwt>
<rscale>  0 0.96910288E+03</rscale>
<asrwt>0</asrwt>
<pdfrwt beam="1">  1        2 0.81497063E-01 0.96910288E+03</pdfrwt>
<pdfrwt beam="2">  1       -2 0.68188495E-01 0.96910288E+03</pdfrwt>
<totfact> 0.11336356E+02</totfact>
</mgrwt>
</event>
<event>
 6    1  0.5026615E-004  0.1015545E+04  0.7818608E-02  0.9291657E-01
          2   -1    0    0  501    0  0.00000000000E+00  0.00000000000E+00  0.65634761683E+03  0.65634761683E+03  0.00000000000E+00 0.  1.
         -2   -1    0    0    0  501 -0.00000000000E+00 -0.00000000000E+00 -0.39283009002E+03  0.39283009002E+03  0.00000000000E+00 0. -1.
         23    2    1    2    0    0  0.15965819270E+03 -0.37436814495E+03 -0.17461948257E+03  0.45117579596E+03  0.86170695254E+02 0.  0.
         13    1    3    3    0    0  0.33590346518E+02 -0.25560427847E+02 -0.35150204714E+02  0.54928897153E+02  0.00000000000E+00 0.  1.
        -13    1    3    3    0    0  0.12606784618E+03 -0.34880771710E+03 -0.13946927786E+03  0.39624689881E+03  0.00000000000E+00 0. -1.
         22    1    1    2    0    0 -0.15965819270E+03  0.37436814495E+03  0.43813700938E+03  0.59800191089E+03  0.00000000000E+00 0.  1.
<mgrwt>
<rscale>  0 0.10155454E+04</rscale>
<asrwt>0</asrwt>
<pdfrwt beam="1">  1        2 0.10097656E+00 0.10155454E+04</pdfrwt>
<pdfrwt beam="2">  1       -2 0.60435398E-01 0.10155454E+04</pdfrwt>
<totfact> 0.11309375E+02</totfact>
</mgrwt>
</event>
<event>
 6    1  0.5026615E-004  0.3840356E+04  0.7818608E-02  0.8037550E-01
          2   -1    0    0  501    0  0.00000000000E+00  0.00000000000E+00  0.35842594079E+04  0.35842594079E+04  0.00000000000E+00 0.  1.
         -2   -1    0    0    0  501 -0.00000000000E+00 -0.00000000000E+00 -0.10286878015E+04  0.10286878015E+04  0.00000000000E+00 0. -1.
         23    2    1    2    0    0  0.38713062169E+03  0.17049598541E+04  0.32797699222E+03  0.17811746219E+04  0.90862004000E+02 0.  0.
         11    1    3    3    0    0  0.72700088337E+02  0.20956171678E+03  0.23688285349E+02  0.22307521343E+03  0.00000000000E+00 0. -1.
        -11    1    3    3    0    0  0.31443053335E+03  0.14953981373E+04  0.30428870687E+03  0.15580994084E+04  0.00000000000E+00 0.  1.
         22    1    1    2    0    0 -0.38713062169E+03 -0.17049598541E+04  0.22275946142E+04  0.28317725875E+04  0.00000000000E+00 0.  1.
<mgrwt>
<rscale>  0 0.38403562E+04</rscale>
<asrwt>0</asrwt>
<pdfrwt beam="1">  1        2 0.55142452E+00 0.38403562E+04</pdfrwt>
<pdfrwt beam="2">  1       -2 0.15825966E+00 0.38403562E+04</pdfrwt>
<totfact> 0.14665162E-01</totfact>
</mgrwt>
</event>
<event>
 6    1  0.5026615E-004  0.2153618E+04  0.7818608E-02  0.8537985E-01
          1   -1    0    0  501    0  0.00000000000E+00  0.00000000000E+00  0.79250019646E+03  0.79250019646E+03  0.00000000000E+00 0.  1.
         -1   -1    0    0    0  501 -0.00000000000E+00 -0.00000000000E+00 -0.14631138636E+04  0.14631138636E+04  0.00000000000E+00 0. -1.
         23    2    1    2    0    0 -0.10093145256E+04  0.31819308823E+03 -0.13903055916E+03  0.10713238702E+04  0.91884087042E+02 0.  0.
         11    1    3    3    0    0 -0.44201779836E+03  0.15602611194E+03 -0.18460058124E+02  0.46911049383E+03  0.00000000000E+00 0. -1.
        -11    1    3    3    0    0 -0.56729672727E+03  0.16216697629E+03 -0.12057050103E+03  0.60221337638E+03  0.00000000000E+00 0.  1.
         22    1    1    2    0    0  0.10093145256E+04 -0.31819308823E+03 -0.53158310795E+03  0.11842901898E+04  0.00000000000E+00 0. -1.
<mgrwt>
<rscale>  0 0.21536184E+04</rscale>
<asrwt>0</asrwt>
<pdfrwt beam="1">  1        1 0.12192311E+00 0.21536184E+04</pdfrwt>
<pdfrwt beam="2">  1       -1 0.22509444E+00 0.21536184E+04</pdfrwt>
<totfact> 0.20905559E+00</totfact>
</mgrwt>
</event>
<event>
 6    1  0.5026615E-004  0.2573118E+04  0.7818608E-02  0.8377390E-01
          2   -1    0    0  501    0  0.00000000000E+00  0.00000000000E+00  0.22233494700E+04  0.22233494700E+04  0.00000000000E+00 0.  1.
         -2   -1    0    0    0  501 -0.00000000000E+00 -0.00000000000E+00 -0.74447752856E+03  0.74447752856E+03  0.00000000000E+00 0. -1.
         23    2    1    2    0    0 -0.12234690052E+04 -0.39220184357E+03  0.75087380847E+03  0.14911144421E+04  0.94403974405E+02 0.  0.
         11    1    3    3    0    0 -0.70869162128E+03 -0.27054016635E+03  0.41770274507E+03  0.86597423687E+03  0.00000000000E+00 0. -1.
        -11    1    3    3    0    0 -0.51477738393E+03 -0.12166167722E+03  0.33317106340E+03  0.62514020523E+03  0.00000000000E+00 0.  1.
         22    1    1    2    0    0  0.12234690052E+04  0.39220184357E+03  0.72799813300E+03  0.14767125565E+04  0.00000000000E+00 0.  1.
<mgrwt>
<rscale>  0 0.25731177E+04</rscale>
<asrwt>0</asrwt>
<pdfrwt beam="1">  1        2 0.34205376E+00 0.25731177E+04</pdfrwt>
<pdfrwt beam="2">  1       -2 0.11453500E+00 0.25731177E+04</pdfrwt>
<totfact> 0.26445172E+00</totfact>
</mgrwt>
</event>
<event>
 6    1  0.5026615E-004  0.6283310E+03  0.7818608E-02  0.9848311E-01
          2   -1    0    0  501    0  0.00000000000E+00  0.00000000000E+00  0.14378559363E+03  0.14378559363E+03  0.00000000000E+00 0.  1.
         -2   -1    0    0    0  501 -0.00000000000E+00 -0.00000000000E+00 -0.68643854688E+03  0.68643854688E+03  0.00000000000E+00 0. -1.
         23    2    1    2    0    0  0.26194857505E+03 -0.15492828303E+03 -0.21775232372E+03  0.38504973883E+03  0.90705005561E+02 0.  0.
         13    1    3    3    0    0  0.11083715466E+03 -0.10334696698E+03 -0.67854020054E+02  0.16604107466E+03  0.00000000000E+00 0. -1.
        -13    1    3    3    0    0  0.15111142039E+03 -0.51581316042E+02 -0.14989830367E+03  0.21900866416E+03  0.00000000000E+00 0.  1.
         22    1    1    2    0    0 -0.26194857505E+03  0.15492828303E+03 -0.32490062952E+03  0.44517440168E+03  0.00000000000E+00 0.  1.
<mgrwt>
<rscale>  0 0.62833104E+03</rscale>
<asrwt>0</asrwt>
<pdfrwt beam="1">  1        2 0.22120860E-01 0.62833104E+03</pdfrwt>
<pdfrwt beam="2">  1       -2 0.10560593E+00 0.62833104E+03</pdfrwt>
<totfact> 0.18528428E+02</totfact>
</mgrwt>
</event>
<event>
 6    1  0.5026615E-004  0.4831248E+03  0.7818608E-02  0.1018280E+00
         -2   -1    0    0    0  501 -0.00000000000E+00  0.00000000000E+00  0.28810858632E+02  0.28810858632E+02  0.00000000000E+00 0. -1.
          2   -1    0    0  501    0  0.00000000000E+00 -0.00000000000E+00 -0.20253615373E+04  0.20253615373E+04  0.00000000000E+00 0.  1.
         23    2    1    2    0    0  0.24532907923E+02 -0.84801658188E+02 -0.19503179188E+04  0.19545197347E+04  0.92812845302E+02 0.  0.
         13    1    3    3    0    0 -0.16955917954E+02 -0.52877266573E+02 -0.46880911537E+03  0.47208632169E+03  0.00000000000E+00 0.  1.
        -13    1    3    3    0    0  0.41488825877E+02 -0.31924391615E+02 -0.14815088034E+04  0.14824334130E+04  0.00000000000E+00 0. -1.
         22    1    1    2    0    0 -0.24532907923E+02  0.84801658188E+02 -0.46232759896E+02  0.99652661230E+02  0.00000000000E+00 0. -1.
<mgrwt>
<rscale>  0 0.48312485E+03</rscale>
<asrwt>0</asrwt>
<pdfrwt beam="1">  1        2 0.31159402E+00 0.48312485E+03</pdfrwt>
<pdfrwt beam="2">  1       -2 0.44324407E-02 0.48312485E+03</pdfrwt>
<totfact> 0.16708448E+03</totfact>
</mgrwt>
</event>
<event>
 6    1  0.5026615E-004  0.9637900E+03  0.7818608E-02  0.9349176E-01
          1   -1    0    0  501    0  0.00000000000E+00  0.00000000000E+00  0.71437574055E+03  0.71437574055E+03  0.00000000000E+00 0.  1.
         -1   -1    0    0    0  501 -0.00000000000E+00 -0.00000000000E+00 -0.32507090334E+03  0.32507090334E+03  0.00000000000E+00 0. -1.
         23    2    1    2    0    0  0.34886377367E+03  0.32561858464E+03  0.18045509866E+03  0.51853243930E+03  0.92619937028E+02 0.  0.
         11    1    3    3    0    0  0.15119663638E+03  0.14139276557E+03  0.12769045526E+03  0.24322251000E+03  0.00000000000E+00 0.  1.
        -11    1    3    3    0    0  0.19766713729E+03  0.18422581908E+03  0.52764643394E+02  0.27530992930E+03  0.00000000000E+00 0. -1.
         22    1    1    2    0    0 -0.34886377367E+03 -0.32561858464E+03  0.20884973855E+03  0.52091420458E+03  0.00000000000E+00 0. -1.
<mgrwt>
<rscale>  0 0.96378995E+03</rscale>
<asrwt>0</asrwt>
<pdfrwt beam="1">  1        1 0.10990396E+00 0.96378995E+03</pdfrwt>
<pdfrwt beam="2">  1       -1 0.50010908E-01 0.96378995E+03</pdfrwt>
<totfact> 0.10641891E+02</totfact>
</mgrwt>
</event>
<event>
 6    1  0.5026615E-004  0.4188885E+04  0.7818608E-02  0.7967490E-01
          2   -1    0    0  501    0  0.00000000000E+00  0.00000000000E+00  0.10823646149E+04  0.10823646149E+04  0.00000000000E+00 0.  1.
         -2   -1    0    0    0  501 -0.00000000000E+00 -0.00000000000E+00 -0.40528751932E+04  0.40528751932E+04  0.00000000000E+00 0. -1.
         23    2    1    2    0    0  0.17124117245E+04 -0.11807912074E+04 -0.11959242198E+04  0.24010528113E+04  0.90543212521E+02 0.  0.
         13    1    3    3    0    0  0.99716171289E+03 -0.74150036682E+03 -0.71572375172E+03  0.14340204895E+04  0.00000000000E+00 0.  1.
        -13    1    3    3    0    0  0.71525001163E+03 -0.43929084057E+03 -0.48020046806E+03  0.96703232173E+03  0.00000000000E+00 0. -1.
         22    1    1    2    0    0 -0.17124117245E+04  0.11807912074E+04 -0.17745863585E+04  0.27341869968E+04  0.00000000000E+00 0. -1.
<mgrwt>
<rscale>  0 0.41888847E+04</rscale>
<asrwt>0</asrwt>
<pdfrwt beam="1">  1        2 0.16651763E+00 0.41888847E+04</pdfrwt>
<pdfrwt beam="2">  1       -2 0.62351928E+00 0.41888847E+04</pdfrwt>
<totfact> 0.72002976E-03</totfact>
</mgrwt>
</event>
<event>
 6    1  0.5026615E-004  0.3864450E+04  0.7818608E-02  0.8032464E-01
         -2   -1    0    0    0  501 -0.00000000000E+00  0.00000000000E+00  0.20107771990E+04  0.20107771990E+04  0.00000000000E+00 0. -1.
          2   -1    0    0  501    0  0.00000000000E+00 -0.00000000000E+00 -0.18567412412E+04  0.18567412412E+04  0.00000000000E+00 0.  1.
         23    2    1    2    0    0 -0.16844079580E+04 -0.93701300581E+03 -0.38400957205E+02  0.19304444848E+04  0.99587817433E+02 0.  0.
         11    1    3    3    0    0 -0.10414084049E+04 -0.57454089569E+03  0.24559130673E+02  0.11896351784E+04  0.00000000000E+00 0.  1.
        -11    1    3    3    0    0 -0.64299955310E+03 -0.36247211012E+03 -0.62960087877E+02  0.74080930648E+03  0.00000000000E+00 0. -1.
         22    1    1    2    0    0  0.16844079580E+04  0.93701300581E+03  0.19243691501E+03  0.19370739553E+04  0.00000000000E+00 0.  1.
<mgrwt>
<rscale>  0 0.38644497E+04</rscale>
<asrwt>0</asrwt>
<pdfrwt beam="1">  1        2 0.28565250E+00 0.38644497E+04</pdfrwt>
<pdfrwt beam="2">  1       -2 0.30935034E+00 0.38644497E+04</pdfrwt>
<totfact> 0.17825537E-01</totfact>
</mgrwt>
</event>
<event>
 6    1  0.5026615E-004  0.8316580E+03  0.7818608E-02  0.9515291E-01
         -2   -1    0    0    0  501 -0.00000000000E+00  0.00000000000E+00  0.17705492626E+03  0.17705492626E+03  0.00000000000E+00 0. -1.
          2   -1    0    0  501    0  0.00000000000E+00 -0.00000000000E+00 -0.97661085940E+03  0.97661085940E+03  0.00000000000E+00 0.  1.
         23    2    1    2    0    0 -0.24697545643E+02 -0.35582664022E+03 -0.68753010920E+03  0.77980437835E+03  0.90413775343E+02 0.  0.
         13    1    3    3    0    0 -0.19651362140E+02 -0.22819118406E+03 -0.34377806813E+03  0.41308685847E+03  0.00000000000E+00 0. -1.
        -13    1    3    3    0    0 -0.50461835024E+01 -0.12763545616E+03 -0.34375204108E+03  0.36671751987E+03  0.00000000000E+00 0.  1.
         22    1    1    2    0    0  0.24697545643E+02  0.35582664022E+03 -0.11202582394E+03  0.37386140732E+03  0.00000000000E+00 0. -1.
<mgrwt>
<rscale>  0 0.83165802E+03</rscale>
<asrwt>0</asrwt>
<pdfrwt beam="1">  1        2 0.15024782E+00 0.83165802E+03</pdfrwt>
<pdfrwt beam="2">  1       -2 0.27239220E-01 0.83165802E+03</pdfrwt>
<totfact> 0.32088289E+02</totfact>
</mgrwt>
</event>
<event>
 6    1  0.5026615E-004  0.2406217E+04  0.7818608E-02  0.8437180E-01
          2   -1    0    0  501    0  0.00000000000E+00  0.00000000000E+00  0.11467309491E+04  0.11467309491E+04  0.00000000000E+00 0.  1.
         -2   -1    0    0    0  501 -0.00000000000E+00 -0.00000000000E+00 -0.12622577307E+04  0.12622577307E+04  0.00000000000E+00 0. -1.
         23    2    1    2    0    0 -0.60450455247E+03  0.10242863024E+04 -0.22660867481E+03  0.12144480274E+04  0.94574501752E+02 0.  0.
         13    1    3    3    0    0 -0.17965376519E+03  0.31667368800E+03 -0.25701059970E+02  0.36499074578E+03  0.00000000000E+00 0.  1.
        -13    1    3    3    0    0 -0.42485078727E+03  0.70761261441E+03 -0.20090761484E+03  0.84945728157E+03  0.00000000000E+00 0. -1.
         22    1    1    2    0    0  0.60450455247E+03 -0.10242863024E+04  0.11108189318E+03  0.11945406524E+04  0.00000000000E+00 0.  1.
<mgrwt>
<rscale>  0 0.24062170E+04</rscale>
<asrwt>0</asrwt>
<pdfrwt beam="1">  1        2 0.17642015E+00 0.24062170E+04</pdfrwt>
<pdfrwt beam="2">  1       -2 0.19419350E+00 0.24062170E+04</pdfrwt>
<totfact> 0.26633660E+00</totfact>
</mgrwt>
</event>
<event>
 6    1  0.5026615E-004  0.7611034E+03  0.7818608E-02  0.9618090E-01
          2   -1    0    0  501    0  0.00000000000E+00  0.00000000000E+00  0.10524640567E+04  0.10524640567E+04  0.00000000000E+00 0.  1.
         -2   -1    0    0    0  501 -0.00000000000E+00 -0.00000000000E+00 -0.13760052373E+03  0.13760052373E+03  0.00000000000E+00 0. -1.
         23    2    1    2    0    0 -0.78808320482E+02 -0.31378379051E+03  0.76023634318E+03  0.83148322789E+03  0.93456097818E+02 0.  0.
         11    1    3    3    0    0 -0.32192858460E+02 -0.15478780956E+03  0.25765146516E+03  0.30229112395E+03  0.00000000000E+00 0. -1.
        -11    1    3    3    0    0 -0.46615462022E+02 -0.15899598095E+03  0.50258487802E+03  0.52919210394E+03  0.00000000000E+00 0.  1.
         22    1    1    2    0    0  0.78808320482E+02  0.31378379051E+03  0.15462718980E+03  0.35858135254E+03  0.00000000000E+00 0. -1.
<mgrwt>
<rscale>  0 0.76110342E+03</rscale>
<asrwt>0</asrwt>
<pdfrwt beam="1">  1        2 0.16191754E+00 0.76110342E+03</pdfrwt>
<pdfrwt beam="2">  1       -2 0.21169312E-01 0.76110342E+03</pdfrwt>
<totfact> 0.45303950E+02</totfact>
</mgrwt>
</event>
<event>
 6    1  0.5026615E-004  0.1724209E+04  0.7818608E-02  0.8747676E-01
         -2   -1    0    0    0  501 -0.00000000000E+00  0.00000000000E+00  0.50061217189E+03  0.50061217189E+03  0.00000000000E+00 0. -1.
          2   -1    0    0  501    0  0.00000000000E+00 -0.00000000000E+00 -0.14846314285E+04  0.14846314285E+04  0.00000000000E+00 0.  1.
         23    2    1    2    0    0 -0.37581674205E+03  0.28029007902E+03  0.33619571690E+03  0.58425526057E+03  0.92335786337E+02 0.  0.
         13    1    3    3    0    0 -0.30143260263E+03  0.24393163375E+03  0.23466487442E+03  0.45324591466E+03  0.00000000000E+00 0.  1.
        -13    1    3    3    0    0 -0.74384139425E+02  0.36358445272E+02  0.10153084249E+03  0.13100934591E+03  0.00000000000E+00 0. -1.
         22    1    1    2    0    0  0.37581674205E+03 -0.28029007902E+03 -0.13202149735E+04  0.14009883398E+04  0.00000000000E+00 0.  1.
<mgrwt>
<rscale>  0 0.17242095E+04</rscale>
<asrwt>0</asrwt>
<pdfrwt beam="1">  1        2 0.22840483E+00 0.17242095E+04</pdfrwt>
<pdfrwt beam="2">  1       -2 0.77017258E-01 0.17242095E+04</pdfrwt>
<totfact> 0.18513157E+01</totfact>
</mgrwt>
</event>
<event>
 6    1  0.5026615E-004  0.4299730E+04  0.7818608E-02  0.7946668E-01
         -2   -1    0    0    0  501 -0.00000000000E+00  0.00000000000E+00  0.16054597474E+04  0.16054597474E+04  0.00000000000E+00 0. -1.
          2   -1    0    0  501    0  0.00000000000E+00 -0.00000000000E+00 -0.28788758246E+04  0.28788758246E+04  0.00000000000E+00 0.  1.
         23    2    1    2    0    0 -0.18554321786E+03 -0.19533496568E+04 -0.15508492776E+04  0.25026770878E+04  0.90873299860E+02 0.  0.
         11    1    3    3    0    0 -0.45041460628E+02 -0.89239959209E+03 -0.67767093708E+03  0.11214471294E+04  0.00000000000E+00 0. -1.
        -11    1    3    3    0    0 -0.14050175723E+03 -0.10609500647E+04 -0.87317834051E+03  0.13812299584E+04  0.00000000000E+00 0.  1.
         22    1    1    2    0    0  0.18554321786E+03  0.19533496568E+04  0.27743320036E+03  0.19816584842E+04  0.00000000000E+00 0. -1.
<mgrwt>
<rscale>  0 0.42997299E+04</rscale>
<asrwt>0</asrwt>
<pdfrwt beam="1">  1        2 0.44290398E+00 0.42997299E+04</pdfrwt>
<pdfrwt beam="2">  1       -2 0.24699381E+00 0.42997299E+04</pdfrwt>
<totfact> 0.10686240E-01</totfact>
</mgrwt>
</event>
<event>
 6    1  0.5026615E-004  0.4550922E+04  0.7818608E-02  0.7901782E-01
         -2   -1    0    0    0  501 -0.00000000000E+00  0.00000000000E+00  0.23764690659E+04  0.23764690659E+04  0.00000000000E+00 0. -1.
          2   -1    0    0  501    0  0.00000000000E+00 -0.00000000000E+00 -0.21787463445E+04  0.21787463445E+04  0.00000000000E+00 0.  1.
         23    2    1    2    0    0  0.66973391246E+03 -0.73617376996E+03  0.21460852025E+04  0.23673827636E+04  0.91236614625E+02 0.  0.
         11    1    3    3    0    0  0.24131731691E+03 -0.24225605129E+03  0.83527651101E+03  0.90255686340E+03  0.00000000000E+00 0. -1.
        -11    1    3    3    0    0  0.42841659555E+03 -0.49391771867E+03  0.13108086915E+04  0.14648259002E+04  0.00000000000E+00 0.  1.
         22    1    1    2    0    0 -0.66973391246E+03  0.73617376996E+03 -0.19483624811E+04  0.21878326469E+04  0.00000000000E+00 0.  1.
<mgrwt>
<rscale>  0 0.45509222E+04</rscale>
<asrwt>0</asrwt>
<pdfrwt beam="1">  1        2 0.33519175E+00 0.45509222E+04</pdfrwt>
<pdfrwt beam="2">  1       -2 0.36561063E+00 0.45509222E+04</pdfrwt>
<totfact> 0.49607105E-02</totfact>
</mgrwt>
</event>
<event>
 6    1  0.5026615E-004  0.2842906E+04  0.7818608E-02  0.8290070E-01
          2   -1    0    0  501    0  0.00000000000E+00  0.00000000000E+00  0.23722693974E+04  0.23722693974E+04  0.00000000000E+00 0.  1.
         -2   -1    0    0    0  501 -0.00000000000E+00 -0.00000000000E+00 -0.85172830976E+03  0.85172830976E+03  0.00000000000E+00 0. -1.
         23    2    1    2    0    0 -0.17572830858E+01  0.99536125557E+03  0.19095512551E+04  0.21553181352E+04  0.90901876191E+02 0.  0.
         13    1    3    3    0    0  0.21847516347E+02  0.71230919870E+03  0.14362070073E+04  0.16032941952E+04  0.00000000000E+00 0. -1.
        -13    1    3    3    0    0 -0.23604799432E+02  0.28305205687E+03  0.47334424775E+03  0.55202394000E+03  0.00000000000E+00 0.  1.
         22    1    1    2    0    0  0.17572830858E+01 -0.99536125557E+03 -0.38901016743E+03  0.10686795719E+04  0.00000000000E+00 0. -1.
<mgrwt>
<rscale>  0 0.28429063E+04</rscale>
<asrwt>0</asrwt>
<pdfrwt beam="1">  1        2 0.36496452E+00 0.28429063E+04</pdfrwt>
<pdfrwt beam="2">  1       -2 0.13103513E+00 0.28429063E+04</pdfrwt>
<totfact> 0.15217093E+00</totfact>
</mgrwt>
</event>
<event>
 6    1  0.5026615E-004  0.4863126E+04  0.7818608E-02  0.7849975E-01
         -2   -1    0    0    0  501 -0.00000000000E+00  0.00000000000E+00  0.25435425561E+04  0.25435425561E+04  0.00000000000E+00 0. -1.
          2   -1    0    0  501    0  0.00000000000E+00 -0.00000000000E+00 -0.23245130355E+04  0.23245130355E+04  0.00000000000E+00 0.  1.
         23    2    1    2    0    0  0.51575168323E+03 -0.22611718942E+04  0.83741375923E+03  0.24677853567E+04  0.99018322927E+02 0.  0.
         13    1    3    3    0    0  0.37473423297E+03 -0.14560319958E+04  0.51843506727E+03  0.15903552550E+04  0.00000000000E+00 0.  1.
        -13    1    3    3    0    0  0.14101745025E+03 -0.80513989846E+03  0.31897869196E+03  0.87743010165E+03  0.00000000000E+00 0. -1.
         22    1    1    2    0    0 -0.51575168323E+03  0.22611718942E+04 -0.61838423867E+03  0.24002702349E+04  0.00000000000E+00 0.  1.
<mgrwt>
<rscale>  0 0.48631257E+04</rscale>
<asrwt>0</asrwt>
<pdfrwt beam="1">  1        2 0.35761739E+00 0.48631257E+04</pdfrwt>
<pdfrwt beam="2">  1       -2 0.39131424E+00 0.48631257E+04</pdfrwt>
<totfact> 0.27338124E-02</totfact>
</mgrwt>
</event>
<event>
 6    1  0.5026615E-004  0.5322674E+04  0.7818608E-02  0.7780572E-01
         -2   -1    0    0    0  501 -0.00000000000E+00  0.00000000000E+00  0.42888151048E+04  0.42888151048E+04  0.00000000000E+00 0. -1.
          2   -1    0    0  501    0  0.00000000000E+00 -0.00000000000E+00 -0.16514382706E+04  0.16514382706E+04  0.00000000000E+00 0.  1.
         23    2    1    2    0    0  0.11019053997E+04 -0.17540705249E+04 -0.54426499049E+03  0.21437018326E+04  0.90962909878E+02 0.  0.
         13    1    3    3    0    0  0.21067939653E+03 -0.35216103412E+03 -0.71766791365E+02  0.41659773693E+03  0.00000000000E+00 0.  1.
        -13    1    3    3    0    0  0.89122600321E+03 -0.14019094908E+04 -0.47249819913E+03  0.17271040957E+04  0.00000000000E+00 0. -1.
         22    1    1    2    0    0 -0.11019053997E+04  0.17540705249E+04  0.31816418247E+04  0.37965515428E+04  0.00000000000E+00 0. -1.
<mgrwt>
<rscale>  0 0.53226735E+04</rscale>
<asrwt>0</asrwt>
<pdfrwt beam="1">  1        2 0.25406743E+00 0.53226735E+04</pdfrwt>
<pdfrwt beam="2">  1       -2 0.65981770E+00 0.53226735E+04</pdfrwt>
<totfact> 0.23396211E-03</totfact>
</mgrwt>
</event>
<event>
 6    1  0.5026615E-004  0.2402766E+04  0.7818608E-02  0.8438469E-01
          2   -1    0    0  501    0  0.00000000000E+00  0.00000000000E+00  0.23469716830E+04  0.23469716830E+04  0.00000000000E+00 0.  1.
         -2   -1    0    0    0  501 -0.00000000000E+00 -0.00000000000E+00 -0.61497154520E+03  0.61497154520E+03  0.00000000000E+00 0. -1.
         23    2    1    2    0    0 -0.54065154061E+01 -0.11169538067E+04  0.32442591454E+03  0.11650347078E+04  0.66623266788E+02 0.  0.
         11    1    3    3    0    0 -0.19394540382E+02 -0.70346551204E+03  0.17513133903E+03  0.72519711854E+03  0.00000000000E+00 0. -1.
        -11    1    3    3    0    0  0.13988024976E+02 -0.41348829466E+03  0.14929457551E+03  0.43983758927E+03  0.00000000000E+00 0.  1.
         22    1    1    2    0    0  0.54065154061E+01  0.11169538067E+04  0.14075742233E+04  0.17969085204E+04  0.00000000000E+00 0.  1.
<mgrwt>
<rscale>  0 0.24027657E+04</rscale>
<asrwt>0</asrwt>
<pdfrwt beam="1">  1        2 0.36107256E+00 0.24027657E+04</pdfrwt>
<pdfrwt beam="2">  1       -2 0.94611008E-01 0.24027657E+04</pdfrwt>
<totfact> 0.36058791E+00</totfact>
</mgrwt>
</event>
<event>
 6    1  0.5026615E-004  0.9800344E+03  0.7818608E-02  0.9330718E-01
         -2   -1    0    0    0  501 -0.00000000000E+00  0.00000000000E+00  0.36580340753E+03  0.36580340753E+03  0.00000000000E+00 0. -1.
          2   -1    0    0  501    0  0.00000000000E+00 -0.00000000000E+00 -0.65640956394E+03  0.65640956394E+03  0.00000000000E+00 0.  1.
         23    2    1    2    0    0  0.15514506679E+03  0.19673655269E+03 -0.58069202029E+03  0.63890490824E+03  0.90669710638E+02 0.  0.
         13    1    3    3    0    0  0.73303777178E+01  0.47747796161E+02 -0.18255509391E+03  0.18883841979E+03  0.00000000000E+00 0.  1.
        -13    1    3    3    0    0  0.14781468907E+03  0.14898875653E+03 -0.39813692639E+03  0.45006648845E+03  0.00000000000E+00 0. -1.
         22    1    1    2    0    0 -0.15514506679E+03 -0.19673655269E+03  0.29008586388E+03  0.38330806323E+03  0.00000000000E+00 0. -1.
<mgrwt>
<rscale>  0 0.98003440E+03</rscale>
<asrwt>0</asrwt>
<pdfrwt beam="1">  1        2 0.10098609E+00 0.98003440E+03</pdfrwt>
<pdfrwt beam="2">  1       -2 0.56277448E-01 0.98003440E+03</pdfrwt>
<totfact> 0.13161678E+02</totfact>
</mgrwt>
</event>
<event>
 6    1  0.5026615E-004  0.1887124E+04  0.7818608E-02  0.8661292E-01
          2   -1    0    0  501    0  0.00000000000E+00  0.00000000000E+00  0.13132455068E+04  0.13132455068E+04  0.00000000000E+00 0.  1.
         -2   -1    0    0    0  501 -0.00000000000E+00 -0.00000000000E+00 -0.67794590641E+03  0.67794590641E+03  0.00000000000E+00 0. -1.
         23    2    1    2    0    0 -0.88000132271E+03 -0.31764810222E+03  0.20771854539E+03  0.96253782555E+03  0.89607068332E+02 0.  0.
         11    1    3    3    0    0 -0.60618261574E+03 -0.17461646010E+03  0.14605425171E+03  0.64751842924E+03  0.00000000000E+00 0. -1.
        -11    1    3    3    0    0 -0.27381870698E+03 -0.14303164212E+03  0.61664293682E+02  0.31501939631E+03  0.00000000000E+00 0.  1.
         22    1    1    2    0    0  0.88000132271E+03  0.31764810222E+03  0.42758105500E+03  0.10286535877E+04  0.00000000000E+00 0. -1.
<mgrwt>
<rscale>  0 0.18871242E+04</rscale>
<asrwt>0</asrwt>
<pdfrwt beam="1">  1        2 0.20203777E+00 0.18871242E+04</pdfrwt>
<pdfrwt beam="2">  1       -2 0.10429937E+00 0.18871242E+04</pdfrwt>
<totfact> 0.11375264E+01</totfact>
</mgrwt>
</event>
<event>
 6    1  0.5026615E-004  0.8820829E+03  0.7818608E-02  0.9448260E-01
         -2   -1    0    0    0  501 -0.00000000000E+00  0.00000000000E+00  0.12092798839E+03  0.12092798839E+03  0.00000000000E+00 0. -1.
          2   -1    0    0  501    0  0.00000000000E+00 -0.00000000000E+00 -0.16085406022E+04  0.16085406022E+04  0.00000000000E+00 0.  1.
         23    2    1    2    0    0  0.24470909374E+03 -0.31207099623E+03 -0.11085071943E+04  0.11808414254E+04  0.91254725491E+02 0.  0.
         11    1    3    3    0    0  0.24788432502E+03 -0.27860796497E+03 -0.10304663976E+04  0.10958695330E+04  0.00000000000E+00 0.  1.
        -11    1    3    3    0    0 -0.31752312812E+01 -0.33463031262E+02 -0.78040796719E+02  0.84971892456E+02  0.00000000000E+00 0. -1.
         22    1    1    2    0    0 -0.24470909374E+03  0.31207099623E+03 -0.37910541948E+03  0.54862716514E+03  0.00000000000E+00 0. -1.
<mgrwt>
<rscale>  0 0.88208294E+03</rscale>
<asrwt>0</asrwt>
<pdfrwt beam="1">  1        2 0.24746778E+00 0.88208294E+03</pdfrwt>
<pdfrwt beam="2">  1       -2 0.18604307E-01 0.88208294E+03</pdfrwt>
<totfact> 0.26883488E+02</totfact>
</mgrwt>
</event>
<event>
 6    1  0.5026615E-004  0.1527428E+04  0.7818608E-02  0.8866416E-01
          2   -1    0    0  501    0  0.00000000000E+00  0.00000000000E+00  0.35229269177E+04  0.35229269177E+04  0.00000000000E+00 0.  1.
         -2   -1    0    0    0  501 -0.00000000000E+00 -0.00000000000E+00 -0.16556099444E+03  0.16556099444E+03  0.00000000000E+00 0. -1.
         23    2    1    2    0    0  0.15677334490E+02 -0.16618328489E+03  0.34775210671E+04  0.34828184648E+04  0.94915873921E+02 0.  0.
         11    1    3    3    0    0 -0.37382362508E+02 -0.99229431002E+02  0.20561881784E+04  0.20589205293E+04  0.00000000000E+00 0. -1.
        -11    1    3    3    0    0  0.53059696998E+02 -0.66953853889E+02  0.14213328887E+04  0.14238979354E+04  0.00000000000E+00 0.  1.
         22    1    1    2    0    0 -0.15677334490E+02  0.16618328489E+03 -0.12015514387E+03  0.20566944739E+03  0.00000000000E+00 0. -1.
<mgrwt>
<rscale>  0 0.15274283E+04</rscale>
<asrwt>0</asrwt>
<pdfrwt beam="1">  1        2 0.54198870E+00 0.15274283E+04</pdfrwt>
<pdfrwt beam="2">  1       -2 0.25470925E-01 0.15274283E+04</pdfrwt>
<totfact> 0.10620565E+01</totfact>
</mgrwt>
</event>
<event>
 6    1  0.5026615E-004  0.1802496E+04  0.7818608E-02  0.8704973E-01
         -2   -1    0    0    0  501 -0.00000000000E+00  0.00000000000E+00  0.26954316897E+03  0.26954316897E+03  0.00000000000E+00 0. -1.
          2   -1    0    0  501    0  0.00000000000E+00 -0.00000000000E+00 -0.30134235470E+04  0.30134235470E+04  0.00000000000E+00 0.  1.
         23    2    1    2    0    0  0.27462467856E+02  0.59649767644E+03 -0.15184784309E+03  0.62304259539E+03  0.92523743304E+02 0.  0.
         11    1    3    3    0    0  0.21282925406E+02  0.85648637366E+02  0.56391430411E+01  0.88433319121E+02  0.00000000000E+00 0. -1.
        -11    1    3    3    0    0  0.61795424494E+01  0.51084903907E+03 -0.15748698613E+03  0.53460927626E+03  0.00000000000E+00 0.  1.
         22    1    1    2    0    0 -0.27462467856E+02 -0.59649767644E+03 -0.25920325350E+04  0.26599241206E+04  0.00000000000E+00 0.  1.
<mgrwt>
<rscale>  0 0.18024958E+04</rscale>
<asrwt>0</asrwt>
<pdfrwt beam="1">  1        2 0.46360363E+00 0.18024958E+04</pdfrwt>
<pdfrwt beam="2">  1       -2 0.41468180E-01 0.18024958E+04</pdfrwt>
<totfact> 0.89153663E+00</totfact>
</mgrwt>
</event>
<event>
 6    1  0.5026615E-004  0.1901290E+04  0.7818608E-02  0.8654214E-01
          2   -1    0    0  501    0  0.00000000000E+00  0.00000000000E+00  0.11778946045E+04  0.11778946045E+04  0.00000000000E+00 0.  1.
         -2   -1    0    0    0  501 -0.00000000000E+00 -0.00000000000E+00 -0.76723842342E+03  0.76723842342E+03  0.00000000000E+00 0. -1.
         23    2    1    2    0    0  0.29524874336E+03 -0.46984047658E+03  0.99264203964E+03  0.11410003067E+04  0.92852501500E+02 0.  0.
         13    1    3    3    0    0  0.26135000817E+03 -0.45379996601E+03  0.90356079269E+03  0.10443468495E+04  0.00000000000E+00 0. -1.
        -13    1    3    3    0    0  0.33898735189E+02 -0.16040510576E+02  0.89081246950E+02  0.96653457181E+02  0.00000000000E+00 0.  1.
         22    1    1    2    0    0 -0.29524874336E+03  0.46984047658E+03 -0.58198585854E+03  0.80413272128E+03  0.00000000000E+00 0. -1.
<mgrwt>
<rscale>  0 0.19012901E+04</rscale>
<asrwt>0</asrwt>
<pdfrwt beam="1">  1        2 0.18121455E+00 0.19012901E+04</pdfrwt>
<pdfrwt beam="2">  1       -2 0.11803668E+00 0.19012901E+04</pdfrwt>
<totfact> 0.10117934E+01</totfact>
</mgrwt>
</event>
<event>
 6    1  0.5026615E-004  0.1238576E+04  0.7818608E-02  0.9079745E-01
          2   -1    0    0  501    0  0.00000000000E+00  0.00000000000E+00  0.13996180909E+04  0.13996180909E+04  0.00000000000E+00 0.  1.
         -2   -1    0    0    0  501 -0.00000000000E+00 -0.00000000000E+00 -0.27401599221E+03  0.27401599221E+03  0.00000000000E+00 0. -1.
         23    2    1    2    0    0  0.21640520553E+03 -0.19780843701E+03  0.12974631733E+04  0.13337876182E+04  0.98078201815E+02 0.  0.
         11    1    3    3    0    0  0.77142277912E+02 -0.63117173999E+02  0.66153000248E+03  0.66899675102E+03  0.00000000000E+00 0.  1.
        -11    1    3    3    0    0  0.13926292762E+03 -0.13469126301E+03  0.63593317080E+03  0.66479086716E+03  0.00000000000E+00 0. -1.
         22    1    1    2    0    0 -0.21640520553E+03  0.19780843701E+03 -0.17186107462E+03  0.33984646490E+03  0.00000000000E+00 0. -1.
<mgrwt>
<rscale>  0 0.12385762E+04</rscale>
<asrwt>0</asrwt>
<pdfrwt beam="1">  1        2 0.21532586E+00 0.12385762E+04</pdfrwt>
<pdfrwt beam="2">  1       -2 0.42156307E-01 0.12385762E+04</pdfrwt>
<totfact> 0.75958547E+01</totfact>
</mgrwt>
</event>
<event>
 6    1  0.5026615E-004  0.2598559E+04  0.7818608E-02  0.8368691E-01
         -2   -1    0    0    0  501 -0.00000000000E+00  0.00000000000E+00  0.12446052466E+04  0.12446052466E+04  0.00000000000E+00 0. -1.
          2   -1    0    0  501    0  0.00000000000E+00 -0.00000000000E+00 -0.13563550692E+04  0.13563550692E+04  0.00000000000E+00 0.  1.
         23    2    1    2    0    0 -0.22678562275E+03  0.11173533981E+04  0.56433034633E+03  0.12754435375E+04  0.91526731802E+02 0.  0.
         13    1    3    3    0    0 -0.17822702567E+03  0.81546206601E+03  0.36921502782E+03  0.91272284432E+03  0.00000000000E+00 0. -1.
        -13    1    3    3    0    0 -0.48558597075E+02  0.30189133206E+03  0.19511531852E+03  0.36272069316E+03  0.00000000000E+00 0.  1.
         22    1    1    2    0    0  0.22678562275E+03 -0.11173533981E+04 -0.67608016885E+03  0.13255167783E+04  0.00000000000E+00 0.  1.
<mgrwt>
<rscale>  0 0.25985586E+04</rscale>
<asrwt>0</asrwt>
<pdfrwt beam="1">  1        2 0.20867001E+00 0.25985586E+04</pdfrwt>
<pdfrwt beam="2">  1       -2 0.19147773E+00 0.25985586E+04</pdfrwt>
<totfact> 0.20550989E+00</totfact>
</mgrwt>
</event>
<event>
 6    1  0.5026615E-004  0.1428507E+04  0.7818608E-02  0.8933439E-01
          2   -1    0    0  501    0  0.00000000000E+00  0.00000000000E+00  0.17510334840E+04  0.17510334840E+04  0.00000000000E+00 0.  1.
         -2   -1    0    0    0  501 -0.00000000000E+00 -0.00000000000E+00 -0.29134667131E+03  0.29134667131E+03  0.00000000000E+00 0. -1.
         23    2    1    2    0    0 -0.35030035781E+03 -0.71623578605E+02  0.16119810993E+04  0.16537494471E+04  0.92541295281E+02 0.  0.
         11    1    3    3    0    0 -0.17098090312E+03 -0.59298752533E+02  0.63105886032E+03  0.65649531336E+03  0.00000000000E+00 0.  1.
        -11    1    3    3    0    0 -0.17931945470E+03 -0.12324826072E+02  0.98092223902E+03  0.99725413370E+03  0.00000000000E+00 0. -1.
         22    1    1    2    0    0  0.35030035781E+03  0.71623578605E+02 -0.15229428660E+03  0.38863070829E+03  0.00000000000E+00 0. -1.
<mgrwt>
<rscale>  0 0.14285066E+04</rscale>
<asrwt>0</asrwt>
<pdfrwt beam="1">  1        2 0.26938976E+00 0.14285066E+04</pdfrwt>
<pdfrwt beam="2">  1       -2 0.44822566E-01 0.14285066E+04</pdfrwt>
<totfact> 0.42116528E+01</totfact>
</mgrwt>
</event>
<event>
 6    1  0.5026615E-004  0.5531956E+04  0.7818608E-02  0.7751307E-01
          2   -1    0    0  501    0  0.00000000000E+00  0.00000000000E+00  0.45428236054E+04  0.45428236054E+04  0.00000000000E+00 0.  1.
         -2   -1    0    0    0  501 -0.00000000000E+00 -0.00000000000E+00 -0.16841144355E+04  0.16841144355E+04  0.00000000000E+00 0. -1.
         23    2    1    2    0    0 -0.71885490451E+03 -0.20657502017E+04  0.33341495638E+04  0.39886083428E+04  0.91470916954E+02 0.  0.
         11    1    3    3    0    0 -0.60997692931E+03 -0.16623135911E+04  0.26602631803E+04  0.31956780999E+04  0.00000000000E+00 0. -1.
        -11    1    3    3    0    0 -0.10887797520E+03 -0.40343661060E+03  0.67388638349E+03  0.79293024290E+03  0.00000000000E+00 0.  1.
         22    1    1    2    0    0  0.71885490451E+03  0.20657502017E+04 -0.47544039393E+03  0.22383296982E+04  0.00000000000E+00 0. -1.
<mgrwt>
<rscale>  0 0.55319562E+04</rscale>
<asrwt>0</asrwt>
<pdfrwt beam="1">  1        2 0.69889593E+00 0.55319562E+04</pdfrwt>
<pdfrwt beam="2">  1       -2 0.25909453E+00 0.55319562E+04</pdfrwt>
<totfact> 0.43533671E-03</totfact>
</mgrwt>
</event>
<event>
 6    1  0.5026615E-004  0.7666902E+03  0.7818608E-02  0.9609524E-01
         -2   -1    0    0    0  501 -0.00000000000E+00  0.00000000000E+00  0.47116499947E+03  0.47116499947E+03  0.00000000000E+00 0. -1.
          2   -1    0    0  501    0  0.00000000000E+00 -0.00000000000E+00 -0.31189385064E+03  0.31189385064E+03  0.00000000000E+00 0.  1.
         23    2    1    2    0    0  0.73657631608E+02 -0.35043040949E+03 -0.42288796700E+02  0.37214118168E+03  0.92053235594E+02 0.  0.
         13    1    3    3    0    0  0.44219440657E+02 -0.21603177195E+03  0.19393602707E+02  0.22136214051E+03  0.00000000000E+00 0. -1.
        -13    1    3    3    0    0  0.29438190950E+02 -0.13439863754E+03 -0.61682399407E+02  0.15077904117E+03  0.00000000000E+00 0.  1.
         22    1    1    2    0    0 -0.73657631608E+02  0.35043040949E+03  0.20155994553E+03  0.41091766844E+03  0.00000000000E+00 0.  1.
<mgrwt>
<rscale>  0 0.76669020E+03</rscale>
<asrwt>0</asrwt>
<pdfrwt beam="1">  1        2 0.47983669E-01 0.76669020E+03</pdfrwt>
<pdfrwt beam="2">  1       -2 0.72486923E-01 0.76669020E+03</pdfrwt>
<totfact> 0.18256942E+02</totfact>
</mgrwt>
</event>
<event>
 6    1  0.5026615E-004  0.6290531E+03  0.7818608E-02  0.9846898E-01
          2   -1    0    0  501    0  0.00000000000E+00  0.00000000000E+00  0.55729522615E+03  0.55729522615E+03  0.00000000000E+00 0.  1.
         -2   -1    0    0    0  501 -0.00000000000E+00 -0.00000000000E+00 -0.17751266617E+03  0.17751266617E+03  0.00000000000E+00 0. -1.
         23    2    1    2    0    0 -0.85096272744E+02 -0.12890156288E+03  0.50504760432E+03  0.53594029847E+03  0.91114940305E+02 0.  0.
         11    1    3    3    0    0 -0.35524906782E+02 -0.18070155655E+02  0.25362305836E+03  0.25673567196E+03  0.00000000000E+00 0.  1.
        -11    1    3    3    0    0 -0.49571365963E+02 -0.11083140722E+03  0.25142454596E+03  0.27920462651E+03  0.00000000000E+00 0. -1.
         22    1    1    2    0    0  0.85096272744E+02  0.12890156288E+03 -0.12526504435E+03  0.19886759385E+03  0.00000000000E+00 0. -1.
<mgrwt>
<rscale>  0 0.62905313E+03</rscale>
<asrwt>0</asrwt>
<pdfrwt beam="1">  1        2 0.85737726E-01 0.62905313E+03</pdfrwt>
<pdfrwt beam="2">  1       -2 0.27309641E-01 0.62905313E+03</pdfrwt>
<totfact> 0.66491460E+02</totfact>
</mgrwt>
</event>
<event>
 6    1  0.5026615E-004  0.3376679E+04  0.7818608E-02  0.8143654E-01
         -2   -1    0    0    0  501 -0.00000000000E+00  0.00000000000E+00  0.21099449235E+04  0.21099449235E+04  0.00000000000E+00 0. -1.
          2   -1    0    0  501    0  0.00000000000E+00 -0.00000000000E+00 -0.13509787371E+04  0.13509787371E+04  0.00000000000E+00 0.  1.
         23    2    1    2    0    0  0.15123763828E+04 -0.34201605192E+03  0.10613178533E+04  0.18811534768E+04  0.89919489522E+02 0.  0.
         13    1    3    3    0    0  0.10015519379E+04 -0.23287137450E+03  0.75415639257E+03  0.12751812521E+04  0.00000000000E+00 0.  1.
        -13    1    3    3    0    0  0.51082444494E+03 -0.10914467742E+03  0.30716146075E+03  0.60597222472E+03  0.00000000000E+00 0. -1.
         22    1    1    2    0    0 -0.15123763828E+04  0.34201605192E+03 -0.30235166687E+03  0.15797701838E+04  0.00000000000E+00 0.  1.
<mgrwt>
<rscale>  0 0.33766793E+04</rscale>
<asrwt>0</asrwt>
<pdfrwt beam="1">  1        2 0.20784288E+00 0.33766793E+04</pdfrwt>
<pdfrwt beam="2">  1       -2 0.32460691E+00 0.33766793E+04</pdfrwt>
<totfact> 0.28731415E-01</totfact>
</mgrwt>
</event>
<event>
 6    1  0.5026615E-004  0.1958134E+04  0.7818608E-02  0.8626448E-01
         -4   -1    0    0    0  501 -0.00000000000E+00  0.00000000000E+00  0.12527049654E+04  0.12527049654E+04  0.00000000000E+00 0. -1.
          4   -1    0    0  501    0  0.00000000000E+00 -0.00000000000E+00 -0.76520220967E+03  0.76520220967E+03  0.00000000000E+00 0.  1.
         23    2    1    2    0    0  0.50479792773E+03  0.56253946130E+03  0.88219232117E+03  0.11652340569E+04  0.90749779271E+02 0.  0.
         11    1    3    3    0    0  0.21974782141E+03  0.20440966964E+03  0.29629622384E+03  0.42173910219E+03  0.00000000000E+00 0.  1.
        -11    1    3    3    0    0  0.28505010632E+03  0.35812979166E+03  0.58589609734E+03  0.74349495470E+03  0.00000000000E+00 0. -1.
         22    1    1    2    0    0 -0.50479792773E+03 -0.56253946130E+03 -0.39468956545E+03  0.85267311816E+03  0.00000000000E+00 0.  1.
<mgrwt>
<rscale>  0 0.19581344E+04</rscale>
<asrwt>0</asrwt>
<pdfrwt beam="1">  1        4 0.11772342E+00 0.19581344E+04</pdfrwt>
<pdfrwt beam="2">  1       -4 0.19272384E+00 0.19581344E+04</pdfrwt>
<totfact> 0.15236467E-01</totfact>
</mgrwt>
</event>
<event>
 6    1  0.5026615E-004  0.2085685E+04  0.7818608E-02  0.8567576E-01
          2   -1    0    0  501    0  0.00000000000E+00  0.00000000000E+00  0.92760776355E+03  0.92760776355E+03  0.00000000000E+00 0.  1.
         -2   -1    0    0    0  501 -0.00000000000E+00 -0.00000000000E+00 -0.11723926005E+04  0.11723926005E+04  0.00000000000E+00 0. -1.
         23    2    1    2    0    0 -0.41398155169E+03 -0.70711149614E+03 -0.76814969428E+03  0.11277359109E+04  0.10171990328E+03 0.  0.
         13    1    3    3    0    0 -0.32627242903E+03 -0.46410719652E+03 -0.52978072653E+03  0.77621956044E+03  0.00000000000E+00 0. -1.
        -13    1    3    3    0    0 -0.87709122663E+02 -0.24300429962E+03 -0.23836896775E+03  0.35151635043E+03  0.00000000000E+00 0.  1.
         22    1    1    2    0    0  0.41398155169E+03  0.70711149614E+03  0.52336485730E+03  0.97226445321E+03  0.00000000000E+00 0.  1.
<mgrwt>
<rscale>  0 0.20856850E+04</rscale>
<asrwt>0</asrwt>
<pdfrwt beam="1">  1        2 0.14270889E+00 0.20856850E+04</pdfrwt>
<pdfrwt beam="2">  1       -2 0.18036809E+00 0.20856850E+04</pdfrwt>
<totfact> 0.46712353E+00</totfact>
</mgrwt>
</event>
<event>
 6    1  0.5026615E-004  0.2423808E+04  0.7818608E-02  0.8430644E-01
          1   -1    0    0  501    0  0.00000000000E+00  0.00000000000E+00  0.19587665000E+04  0.19587665000E+04  0.00000000000E+00 0.  1.
         -1   -1    0    0    0  501 -0.00000000000E+00 -0.00000000000E+00 -0.74981420978E+03  0.74981420978E+03  0.00000000000E+00 0. -1.
         23    2    1    2    0    0 -0.87169487987E+03 -0.75153203978E+03  0.18757134009E+03  0.11697917653E+04  0.92614232758E+02 0.  0.
         13    1    3    3    0    0 -0.61204204406E+03 -0.57964246659E+03  0.12505435609E+03  0.85218510005E+03  0.00000000000E+00 0. -1.
        -13    1    3    3    0    0 -0.25965283581E+03 -0.17188957319E+03  0.62516983999E+02  0.31760666524E+03  0.00000000000E+00 0.  1.
         22    1    1    2    0    0  0.87169487987E+03  0.75153203978E+03  0.10213809502E+04  0.15387889445E+04  0.00000000000E+00 0. -1.
<mgrwt>
<rscale>  0 0.24238077E+04</rscale>
<asrwt>0</asrwt>
<pdfrwt beam="1">  1        1 0.30134869E+00 0.24238077E+04</pdfrwt>
<pdfrwt beam="2">  1       -1 0.11535603E+00 0.24238077E+04</pdfrwt>
<totfact> 0.19362280E+00</totfact>
</mgrwt>
</event>
<event>
 6    1  0.5026615E-004  0.2616218E+04  0.7818608E-02  0.8362713E-01
          2   -1    0    0  501    0  0.00000000000E+00  0.00000000000E+00  0.17413164699E+04  0.17413164699E+04  0.00000000000E+00 0.  1.
         -2   -1    0    0    0  501 -0.00000000000E+00 -0.00000000000E+00 -0.98267569887E+03  0.98267569887E+03  0.00000000000E+00 0. -1.
         23    2    1    2    0    0  0.12695519214E+04  0.29559598706E+03  0.47067244768E+03  0.13890521611E+04  0.93777846745E+02 0.  0.
         13    1    3    3    0    0  0.10498384370E+04  0.24537278083E+03  0.42625301432E+03  0.11593360935E+04  0.00000000000E+00 0.  1.
        -13    1    3    3    0    0  0.21971348440E+03  0.50223206234E+02  0.44419433362E+02  0.22971606764E+03  0.00000000000E+00 0. -1.
         22    1    1    2    0    0 -0.12695519214E+04 -0.29559598706E+03  0.28796832334E+03  0.13349400076E+04  0.00000000000E+00 0. -1.
<mgrwt>
<rscale>  0 0.26162182E+04</rscale>
<asrwt>0</asrwt>
<pdfrwt beam="1">  1        2 0.26789484E+00 0.26162182E+04</pdfrwt>
<pdfrwt beam="2">  1       -2 0.15118088E+00 0.26162182E+04</pdfrwt>
<totfact> 0.24114642E+00</totfact>
</mgrwt>
</event>
<event>
 6    1  0.5026615E-004  0.3257328E+04  0.7818608E-02  0.8173839E-01
          2   -1    0    0  501    0  0.00000000000E+00  0.00000000000E+00  0.18245468517E+04  0.18245468517E+04  0.00000000000E+00 0.  1.
         -2   -1    0    0    0  501 -0.00000000000E+00 -0.00000000000E+00 -0.14538113484E+04  0.14538113484E+04  0.00000000000E+00 0. -1.
         23    2    1    2    0    0  0.51724716123E+03 -0.89009736032E+03 -0.10830425082E+04  0.14969855710E+04  0.90370285448E+02 0.  0.
         11    1    3    3    0    0  0.24631233650E+03 -0.50510727944E+03 -0.56181337163E+03  0.79463035142E+03  0.00000000000E+00 0. -1.
        -11    1    3    3    0    0  0.27093482474E+03 -0.38499008088E+03 -0.52122913659E+03  0.70235521957E+03  0.00000000000E+00 0.  1.
         22    1    1    2    0    0 -0.51724716123E+03  0.89009736032E+03  0.14537780116E+04  0.17813726291E+04  0.00000000000E+00 0.  1.
<mgrwt>
<rscale>  0 0.32573283E+04</rscale>
<asrwt>0</asrwt>
<pdfrwt beam="1">  1        2 0.28069952E+00 0.32573283E+04</pdfrwt>
<pdfrwt beam="2">  1       -2 0.22366328E+00 0.32573283E+04</pdfrwt>
<totfact> 0.65676922E-01</totfact>
</mgrwt>
</event>
<event>
 6    1  0.5026615E-004  0.1204635E+04  0.7818608E-02  0.9108809E-01
         -2   -1    0    0    0  501 -0.00000000000E+00  0.00000000000E+00  0.32053617345E+03  0.32053617345E+03  0.00000000000E+00 0. -1.
          2   -1    0    0  501    0  0.00000000000E+00 -0.00000000000E+00 -0.11318114509E+04  0.11318114509E+04  0.00000000000E+00 0.  1.
         23    2    1    2    0    0 -0.72968740186E+02 -0.59438819314E+03 -0.40077158761E+03  0.72630696396E+03  0.91006479298E+02 0.  0.
         11    1    3    3    0    0 -0.69691308667E+02 -0.20920330014E+03 -0.14298595503E+03  0.26280769134E+03  0.00000000000E+00 0. -1.
        -11    1    3    3    0    0 -0.32774315192E+01 -0.38518489300E+03 -0.25778563258E+03  0.46349927262E+03  0.00000000000E+00 0.  1.
         22    1    1    2    0    0  0.72968740186E+02  0.59438819314E+03 -0.41050368985E+03  0.72604066041E+03  0.00000000000E+00 0. -1.
<mgrwt>
<rscale>  0 0.12046352E+04</rscale>
<asrwt>0</asrwt>
<pdfrwt beam="1">  1        2 0.17412484E+00 0.12046352E+04</pdfrwt>
<pdfrwt beam="2">  1       -2 0.49313257E-01 0.12046352E+04</pdfrwt>
<totfact> 0.79950385E+01</totfact>
</mgrwt>
</event>
<event>
 6    1  0.5026615E-004  0.8265373E+03  0.7818608E-02  0.9522380E-01
         -2   -1    0    0    0  501 -0.00000000000E+00  0.00000000000E+00  0.31552836405E+03  0.31552836405E+03  0.00000000000E+00 0. -1.
          2   -1    0    0  501    0  0.00000000000E+00 -0.00000000000E+00 -0.54128569272E+03  0.54128569272E+03  0.00000000000E+00 0.  1.
         23    2    1    2    0    0 -0.16187187124E+03 -0.86101898420E+02  0.26367590828E+03  0.33416605569E+03  0.92335954836E+02 0.  0.
         13    1    3    3    0    0 -0.15774547784E+03 -0.45153124972E+02  0.20785982081E+03  0.26481719276E+03  0.00000000000E+00 0. -1.
        -13    1    3    3    0    0 -0.41263934077E+01 -0.40948773447E+02  0.55816087467E+02  0.69348862929E+02  0.00000000000E+00 0.  1.
         22    1    1    2    0    0  0.16187187124E+03  0.86101898420E+02 -0.48943323694E+03  0.52264800108E+03  0.00000000000E+00 0.  1.
<mgrwt>
<rscale>  0 0.82653733E+03</rscale>
<asrwt>0</asrwt>
<pdfrwt beam="1">  1        2 0.83274722E-01 0.82653733E+03</pdfrwt>
<pdfrwt beam="2">  1       -2 0.48542825E-01 0.82653733E+03</pdfrwt>
<totfact> 0.22686963E+02</totfact>
</mgrwt>
</event>
<event>
 6    1  0.5026615E-004  0.2283631E+04  0.7818608E-02  0.8484403E-01
          2   -1    0    0  501    0  0.00000000000E+00  0.00000000000E+00  0.32144764341E+04  0.32144764341E+04  0.00000000000E+00 0.  1.
         -2   -1    0    0    0  501 -0.00000000000E+00 -0.00000000000E+00 -0.40558482801E+03  0.40558482801E+03  0.00000000000E+00 0. -1.
         23    2    1    2    0    0 -0.17617547809E+03  0.70735612924E+03  0.17189845096E+02  0.73475552180E+03  0.90441657404E+02 0.  0.
         13    1    3    3    0    0 -0.77919495427E+02  0.26223959367E+03 -0.35596759349E+02  0.27587711310E+03  0.00000000000E+00 0. -1.
        -13    1    3    3    0    0 -0.98255982663E+02  0.44511653557E+03  0.52786604445E+02  0.45887840870E+03  0.00000000000E+00 0.  1.
         22    1    1    2    0    0  0.17617547809E+03 -0.70735612924E+03  0.27917017610E+04  0.28853057403E+04  0.00000000000E+00 0.  1.
<mgrwt>
<rscale>  0 0.22836312E+04</rscale>
<asrwt>0</asrwt>
<pdfrwt beam="1">  1        2 0.49453482E+00 0.22836312E+04</pdfrwt>
<pdfrwt beam="2">  1       -2 0.62397668E-01 0.22836312E+04</pdfrwt>
<totfact> 0.27490979E+00</totfact>
</mgrwt>
</event>
<event>
 6    1  0.5026615E-004  0.3337774E+04  0.7818608E-02  0.8153350E-01
         -2   -1    0    0    0  501 -0.00000000000E+00  0.00000000000E+00  0.18727967160E+04  0.18727967160E+04  0.00000000000E+00 0. -1.
          2   -1    0    0  501    0  0.00000000000E+00 -0.00000000000E+00 -0.14871792406E+04  0.14871792406E+04  0.00000000000E+00 0.  1.
         23    2    1    2    0    0 -0.52532399096E+02 -0.16467122581E+04  0.45278249304E+03  0.17110575069E+04  0.91021382229E+02 0.  0.
         13    1    3    3    0    0 -0.20497055124E+02 -0.11018962766E+04  0.26086621123E+03  0.11325399392E+04  0.00000000000E+00 0. -1.
        -13    1    3    3    0    0 -0.32035343972E+02 -0.54481598151E+03  0.19191628181E+03  0.57851756775E+03  0.00000000000E+00 0.  1.
         22    1    1    2    0    0  0.52532399096E+02  0.16467122581E+04 -0.67165017556E+02  0.16489184497E+04  0.00000000000E+00 0. -1.
<mgrwt>
<rscale>  0 0.33377743E+04</rscale>
<asrwt>0</asrwt>
<pdfrwt beam="1">  1        2 0.22879681E+00 0.33377743E+04</pdfrwt>
<pdfrwt beam="2">  1       -2 0.28812257E+00 0.33377743E+04</pdfrwt>
<totfact> 0.40374410E-01</totfact>
</mgrwt>
</event>
<event>
 6    1  0.5026615E-004  0.2529692E+04  0.7818608E-02  0.8392483E-01
         -2   -1    0    0    0  501 -0.00000000000E+00  0.00000000000E+00  0.13308450959E+04  0.13308450959E+04  0.00000000000E+00 0. -1.
          2   -1    0    0  501    0  0.00000000000E+00 -0.00000000000E+00 -0.12021198654E+04  0.12021198654E+04  0.00000000000E+00 0.  1.
         23    2    1    2    0    0  0.75421070094E+03 -0.93979550220E+03 -0.31355523775E+03  0.12493523329E+04  0.10254266043E+03 0.  0.
         11    1    3    3    0    0  0.65197240572E+03 -0.79726717203E+03 -0.23100800784E+03  0.10554940365E+04  0.00000000000E+00 0.  1.
        -11    1    3    3    0    0  0.10223829521E+03 -0.14252833017E+03 -0.82547229905E+02  0.19385829638E+03  0.00000000000E+00 0. -1.
         22    1    1    2    0    0 -0.75421070094E+03  0.93979550220E+03  0.44228046821E+03  0.12836126285E+04  0.00000000000E+00 0. -1.
<mgrwt>
<rscale>  0 0.25296919E+04</rscale>
<asrwt>0</asrwt>
<pdfrwt beam="1">  1        2 0.18494152E+00 0.25296919E+04</pdfrwt>
<pdfrwt beam="2">  1       -2 0.20474540E+00 0.25296919E+04</pdfrwt>
<totfact> 0.20806148E+00</totfact>
</mgrwt>
</event>
<event>
 6    1  0.5026615E-004  0.3590834E+04  0.7818608E-02  0.8092594E-01
          2   -1    0    0  501    0  0.00000000000E+00  0.00000000000E+00  0.31368379787E+04  0.31368379787E+04  0.00000000000E+00 0.  1.
         -2   -1    0    0    0  501 -0.00000000000E+00 -0.00000000000E+00 -0.10276343348E+04  0.10276343348E+04  0.00000000000E+00 0. -1.
         23    2    1    2    0    0  0.97522168622E+03 -0.94199934901E+03 -0.30776737735E+03  0.13931605252E+04  0.88064632455E+02 0.  0.
         13    1    3    3    0    0  0.40520806287E+03 -0.41082283265E+03 -0.17332325124E+03  0.60250304851E+03  0.00000000000E+00 0. -1.
        -13    1    3    3    0    0  0.57001362335E+03 -0.53117651635E+03 -0.13444412611E+03  0.79065747664E+03  0.00000000000E+00 0.  1.
         22    1    1    2    0    0 -0.97522168622E+03  0.94199934901E+03  0.24169710213E+04  0.27713117884E+04  0.00000000000E+00 0.  1.
<mgrwt>
<rscale>  0 0.35908341E+04</rscale>
<asrwt>0</asrwt>
<pdfrwt beam="1">  1        2 0.48259045E+00 0.35908341E+04</pdfrwt>
<pdfrwt beam="2">  1       -2 0.15809759E+00 0.35908341E+04</pdfrwt>
<totfact> 0.30218953E-01</totfact>
</mgrwt>
</event>
<event>
 6    1  0.5026615E-004  0.2587525E+04  0.7818608E-02  0.8372451E-01
          2   -1    0    0  501    0  0.00000000000E+00  0.00000000000E+00  0.12589264660E+04  0.12589264660E+04  0.00000000000E+00 0.  1.
         -2   -1    0    0    0  501 -0.00000000000E+00 -0.00000000000E+00 -0.13295629061E+04  0.13295629061E+04  0.00000000000E+00 0. -1.
         23    2    1    2    0    0  0.29213503085E+03  0.12486617689E+04 -0.19382887323E+03  0.13002054497E+04  0.92008097761E+02 0.  0.
         11    1    3    3    0    0  0.34755659220E+02  0.25605455174E+03 -0.11268213740E+02  0.25864814315E+03  0.00000000000E+00 0.  1.
        -11    1    3    3    0    0  0.25737937163E+03  0.99260721713E+03 -0.18256065949E+03  0.10415573066E+04  0.00000000000E+00 0. -1.
         22    1    1    2    0    0 -0.29213503085E+03 -0.12486617689E+04  0.12319243314E+03  0.12882839225E+04  0.00000000000E+00 0.  1.
<mgrwt>
<rscale>  0 0.25875254E+04</rscale>
<asrwt>0</asrwt>
<pdfrwt beam="1">  1        2 0.19368100E+00 0.25875254E+04</pdfrwt>
<pdfrwt beam="2">  1       -2 0.20454814E+00 0.25875254E+04</pdfrwt>
<totfact> 0.19217453E+00</totfact>
</mgrwt>
</event>
<event>
 6    1  0.5026615E-004  0.1660302E+04  0.7818608E-02  0.8784335E-01
         -2   -1    0    0    0  501 -0.00000000000E+00  0.00000000000E+00  0.61363264887E+03  0.61363264887E+03  0.00000000000E+00 0. -1.
          2   -1    0    0  501    0  0.00000000000E+00 -0.00000000000E+00 -0.11230677941E+04  0.11230677941E+04  0.00000000000E+00 0.  1.
         23    2    1    2    0    0  0.12408819648E+02  0.69852845342E+03  0.20866564473E+03  0.73481984951E+03  0.91229824639E+02 0.  0.
         11    1    3    3    0    0  0.42021783730E+02  0.40007450484E+03  0.89615380528E+02  0.41213633200E+03  0.00000000000E+00 0.  1.
        -11    1    3    3    0    0 -0.29612964081E+02  0.29845394858E+03  0.11905026420E+03  0.32268351751E+03  0.00000000000E+00 0. -1.
         22    1    1    2    0    0 -0.12408819648E+02 -0.69852845342E+03 -0.71810078998E+03  0.10018805935E+04  0.00000000000E+00 0.  1.
<mgrwt>
<rscale>  0 0.16603025E+04</rscale>
<asrwt>0</asrwt>
<pdfrwt beam="1">  1        2 0.17277966E+00 0.16603025E+04</pdfrwt>
<pdfrwt beam="2">  1       -2 0.94405023E-01 0.16603025E+04</pdfrwt>
<totfact> 0.19038568E+01</totfact>
</mgrwt>
</event>
<event>
 6    1  0.5026615E-004  0.1888189E+04  0.7818608E-02  0.8660758E-01
          2   -1    0    0  501    0  0.00000000000E+00  0.00000000000E+00  0.10459368570E+04  0.10459368570E+04  0.00000000000E+00 0.  1.
         -2   -1    0    0    0  501 -0.00000000000E+00 -0.00000000000E+00 -0.85216850009E+03  0.85216850009E+03  0.00000000000E+00 0. -1.
         23    2    1    2    0    0 -0.80527777877E+03 -0.16765858806E+03 -0.36442181856E+03  0.90404400328E+03  0.88941525176E+02 0.  0.
         13    1    3    3    0    0 -0.60853677635E+03 -0.96095971200E+02 -0.24484062487E+03  0.66294673650E+03  0.00000000000E+00 0. -1.
        -13    1    3    3    0    0 -0.19674100241E+03 -0.71562616859E+02 -0.11958119370E+03  0.24109726678E+03  0.00000000000E+00 0.  1.
         22    1    1    2    0    0  0.80527777877E+03  0.16765858806E+03  0.55819017544E+03  0.99406135378E+03  0.00000000000E+00 0.  1.
<mgrwt>
<rscale>  0 0.18881890E+04</rscale>
<asrwt>0</asrwt>
<pdfrwt beam="1">  1        2 0.16091336E+00 0.18881890E+04</pdfrwt>
<pdfrwt beam="2">  1       -2 0.13110285E+00 0.18881890E+04</pdfrwt>
<totfact> 0.93838367E+00</totfact>
</mgrwt>
</event>
<event>
 6    1  0.5026615E-004  0.1534377E+04  0.7818608E-02  0.8861909E-01
          2   -1    0    0  501    0  0.00000000000E+00  0.00000000000E+00  0.23709170890E+04  0.23709170890E+04  0.00000000000E+00 0.  1.
         -2   -1    0    0    0  501 -0.00000000000E+00 -0.00000000000E+00 -0.24824920568E+03  0.24824920568E+03  0.00000000000E+00 0. -1.
         23    2    1    2    0    0  0.19271798289E+03  0.70445858518E+03  0.67942714428E+03  0.10016540227E+04  0.91035254945E+02 0.  0.
         11    1    3    3    0    0  0.65555298482E+02  0.15737465076E+03  0.11679081029E+03  0.20665035986E+03  0.00000000000E+00 0. -1.
        -11    1    3    3    0    0  0.12716268441E+03  0.54708393442E+03  0.56263633400E+03  0.79500366285E+03  0.00000000000E+00 0.  1.
         22    1    1    2    0    0 -0.19271798289E+03 -0.70445858518E+03  0.14432407390E+04  0.16175122720E+04  0.00000000000E+00 0. -1.
<mgrwt>
<rscale>  0 0.15343771E+04</rscale>
<asrwt>0</asrwt>
<pdfrwt beam="1">  1        2 0.36475646E+00 0.15343771E+04</pdfrwt>
<pdfrwt beam="2">  1       -2 0.38192187E-01 0.15343771E+04</pdfrwt>
<totfact> 0.25814984E+01</totfact>
</mgrwt>
</event>
<event>
 6    1  0.5026615E-004  0.1229856E+04  0.7818608E-02  0.9087118E-01
          2   -1    0    0  501    0  0.00000000000E+00  0.00000000000E+00  0.20596632047E+04  0.20596632047E+04  0.00000000000E+00 0.  1.
         -2   -1    0    0    0  501 -0.00000000000E+00 -0.00000000000E+00 -0.18359126129E+03  0.18359126129E+03  0.00000000000E+00 0. -1.
         23    2    1    2    0    0 -0.38681970963E+03 -0.20042348688E+03  0.16025220663E+03  0.47298995722E+03  0.90772617275E+02 0.  0.
         11    1    3    3    0    0 -0.22088939402E+03 -0.95508272114E+02  0.43419538530E+02  0.24453877149E+03  0.00000000000E+00 0. -1.
        -11    1    3    3    0    0 -0.16593031561E+03 -0.10491521477E+03  0.11683266809E+03  0.22845118573E+03  0.00000000000E+00 0.  1.
         22    1    1    2    0    0  0.38681970963E+03  0.20042348688E+03  0.17158197368E+04  0.17702645088E+04  0.00000000000E+00 0.  1.
<mgrwt>
<rscale>  0 0.12298555E+04</rscale>
<asrwt>0</asrwt>
<pdfrwt beam="1">  1        2 0.31687125E+00 0.12298555E+04</pdfrwt>
<pdfrwt beam="2">  1       -2 0.28244811E-01 0.12298555E+04</pdfrwt>
<totfact> 0.70023868E+01</totfact>
</mgrwt>
</event>
<event>
 6    1  0.5026615E-004  0.3113065E+04  0.7818608E-02  0.8212161E-01
          2   -1    0    0  501    0  0.00000000000E+00  0.00000000000E+00  0.11096379293E+04  0.11096379293E+04  0.00000000000E+00 0. -1.
         -2   -1    0    0    0  501 -0.00000000000E+00 -0.00000000000E+00 -0.21834091159E+04  0.21834091159E+04  0.00000000000E+00 0.  1.
         23    2    1    2    0    0 -0.57808531821E+03 -0.11549978185E+04 -0.14536431970E+04  0.19467538601E+04  0.92571333573E+02 0.  0.
         13    1    3    3    0    0 -0.49353216007E+03 -0.10164875944E+04 -0.12274371740E+04  0.16683593854E+04  0.00000000000E+00 0. -1.
        -13    1    3    3    0    0 -0.84553158135E+02 -0.13851022410E+03 -0.22620602299E+03  0.27839447474E+03  0.00000000000E+00 0.  1.
         22    1    1    2    0    0  0.57808531821E+03  0.11549978185E+04  0.37987201036E+03  0.13462931851E+04  0.00000000000E+00 0. -1.
<mgrwt>
<rscale>  0 0.31130651E+04</rscale>
<asrwt>0</asrwt>
<pdfrwt beam="1">  1        2 0.17071353E+00 0.31130651E+04</pdfrwt>
<pdfrwt beam="2">  1       -2 0.33590909E+00 0.31130651E+04</pdfrwt>
<totfact> 0.34750310E-01</totfact>
</mgrwt>
</event>
<event>
 6    1  0.5026615E-004  0.2324364E+04  0.7818608E-02  0.8468376E-01
         -2   -1    0    0    0  501 -0.00000000000E+00  0.00000000000E+00  0.43108635978E+03  0.43108635978E+03  0.00000000000E+00 0. -1.
          2   -1    0    0  501    0  0.00000000000E+00 -0.00000000000E+00 -0.31331707642E+04  0.31331707642E+04  0.00000000000E+00 0.  1.
         23    2    1    2    0    0 -0.70291529982E+03  0.15454581177E+03  0.43080780004E+02  0.72631663545E+03  0.87781402777E+02 0.  0.
         11    1    3    3    0    0 -0.97942628876E+02  0.47204231329E+02  0.25342272849E+02  0.11163883195E+03  0.00000000000E+00 0. -1.
        -11    1    3    3    0    0 -0.60497267094E+03  0.10734158044E+03  0.17738507155E+02  0.61467780350E+03  0.00000000000E+00 0.  1.
         22    1    1    2    0    0  0.70291529982E+03 -0.15454581177E+03 -0.27451651844E+04  0.28379404885E+04  0.00000000000E+00 0.  1.
<mgrwt>
<rscale>  0 0.23243642E+04</rscale>
<asrwt>0</asrwt>
<pdfrwt beam="1">  1        2 0.48202628E+00 0.23243642E+04</pdfrwt>
<pdfrwt beam="2">  1       -2 0.66320977E-01 0.23243642E+04</pdfrwt>
<totfact> 0.27131284E+00</totfact>
</mgrwt>
</event>
<event>
 6    1  0.5026615E-004  0.2543487E+04  0.7818608E-02  0.8387655E-01
         -2   -1    0    0    0  501 -0.00000000000E+00  0.00000000000E+00  0.60411569812E+03  0.60411569812E+03  0.00000000000E+00 0. -1.
          2   -1    0    0  501    0  0.00000000000E+00 -0.00000000000E+00 -0.26771874185E+04  0.26771874185E+04  0.00000000000E+00 0.  1.
         23    2    1    2    0    0 -0.25882963124E+03 -0.72040325912E+03 -0.23449647606E+04  0.24689611571E+04  0.10457453289E+03 0.  0.
         11    1    3    3    0    0 -0.17245850672E+03 -0.41908820108E+03 -0.12323361671E+04  0.13130229570E+04  0.00000000000E+00 0. -1.
        -11    1    3    3    0    0 -0.86371124525E+02 -0.30131505803E+03 -0.11126285936E+04  0.11559382001E+04  0.00000000000E+00 0.  1.
         22    1    1    2    0    0  0.25882963124E+03  0.72040325912E+03  0.27189304029E+03  0.81234195947E+03  0.00000000000E+00 0. -1.
<mgrwt>
<rscale>  0 0.25434865E+04</rscale>
<asrwt>0</asrwt>
<pdfrwt beam="1">  1        2 0.41187498E+00 0.25434865E+04</pdfrwt>
<pdfrwt beam="2">  1       -2 0.92940878E-01 0.25434865E+04</pdfrwt>
<totfact> 0.23879495E+00</totfact>
</mgrwt>
</event>
<event>
 6    1  0.5026615E-004  0.1938441E+04  0.7818608E-02  0.8635955E-01
         -2   -1    0    0    0  501 -0.00000000000E+00  0.00000000000E+00  0.10574699918E+04  0.10574699918E+04  0.00000000000E+00 0. -1.
          2   -1    0    0  501    0  0.00000000000E+00 -0.00000000000E+00 -0.88833546503E+03  0.88833546503E+03  0.00000000000E+00 0.  1.
         23    2    1    2    0    0 -0.47076226612E+03 -0.13988716252E+03 -0.75164443406E+03  0.90224452226E+03  0.88827322646E+02 0.  0.
         13    1    3    3    0    0 -0.28919765230E+03 -0.71660335710E+02 -0.52752686654E+03  0.60585070829E+03  0.00000000000E+00 0. -1.
        -13    1    3    3    0    0 -0.18156461383E+03 -0.68226826810E+02 -0.22411756752E+03  0.29639381397E+03  0.00000000000E+00 0.  1.
         22    1    1    2    0    0  0.47076226612E+03  0.13988716252E+03  0.92077896083E+03  0.10435609346E+04  0.00000000000E+00 0. -1.
<mgrwt>
<rscale>  0 0.19384407E+04</rscale>
<asrwt>0</asrwt>
<pdfrwt beam="1">  1        2 0.13666699E+00 0.19384407E+04</pdfrwt>
<pdfrwt beam="2">  1       -2 0.16268769E+00 0.19384407E+04</pdfrwt>
<totfact> 0.67083314E+00</totfact>
</mgrwt>
</event>
<event>
 6    1  0.5026615E-004  0.2969420E+04  0.7818608E-02  0.8252517E-01
          2   -1    0    0  501    0  0.00000000000E+00  0.00000000000E+00  0.15522835062E+04  0.15522835062E+04  0.00000000000E+00 0.  1.
         -2   -1    0    0    0  501 -0.00000000000E+00 -0.00000000000E+00 -0.14200780477E+04  0.14200780477E+04  0.00000000000E+00 0. -1.
         23    2    1    2    0    0  0.56071788132E+03 -0.13090186036E+04 -0.34919399972E+03  0.14691384549E+04  0.92179733866E+02 0.  0.
         13    1    3    3    0    0  0.30435240481E+03 -0.82174439065E+03 -0.22449436353E+03  0.90459490886E+03  0.00000000000E+00 0. -1.
        -13    1    3    3    0    0  0.25636547651E+03 -0.48727421292E+03 -0.12469963619E+03  0.56454354605E+03  0.00000000000E+00 0.  1.
         22    1    1    2    0    0 -0.56071788132E+03  0.13090186036E+04  0.48139945823E+03  0.15032230990E+04  0.00000000000E+00 0.  1.
<mgrwt>
<rscale>  0 0.29694200E+04</rscale>
<asrwt>0</asrwt>
<pdfrwt beam="1">  1        2 0.23881285E+00 0.29694200E+04</pdfrwt>
<pdfrwt beam="2">  1       -2 0.21847354E+00 0.29694200E+04</pdfrwt>
<totfact> 0.10287936E+00</totfact>
</mgrwt>
</event>
<event>
 6    1  0.5026615E-004  0.2318740E+04  0.7818608E-02  0.8470569E-01
          2   -1    0    0  501    0  0.00000000000E+00  0.00000000000E+00  0.15302883022E+04  0.15302883022E+04  0.00000000000E+00 0.  1.
         -2   -1    0    0    0  501 -0.00000000000E+00 -0.00000000000E+00 -0.87835622353E+03  0.87835622353E+03  0.00000000000E+00 0. -1.
         23    2    1    2    0    0  0.51361325282E+03 -0.18850694275E+03 -0.73319813433E+03  0.91937653511E+03  0.91325068811E+02 0.  0.
         11    1    3    3    0    0  0.23924998067E+03 -0.58141520915E+02 -0.38834244809E+03  0.45981610095E+03  0.00000000000E+00 0. -1.
        -11    1    3    3    0    0  0.27436327215E+03 -0.13036542183E+03 -0.34485568624E+03  0.45956043416E+03  0.00000000000E+00 0.  1.
         22    1    1    2    0    0 -0.51361325282E+03  0.18850694275E+03  0.13851302130E+04  0.14892679906E+04  0.00000000000E+00 0.  1.
<mgrwt>
<rscale>  0 0.23187395E+04</rscale>
<asrwt>0</asrwt>
<pdfrwt beam="1">  1        2 0.23542897E+00 0.23187395E+04</pdfrwt>
<pdfrwt beam="2">  1       -2 0.13513173E+00 0.23187395E+04</pdfrwt>
<totfact> 0.43482312E+00</totfact>
</mgrwt>
</event>
<event>
 6    1  0.5026615E-004  0.1780750E+04  0.7818608E-02  0.8716604E-01
          2   -1    0    0  501    0  0.00000000000E+00  0.00000000000E+00  0.33025451090E+04  0.33025451090E+04  0.00000000000E+00 0. -1.
         -2   -1    0    0    0  501 -0.00000000000E+00 -0.00000000000E+00 -0.24004746351E+03  0.24004746351E+03  0.00000000000E+00 0.  1.
         23    2    1    2    0    0  0.12454590399E+03 -0.57979617959E+03  0.28502593857E+04  0.29127351513E+04  0.91499748695E+02 0.  0.
         11    1    3    3    0    0  0.12634534120E+03 -0.55777472855E+03  0.26352702357E+04  0.26966136186E+04  0.00000000000E+00 0. -1.
        -11    1    3    3    0    0 -0.17994372162E+01 -0.22021451046E+02  0.21498915000E+03  0.21612153270E+03  0.00000000000E+00 0.  1.
         22    1    1    2    0    0 -0.12454590399E+03  0.57979617959E+03  0.21223825978E+03  0.62985742116E+03  0.00000000000E+00 0.  1.
<mgrwt>
<rscale>  0 0.17807499E+04</rscale>
<asrwt>0</asrwt>
<pdfrwt beam="1">  1        2 0.50808383E+00 0.17807499E+04</pdfrwt>
<pdfrwt beam="2">  1       -2 0.36930381E-01 0.17807499E+04</pdfrwt>
<totfact> 0.72953887E+00</totfact>
</mgrwt>
</event>
<event>
 6    1  0.5026615E-004  0.5060260E+03  0.7818608E-02  0.1012218E+00
          4   -1    0    0  501    0  0.00000000000E+00  0.00000000000E+00  0.39537091161E+03  0.39537091161E+03  0.00000000000E+00 0. -1.
         -4   -1    0    0    0  501 -0.00000000000E+00 -0.00000000000E+00 -0.16191272563E+03  0.16191272563E+03  0.00000000000E+00 0.  1.
         23    2    1    2    0    0  0.14926631986E+02  0.23708820450E+03  0.18751378846E+03  0.31532391183E+03  0.88510606443E+02 0.  0.
         13    1    3    3    0    0  0.28894707996E+02  0.81737115087E+02  0.25356796180E+02  0.90326226786E+02  0.00000000000E+00 0.  1.
        -13    1    3    3    0    0 -0.13968076010E+02  0.15535108942E+03  0.16215699228E+03  0.22499768505E+03  0.00000000000E+00 0. -1.
         22    1    1    2    0    0 -0.14926631986E+02 -0.23708820450E+03  0.45944397515E+02  0.24195972541E+03  0.00000000000E+00 0.  1.
<mgrwt>
<rscale>  0 0.50602601E+03</rscale>
<asrwt>0</asrwt>
<pdfrwt beam="1">  1        4 0.60826294E-01 0.50602601E+03</pdfrwt>
<pdfrwt beam="2">  1       -4 0.24909650E-01 0.50602601E+03</pdfrwt>
<totfact> 0.76128450E+01</totfact>
</mgrwt>
</event>
<event>
 6    1  0.5026615E-004  0.2053448E+04  0.7818608E-02  0.8582032E-01
          2   -1    0    0  501    0  0.00000000000E+00  0.00000000000E+00  0.21440190420E+04  0.21440190420E+04  0.00000000000E+00 0.  1.
         -2   -1    0    0    0  501 -0.00000000000E+00 -0.00000000000E+00 -0.49167573324E+03  0.49167573324E+03  0.00000000000E+00 0. -1.
         23    2    1    2    0    0 -0.37837637059E+03 -0.68340522782E+03  0.16789901621E+04  0.18540801400E+04  0.91617780365E+02 0.  0.
         13    1    3    3    0    0 -0.85711322050E+02 -0.21466538879E+03  0.42667552959E+03  0.48526247271E+03  0.00000000000E+00 0.  1.
        -13    1    3    3    0    0 -0.29266504854E+03 -0.46873983903E+03  0.12523146325E+04  0.13688176672E+04  0.00000000000E+00 0. -1.
         22    1    1    2    0    0  0.37837637059E+03  0.68340522782E+03 -0.26646853400E+02  0.78161463524E+03  0.00000000000E+00 0. -1.
<mgrwt>
<rscale>  0 0.20534480E+04</rscale>
<asrwt>0</asrwt>
<pdfrwt beam="1">  1        2 0.32984908E+00 0.20534480E+04</pdfrwt>
<pdfrwt beam="2">  1       -2 0.75642421E-01 0.20534480E+04</pdfrwt>
<totfact> 0.80461090E+00</totfact>
</mgrwt>
</event>
<event>
 6    1  0.5026615E-004  0.4073719E+04  0.7818608E-02  0.7989838E-01
          2   -1    0    0  501    0  0.00000000000E+00  0.00000000000E+00  0.17491423789E+04  0.17491423789E+04  0.00000000000E+00 0.  1.
         -2   -1    0    0    0  501 -0.00000000000E+00 -0.00000000000E+00 -0.23719034553E+04  0.23719034553E+04  0.00000000000E+00 0. -1.
         23    2    1    2    0    0  0.13048318013E+04 -0.11778469523E+04  0.72750346314E+03  0.19044890903E+04  0.88926562644E+02 0.  0.
         11    1    3    3    0    0  0.37191878942E+03 -0.28308294323E+03  0.18910153001E+03  0.50420127660E+03  0.00000000000E+00 0. -1.
        -11    1    3    3    0    0  0.93291301185E+03 -0.89476400904E+03  0.53840193313E+03  0.14002878137E+04  0.00000000000E+00 0.  1.
         22    1    1    2    0    0 -0.13048318013E+04  0.11778469523E+04 -0.13502645395E+04  0.22165567440E+04  0.00000000000E+00 0. -1.
<mgrwt>
<rscale>  0 0.40737191E+04</rscale>
<asrwt>0</asrwt>
<pdfrwt beam="1">  1        2 0.26909883E+00 0.40737191E+04</pdfrwt>
<pdfrwt beam="2">  1       -2 0.36490823E+00 0.40737191E+04</pdfrwt>
<totfact> 0.90339932E-02</totfact>
</mgrwt>
</event>
<event>
 6    1  0.5026615E-004  0.1741856E+04  0.7818608E-02  0.8737846E-01
          2   -1    0    0  501    0  0.00000000000E+00  0.00000000000E+00  0.92721696990E+03  0.92721696990E+03  0.00000000000E+00 0.  1.
         -2   -1    0    0    0  501 -0.00000000000E+00 -0.00000000000E+00 -0.81805622162E+03  0.81805622162E+03  0.00000000000E+00 0. -1.
         23    2    1    2    0    0  0.47809860800E+01 -0.58504190660E+03 -0.58858689871E+03  0.83469718195E+03  0.89375376361E+02 0.  0.
         13    1    3    3    0    0  0.38644311662E+02 -0.30415136286E+03 -0.26906926640E+03  0.40792119885E+03  0.00000000000E+00 0.  1.
        -13    1    3    3    0    0 -0.33863325582E+02 -0.28089054375E+03 -0.31951763232E+03  0.42677598309E+03  0.00000000000E+00 0. -1.
         22    1    1    2    0    0 -0.47809860800E+01  0.58504190660E+03  0.69774764699E+03  0.91057600957E+03  0.00000000000E+00 0.  1.
<mgrwt>
<rscale>  0 0.17418560E+04</rscale>
<asrwt>0</asrwt>
<pdfrwt beam="1">  1        2 0.14264876E+00 0.17418560E+04</pdfrwt>
<pdfrwt beam="2">  1       -2 0.12585480E+00 0.17418560E+04</pdfrwt>
<totfact> 0.12566273E+01</totfact>
</mgrwt>
</event>
<event>
 6    1  0.5026615E-004  0.4309347E+04  0.7818608E-02  0.7944892E-01
          2   -1    0    0  501    0  0.00000000000E+00  0.00000000000E+00  0.30673025439E+04  0.30673025439E+04  0.00000000000E+00 0.  1.
         -2   -1    0    0    0  501 -0.00000000000E+00 -0.00000000000E+00 -0.15135831536E+04  0.15135831536E+04  0.00000000000E+00 0. -1.
         23    2    1    2    0    0  0.72041797599E+03  0.16620774895E+04 -0.46104529461E+03  0.18714982433E+04  0.91865498422E+02 0.  0.
         13    1    3    3    0    0  0.31867193982E+03  0.69400305302E+03 -0.23805692916E+03  0.79991446065E+03  0.00000000000E+00 0.  1.
        -13    1    3    3    0    0  0.40174603617E+03  0.96807443644E+03 -0.22298836545E+03  0.10715837826E+04  0.00000000000E+00 0. -1.
         22    1    1    2    0    0 -0.72041797599E+03 -0.16620774895E+04  0.20147646849E+04  0.27093874542E+04  0.00000000000E+00 0.  1.
<mgrwt>
<rscale>  0 0.43093468E+04</rscale>
<asrwt>0</asrwt>
<pdfrwt beam="1">  1        2 0.47189270E+00 0.43093468E+04</pdfrwt>
<pdfrwt beam="2">  1       -2 0.23285895E+00 0.43093468E+04</pdfrwt>
<totfact> 0.99611013E-02</totfact>
</mgrwt>
</event>
<event>
 6    1  0.5026615E-004  0.3910156E+04  0.7818608E-02  0.8022920E-01
          1   -1    0    0  501    0  0.00000000000E+00  0.00000000000E+00  0.16603590445E+04  0.16603590445E+04  0.00000000000E+00 0.  1.
         -1   -1    0    0    0  501 -0.00000000000E+00 -0.00000000000E+00 -0.23021107150E+04  0.23021107150E+04  0.00000000000E+00 0. -1.
         23    2    1    2    0    0  0.24457054798E+03  0.13634087371E+04 -0.17177894168E+04  0.22084585370E+04  0.88263762033E+02 0.  0.
         11    1    3    3    0    0  0.15404350117E+03  0.10591425863E+04 -0.13072022468E+04  0.16894644513E+04  0.00000000000E+00 0. -1.
        -11    1    3    3    0    0  0.90527046812E+02  0.30426615084E+03 -0.41058717005E+03  0.51899408567E+03  0.00000000000E+00 0.  1.
         22    1    1    2    0    0 -0.24457054798E+03 -0.13634087371E+04  0.10760377462E+04  0.17540112225E+04  0.00000000000E+00 0.  1.
<mgrwt>
<rscale>  0 0.39101562E+04</rscale>
<asrwt>0</asrwt>
<pdfrwt beam="1">  1        1 0.25543985E+00 0.39101562E+04</pdfrwt>
<pdfrwt beam="2">  1       -1 0.35417088E+00 0.39101562E+04</pdfrwt>
<totfact> 0.58278478E-02</totfact>
</mgrwt>
</event>
<event>
 6    1  0.5026615E-004  0.2025118E+04  0.7818608E-02  0.8594967E-01
          2   -1    0    0  501    0  0.00000000000E+00  0.00000000000E+00  0.16908584337E+04  0.16908584337E+04  0.00000000000E+00 0.  1.
         -2   -1    0    0    0  501 -0.00000000000E+00 -0.00000000000E+00 -0.60636385839E+03  0.60636385839E+03  0.00000000000E+00 0. -1.
         23    2    1    2    0    0 -0.40347141716E+03 -0.65513029493E+02 -0.50523072590E+03  0.65578765287E+03  0.87853387926E+02 0.  0.
         13    1    3    3    0    0 -0.26187556752E+03  0.85583264127E-01 -0.30771446454E+03  0.40406312858E+03  0.00000000000E+00 0. -1.
        -13    1    3    3    0    0 -0.14159584964E+03 -0.65598612757E+02 -0.19751626136E+03  0.25172452430E+03  0.00000000000E+00 0.  1.
         22    1    1    2    0    0  0.40347141716E+03  0.65513029493E+02  0.15897253013E+04  0.16414346393E+04  0.00000000000E+00 0.  1.
<mgrwt>
<rscale>  0 0.20251177E+04</rscale>
<asrwt>0</asrwt>
<pdfrwt beam="1">  1        2 0.26013206E+00 0.20251177E+04</pdfrwt>
<pdfrwt beam="2">  1       -2 0.93286748E-01 0.20251177E+04</pdfrwt>
<totfact> 0.89465855E+00</totfact>
</mgrwt>
</event>
<event>
 6    1  0.5026615E-004  0.1670664E+04  0.7818608E-02  0.8778275E-01
          2   -1    0    0  501    0  0.00000000000E+00  0.00000000000E+00  0.38184949997E+04  0.38184949997E+04  0.00000000000E+00 0.  1.
         -2   -1    0    0    0  501 -0.00000000000E+00 -0.00000000000E+00 -0.18273683662E+03  0.18273683662E+03  0.00000000000E+00 0. -1.
         23    2    1    2    0    0  0.34990101087E+03 -0.63805678215E+03  0.27934542684E+04  0.28881177246E+04  0.91049805542E+02 0.  0.
         13    1    3    3    0    0  0.53529203473E+02 -0.92889835853E+02  0.29891589331E+03  0.31756040135E+03  0.00000000000E+00 0.  1.
        -13    1    3    3    0    0  0.29637180740E+03 -0.54516694630E+03  0.24945383751E+04  0.25705573233E+04  0.00000000000E+00 0. -1.
         22    1    1    2    0    0 -0.34990101087E+03  0.63805678215E+03  0.84230389475E+03  0.11131141117E+04  0.00000000000E+00 0. -1.
<mgrwt>
<rscale>  0 0.16706642E+04</rscale>
<asrwt>0</asrwt>
<pdfrwt beam="1">  1        2 0.58746071E+00 0.16706642E+04</pdfrwt>
<pdfrwt beam="2">  1       -2 0.28113362E-01 0.16706642E+04</pdfrwt>
<totfact> 0.53257863E+00</totfact>
</mgrwt>
</event>
<event>
 6    1  0.5026615E-004  0.2419491E+04  0.7818608E-02  0.8432242E-01
         -2   -1    0    0    0  501 -0.00000000000E+00  0.00000000000E+00  0.64904422576E+03  0.64904422576E+03  0.00000000000E+00 0. -1.
          2   -1    0    0  501    0  0.00000000000E+00 -0.00000000000E+00 -0.22548299960E+04  0.22548299960E+04  0.00000000000E+00 0.  1.
         23    2    1    2    0    0 -0.28769850604E+02  0.93094701371E+03 -0.17272824571E+04  0.19645917873E+04  0.92877109088E+02 0.  0.
         13    1    3    3    0    0  0.16103449551E+02  0.20111517565E+03 -0.44196684943E+03  0.48584084941E+03  0.00000000000E+00 0. -1.
        -13    1    3    3    0    0 -0.44873300155E+02  0.72983183806E+03 -0.12853156077E+04  0.14787509379E+04  0.00000000000E+00 0.  1.
         22    1    1    2    0    0  0.28769850604E+02 -0.93094701371E+03  0.12149668695E+03  0.93928243440E+03  0.00000000000E+00 0. -1.
<mgrwt>
<rscale>  0 0.24194912E+04</rscale>
<asrwt>0</asrwt>
<pdfrwt beam="1">  1        2 0.34689691E+00 0.24194912E+04</pdfrwt>
<pdfrwt beam="2">  1       -2 0.99852960E-01 0.24194912E+04</pdfrwt>
<totfact> 0.35781353E+00</totfact>
</mgrwt>
</event>
<event>
 6    1  0.5026615E-004  0.2240229E+04  0.7818608E-02  0.8501868E-01
         -2   -1    0    0    0  501 -0.00000000000E+00  0.00000000000E+00  0.80478945237E+03  0.80478945237E+03  0.00000000000E+00 0. -1.
          2   -1    0    0  501    0  0.00000000000E+00 -0.00000000000E+00 -0.15589875701E+04  0.15589875701E+04  0.00000000000E+00 0.  1.
         23    2    1    2    0    0  0.14121724104E+03  0.73757222305E+03  0.49654822522E+03  0.90490022582E+03  0.91264370567E+02 0.  0.
         13    1    3    3    0    0  0.11735308594E+02  0.22872856503E+03  0.18460922504E+03  0.29416838698E+03  0.00000000000E+00 0. -1.
        -13    1    3    3    0    0  0.12948193245E+03  0.50884365802E+03  0.31193900018E+03  0.61073183884E+03  0.00000000000E+00 0.  1.
         22    1    1    2    0    0 -0.14121724104E+03 -0.73757222305E+03 -0.12507463430E+04  0.14588767967E+04  0.00000000000E+00 0.  1.
<mgrwt>
<rscale>  0 0.22402292E+04</rscale>
<asrwt>0</asrwt>
<pdfrwt beam="1">  1        2 0.23984424E+00 0.22402292E+04</pdfrwt>
<pdfrwt beam="2">  1       -2 0.12381376E+00 0.22402292E+04</pdfrwt>
<totfact> 0.52616554E+00</totfact>
</mgrwt>
</event>
<event>
 6    1  0.5026615E-004  0.6646997E+03  0.7818608E-02  0.9779581E-01
         -2   -1    0    0    0  501 -0.00000000000E+00  0.00000000000E+00  0.41940123134E+02  0.41940123134E+02  0.00000000000E+00 0. -1.
          2   -1    0    0  501    0  0.00000000000E+00 -0.00000000000E+00 -0.26336698444E+04  0.26336698444E+04  0.00000000000E+00 0.  1.
         23    2    1    2    0    0  0.24142545358E+03 -0.16728191304E+03 -0.18904303540E+04  0.19152874764E+04  0.91267221361E+02 0.  0.
         11    1    3    3    0    0  0.98908820708E+01 -0.25812246448E+02 -0.35438588833E+03  0.35546231792E+03  0.00000000000E+00 0.  1.
        -11    1    3    3    0    0  0.23153457150E+03 -0.14146966660E+03 -0.15360444657E+04  0.15598251584E+04  0.00000000000E+00 0. -1.
         22    1    1    2    0    0 -0.24142545358E+03  0.16728191304E+03 -0.70129936727E+03  0.76032249119E+03  0.00000000000E+00 0. -1.
<mgrwt>
<rscale>  0 0.66469974E+03</rscale>
<asrwt>0</asrwt>
<pdfrwt beam="1">  1        2 0.40517992E+00 0.66469974E+03</pdfrwt>
<pdfrwt beam="2">  1       -2 0.64523275E-02 0.66469974E+03</pdfrwt>
<totfact> 0.42299529E+02</totfact>
</mgrwt>
</event>
<event>
 6    1  0.5026615E-004  0.8648892E+03  0.7818608E-02  0.9470568E-01
          2   -1    0    0  501    0  0.00000000000E+00  0.00000000000E+00  0.18306976569E+03  0.18306976569E+03  0.00000000000E+00 0.  1.
         -2   -1    0    0    0  501 -0.00000000000E+00 -0.00000000000E+00 -0.10215141214E+04  0.10215141214E+04  0.00000000000E+00 0. -1.
         23    2    1    2    0    0 -0.99101135165E+02 -0.19347295408E+03 -0.93675167314E+03  0.96601073773E+03  0.91761807570E+02 0.  0.
         13    1    3    3    0    0  0.63301727603E+01 -0.15411625474E+02 -0.20167542200E+03  0.20236245977E+03  0.00000000000E+00 0. -1.
        -13    1    3    3    0    0 -0.10543130793E+03 -0.17806132861E+03 -0.73507625114E+03  0.76364827796E+03  0.00000000000E+00 0.  1.
         22    1    1    2    0    0  0.99101135165E+02  0.19347295408E+03  0.98307317400E+02  0.23857314938E+03  0.00000000000E+00 0.  1.
<mgrwt>
<rscale>  0 0.86488924E+03</rscale>
<asrwt>0</asrwt>
<pdfrwt beam="1">  1        2 0.28164579E-01 0.86488924E+03</pdfrwt>
<pdfrwt beam="2">  1       -2 0.15715602E+00 0.86488924E+03</pdfrwt>
<totfact> 0.50839154E+01</totfact>
</mgrwt>
</event>
<event>
 6    1  0.5026615E-004  0.2054000E+04  0.7818608E-02  0.8581782E-01
         -2   -1    0    0    0  501 -0.00000000000E+00  0.00000000000E+00  0.52684604949E+03  0.52684604949E+03  0.00000000000E+00 0. -1.
          2   -1    0    0  501    0  0.00000000000E+00 -0.00000000000E+00 -0.20019675388E+04  0.20019675388E+04  0.00000000000E+00 0.  1.
         23    2    1    2    0    0  0.45960897519E+03  0.91527535877E+03 -0.68772340089E+03  0.12369292506E+04  0.89783641629E+02 0.  0.
         13    1    3    3    0    0  0.13196720555E+03  0.34871997865E+03 -0.27309293979E+03  0.46216957993E+03  0.00000000000E+00 0.  1.
        -13    1    3    3    0    0  0.32764176964E+03  0.56655538013E+03 -0.41463046110E+03  0.77475967063E+03  0.00000000000E+00 0. -1.
         22    1    1    2    0    0 -0.45960897519E+03 -0.91527535877E+03 -0.78739808845E+03  0.12918843378E+04  0.00000000000E+00 0.  1.
<mgrwt>
<rscale>  0 0.20539997E+04</rscale>
<asrwt>0</asrwt>
<pdfrwt beam="1">  1        2 0.30799501E+00 0.20539997E+04</pdfrwt>
<pdfrwt beam="2">  1       -2 0.81053238E-01 0.20539997E+04</pdfrwt>
<totfact> 0.82729745E+00</totfact>
</mgrwt>
</event>
<event>
 6    1  0.5026615E-004  0.1270936E+04  0.7818608E-02  0.9052936E-01
          2   -1    0    0  501    0  0.00000000000E+00  0.00000000000E+00  0.15416393465E+04  0.15416393465E+04  0.00000000000E+00 0.  1.
         -2   -1    0    0    0  501 -0.00000000000E+00 -0.00000000000E+00 -0.26194147392E+03  0.26194147392E+03  0.00000000000E+00 0. -1.
         23    2    1    2    0    0 -0.37732626443E+03 -0.11370178791E+03  0.13447501825E+04  0.14041624815E+04  0.89532199588E+02 0.  0.
         11    1    3    3    0    0 -0.15197562032E+03 -0.72424559630E+02  0.44731690480E+03  0.47794802994E+03  0.00000000000E+00 0. -1.
        -11    1    3    3    0    0 -0.22535064411E+03 -0.41277228278E+02  0.89743327772E+03  0.92621445159E+03  0.00000000000E+00 0.  1.
         22    1    1    2    0    0  0.37732626443E+03  0.11370178791E+03 -0.65052309945E+02  0.39941833888E+03  0.00000000000E+00 0. -1.
<mgrwt>
<rscale>  0 0.12709355E+04</rscale>
<asrwt>0</asrwt>
<pdfrwt beam="1">  1        2 0.23717528E+00 0.12709355E+04</pdfrwt>
<pdfrwt beam="2">  1       -2 0.40298689E-01 0.12709355E+04</pdfrwt>
<totfact> 0.68810554E+01</totfact>
</mgrwt>
</event>
<event>
 6    1  0.5026615E-004  0.2968202E+04  0.7818608E-02  0.8252870E-01
         -2   -1    0    0    0  501 -0.00000000000E+00  0.00000000000E+00  0.99254127996E+03  0.99254127996E+03  0.00000000000E+00 0. -1.
          2   -1    0    0  501    0  0.00000000000E+00 -0.00000000000E+00 -0.22191069427E+04  0.22191069427E+04  0.00000000000E+00 0.  1.
         23    2    1    2    0    0  0.10729175704E+04  0.44133675845E+03 -0.16128987206E+04  0.19888712688E+04  0.90754580689E+02 0.  0.
         11    1    3    3    0    0  0.82872690391E+03  0.32584786900E+03 -0.12963759502E+04  0.15727541827E+04  0.00000000000E+00 0. -1.
        -11    1    3    3    0    0  0.24419066652E+03  0.11548888945E+03 -0.31652277034E+03  0.41611708610E+03  0.00000000000E+00 0.  1.
         22    1    1    2    0    0 -0.10729175704E+04 -0.44133675845E+03  0.38633305781E+03  0.12227769538E+04  0.00000000000E+00 0. -1.
<mgrwt>
<rscale>  0 0.29682016E+04</rscale>
<asrwt>0</asrwt>
<pdfrwt beam="1">  1        2 0.34140106E+00 0.29682016E+04</pdfrwt>
<pdfrwt beam="2">  1       -2 0.15269866E+00 0.29682016E+04</pdfrwt>
<totfact> 0.12352850E+00</totfact>
</mgrwt>
</event>
<event>
 6    1  0.5026615E-004  0.2134947E+04  0.7818608E-02  0.8546003E-01
          2   -1    0    0  501    0  0.00000000000E+00  0.00000000000E+00  0.17027112207E+04  0.17027112207E+04  0.00000000000E+00 0.  1.
         -2   -1    0    0    0  501 -0.00000000000E+00 -0.00000000000E+00 -0.66922664067E+03  0.66922664067E+03  0.00000000000E+00 0. -1.
         23    2    1    2    0    0  0.77836918002E+03  0.72572233410E+03  0.57549282030E+03  0.12133663536E+04  0.92382007212E+02 0.  0.
         11    1    3    3    0    0  0.31116682283E+03  0.30822482942E+03  0.28652574868E+03  0.52337781932E+03  0.00000000000E+00 0. -1.
        -11    1    3    3    0    0  0.46720235719E+03  0.41749750468E+03  0.28896707162E+03  0.68998853430E+03  0.00000000000E+00 0.  1.
         22    1    1    2    0    0 -0.77836918002E+03 -0.72572233410E+03  0.45799175974E+03  0.11585715078E+04  0.00000000000E+00 0. -1.
<mgrwt>
<rscale>  0 0.21349470E+04</rscale>
<asrwt>0</asrwt>
<pdfrwt beam="1">  1        2 0.26195557E+00 0.21349470E+04</pdfrwt>
<pdfrwt beam="2">  1       -2 0.10295795E+00 0.21349470E+04</pdfrwt>
<totfact> 0.69201498E+00</totfact>
</mgrwt>
</event>
<event>
 6    1  0.5026615E-004  0.4289173E+04  0.7818608E-02  0.7948623E-01
          2   -1    0    0  501    0  0.00000000000E+00  0.00000000000E+00  0.14070058864E+04  0.14070058864E+04  0.00000000000E+00 0.  1.
         -2   -1    0    0    0  501 -0.00000000000E+00 -0.00000000000E+00 -0.32688221194E+04  0.32688221194E+04  0.00000000000E+00 0. -1.
         23    2    1    2    0    0 -0.36471752513E+03 -0.54073168794E+03  0.12946427540E+04  0.14526862205E+04  0.93743070924E+02 0.  0.
         13    1    3    3    0    0 -0.14035635013E+03 -0.13461365660E+03  0.35723506961E+03  0.40674025683E+03  0.00000000000E+00 0.  1.
        -13    1    3    3    0    0 -0.22436117500E+03 -0.40611803134E+03  0.93740768435E+03  0.10459459637E+04  0.00000000000E+00 0. -1.
         22    1    1    2    0    0  0.36471752513E+03  0.54073168794E+03 -0.31564589870E+04  0.32231417853E+04  0.00000000000E+00 0. -1.
<mgrwt>
<rscale>  0 0.42891733E+04</rscale>
<asrwt>0</asrwt>
<pdfrwt beam="1">  1        2 0.21646245E+00 0.42891733E+04</pdfrwt>
<pdfrwt beam="2">  1       -2 0.50289570E+00 0.42891733E+04</pdfrwt>
<totfact> 0.17542618E-02</totfact>
</mgrwt>
</event>
<event>
 6    1  0.5026615E-004  0.1431467E+04  0.7818608E-02  0.8931351E-01
          2   -1    0    0  501    0  0.00000000000E+00  0.00000000000E+00  0.12431622793E+04  0.12431622793E+04  0.00000000000E+00 0.  1.
         -2   -1    0    0    0  501 -0.00000000000E+00 -0.00000000000E+00 -0.41207341294E+03  0.41207341294E+03  0.00000000000E+00 0. -1.
         23    2    1    2    0    0 -0.43385973618E+03  0.53243482094E+03  0.19605904212E+03  0.71982990494E+03  0.89413840209E+02 0.  0.
         13    1    3    3    0    0 -0.33073731291E+03  0.41804527475E+03  0.18930141357E+03  0.56567132425E+03  0.00000000000E+00 0.  1.
        -13    1    3    3    0    0 -0.10312242326E+03  0.11438954619E+03  0.67576285471E+01  0.15415858069E+03  0.00000000000E+00 0. -1.
         22    1    1    2    0    0  0.43385973618E+03 -0.53243482094E+03  0.63502982420E+03  0.93540578726E+03  0.00000000000E+00 0. -1.
<mgrwt>
<rscale>  0 0.14314666E+04</rscale>
<asrwt>0</asrwt>
<pdfrwt beam="1">  1        2 0.19125573E+00 0.14314666E+04</pdfrwt>
<pdfrwt beam="2">  1       -2 0.63395910E-01 0.14314666E+04</pdfrwt>
<totfact> 0.39935416E+01</totfact>
</mgrwt>
</event>
<event>
 6    1  0.5026615E-004  0.3575144E+04  0.7818608E-02  0.8096209E-01
          2   -1    0    0  501    0  0.00000000000E+00  0.00000000000E+00  0.17722114768E+04  0.17722114768E+04  0.00000000000E+00 0. -1.
         -2   -1    0    0    0  501 -0.00000000000E+00 -0.00000000000E+00 -0.18030657753E+04  0.18030657753E+04  0.00000000000E+00 0.  1.
         23    2    1    2    0    0 -0.79868632023E+03  0.60556931494E+03 -0.14941821266E+04  0.18015967944E+04  0.92502695992E+02 0.  0.
         13    1    3    3    0    0 -0.16716781132E+03  0.17619353579E+03 -0.35511526422E+03  0.43022795130E+03  0.00000000000E+00 0.  1.
        -13    1    3    3    0    0 -0.63151850891E+03  0.42937577915E+03 -0.11390668624E+04  0.13713688431E+04  0.00000000000E+00 0. -1.
         22    1    1    2    0    0  0.79868632023E+03 -0.60556931494E+03  0.14633278281E+04  0.17736804577E+04  0.00000000000E+00 0. -1.
<mgrwt>
<rscale>  0 0.35751441E+04</rscale>
<asrwt>0</asrwt>
<pdfrwt beam="1">  1        2 0.27264792E+00 0.35751441E+04</pdfrwt>
<pdfrwt beam="2">  1       -2 0.27739474E+00 0.35751441E+04</pdfrwt>
<totfact> 0.31896777E-01</totfact>
</mgrwt>
</event>
<event>
 6    1  0.5026615E-004  0.1924190E+04  0.7818608E-02  0.8642908E-01
          2   -1    0    0  501    0  0.00000000000E+00  0.00000000000E+00  0.10713644375E+04  0.10713644375E+04  0.00000000000E+00 0.  1.
         -2   -1    0    0    0  501 -0.00000000000E+00 -0.00000000000E+00 -0.86397018244E+03  0.86397018244E+03  0.00000000000E+00 0. -1.
         23    2    1    2    0    0 -0.44440869890E+03 -0.64458175470E+03 -0.45465548962E+03  0.91000804047E+03  0.91751236174E+02 0.  0.
         13    1    3    3    0    0 -0.16313778612E+03 -0.31696463364E+03 -0.20297160004E+03  0.41021699948E+03  0.00000000000E+00 0.  1.
        -13    1    3    3    0    0 -0.28127091277E+03 -0.32761712106E+03 -0.25168388958E+03  0.49979104099E+03  0.00000000000E+00 0. -1.
         22    1    1    2    0    0  0.44440869890E+03  0.64458175470E+03  0.66204974473E+03  0.10253265795E+04  0.00000000000E+00 0.  1.
<mgrwt>
<rscale>  0 0.19241901E+04</rscale>
<asrwt>0</asrwt>
<pdfrwt beam="1">  1        2 0.16482530E+00 0.19241901E+04</pdfrwt>
<pdfrwt beam="2">  1       -2 0.13291849E+00 0.19241901E+04</pdfrwt>
<totfact> 0.87091746E+00</totfact>
</mgrwt>
</event>
<event>
 6    1  0.5026615E-004  0.1824026E+04  0.7818608E-02  0.8693626E-01
         -2   -1    0    0    0  501 -0.00000000000E+00  0.00000000000E+00  0.13983622188E+04  0.13983622188E+04  0.00000000000E+00 0. -1.
          2   -1    0    0  501    0  0.00000000000E+00 -0.00000000000E+00 -0.59481545489E+03  0.59481545489E+03  0.00000000000E+00 0.  1.
         23    2    1    2    0    0 -0.11123486528E+03  0.21137395721E+03  0.13621600486E+04  0.13856408873E+04  0.86420631546E+02 0.  0.
         11    1    3    3    0    0 -0.46480254889E+02  0.11943478775E+03  0.49938728484E+03  0.51557030837E+03  0.00000000000E+00 0. -1.
        -11    1    3    3    0    0 -0.64754610389E+02  0.91939169458E+02  0.86277276376E+03  0.87007057894E+03  0.00000000000E+00 0.  1.
         22    1    1    2    0    0  0.11123486528E+03 -0.21137395721E+03 -0.55861328465E+03  0.60753678640E+03  0.00000000000E+00 0.  1.
<mgrwt>
<rscale>  0 0.18240257E+04</rscale>
<asrwt>0</asrwt>
<pdfrwt beam="1">  1        2 0.91510070E-01 0.18240257E+04</pdfrwt>
<pdfrwt beam="2">  1       -2 0.21513265E+00 0.18240257E+04</pdfrwt>
<totfact> 0.50091620E+00</totfact>
</mgrwt>
</event>
<event>
 6    1  0.5266642E-004  0.4082298E+04  0.7818608E-02  0.7988147E-01
          2   -1    0    0  501    0  0.00000000000E+00  0.00000000000E+00  0.36193922752E+04  0.36193922752E+04  0.00000000000E+00 0.  1.
         -2   -1    0    0    0  501 -0.00000000000E+00 -0.00000000000E+00 -0.11511019771E+04  0.11511019771E+04  0.00000000000E+00 0. -1.
         23    2    1    2    0    0  0.48266344764E+03 -0.15404386245E+04 -0.22317336026E+03  0.16320405274E+04  0.88514263366E+02 0.  0.
         11    1    3    3    0    0  0.34526199921E+03 -0.10154278161E+04 -0.18128712529E+03  0.10877336620E+04  0.00000000000E+00 0. -1.
        -11    1    3    3    0    0  0.13740144844E+03 -0.52501080841E+03 -0.41886234970E+02  0.54430686534E+03  0.00000000000E+00 0.  1.
         22    1    1    2    0    0 -0.48266344764E+03  0.15404386245E+04  0.26914636584E+04  0.31384537250E+04  0.00000000000E+00 0.  1.
<mgrwt>
<rscale>  0 0.40822982E+04</rscale>
<asrwt>0</asrwt>
<pdfrwt beam="1">  1        2 0.55682958E+00 0.40822982E+04</pdfrwt>
<pdfrwt beam="2">  1       -2 0.17709261E+00 0.40822982E+04</pdfrwt>
<totfact> 0.99297950E-02</totfact>
</mgrwt>
</event>
<event>
 6    1  0.5026615E-004  0.1861509E+04  0.7818608E-02  0.8674257E-01
         -2   -1    0    0    0  501 -0.00000000000E+00  0.00000000000E+00  0.87649869190E+03  0.87649869190E+03  0.00000000000E+00 0. -1.
          2   -1    0    0  501    0  0.00000000000E+00 -0.00000000000E+00 -0.98836876382E+03  0.98836876382E+03  0.00000000000E+00 0.  1.
         23    2    1    2    0    0 -0.29305403014E+03  0.54715783064E+03  0.63583675304E+03  0.89310212793E+03  0.89892592483E+02 0.  0.
         13    1    3    3    0    0 -0.23215471274E+03  0.39611164194E+03  0.51733968255E+03  0.69169400075E+03  0.00000000000E+00 0. -1.
        -13    1    3    3    0    0 -0.60899317395E+02  0.15104618870E+03  0.11849707049E+03  0.20140812718E+03  0.00000000000E+00 0.  1.
         22    1    1    2    0    0  0.29305403014E+03 -0.54715783064E+03 -0.74770682496E+03  0.97176532780E+03  0.00000000000E+00 0.  1.
<mgrwt>
<rscale>  0 0.18615090E+04</rscale>
<asrwt>0</asrwt>
<pdfrwt beam="1">  1        2 0.15205673E+00 0.18615090E+04</pdfrwt>
<pdfrwt beam="2">  1       -2 0.13484595E+00 0.18615090E+04</pdfrwt>
<totfact> 0.95256570E+00</totfact>
</mgrwt>
</event>
<event>
 6    1  0.5026615E-004  0.3722626E+04  0.7818608E-02  0.8062966E-01
         -2   -1    0    0    0  501 -0.00000000000E+00  0.00000000000E+00  0.17255553998E+04  0.17255553998E+04  0.00000000000E+00 0. -1.
          2   -1    0    0  501    0  0.00000000000E+00 -0.00000000000E+00 -0.20077511428E+04  0.20077511428E+04  0.00000000000E+00 0.  1.
         23    2    1    2    0    0 -0.13529500901E+04 -0.11689137076E+04 -0.65582832334E+03  0.19067155902E+04  0.92845841107E+02 0.  0.
         11    1    3    3    0    0 -0.21752997816E+03 -0.14515384710E+03 -0.10105438939E+03  0.28035855675E+03  0.00000000000E+00 0. -1.
        -11    1    3    3    0    0 -0.11354201119E+04 -0.10237598605E+04 -0.55477393395E+03  0.16263570335E+04  0.00000000000E+00 0.  1.
         22    1    1    2    0    0  0.13529500901E+04  0.11689137076E+04  0.37363258032E+03  0.18265909523E+04  0.00000000000E+00 0. -1.
<mgrwt>
<rscale>  0 0.37226259E+04</rscale>
<asrwt>0</asrwt>
<pdfrwt beam="1">  1        2 0.30888479E+00 0.37226259E+04</pdfrwt>
<pdfrwt beam="2">  1       -2 0.26547006E+00 0.37226259E+04</pdfrwt>
<totfact> 0.27575504E-01</totfact>
</mgrwt>
</event>
