<event>
 6    1  0.1885829E-005  0.1203407E+04  0.7818608E-02  0.9109879E-01
          2   -1    0    0  501    0  0.00000000000E+00  0.00000000000E+00  0.20918671238E+04  0.20918671238E+04  0.00000000000E+00 0. -1.
         -2   -1    0    0    0  501 -0.00000000000E+00 -0.00000000000E+00 -0.17307372184E+03  0.17307372184E+03  0.00000000000E+00 0.  1.
         23    2    1    2    0    0  0.49643157846E+02 -0.35331699193E+03  0.18687908264E+04  0.19046665093E+04  0.89877798632E+02 0.  0.
         11    1    3    3    0    0  0.44132113950E+02 -0.26261602763E+03  0.15679082838E+04  0.15903619738E+04  0.00000000000E+00 0.  1.
        -11    1    3    3    0    0  0.55110438958E+01 -0.90700964299E+02  0.30088254265E+03  0.31430453544E+03  0.00000000000E+00 0. -1.
         22    1    1    2    0    0 -0.49643157846E+02  0.35331699193E+03  0.50002575572E+02  0.36027433640E+03  0.00000000000E+00 0.  1.
<mgrwt>
<rscale>  0 0.12034072E+04</rscale>
<asrwt>0</asrwt>
<pdfrwt beam="1">  1        2 0.32182569E+00 0.12034072E+04</pdfrwt>
<pdfrwt beam="2">  1       -2 0.26626728E-01 0.12034072E+04</pdfrwt>
<totfact> 0.75057108E+01</totfact>
</mgrwt>
</event>
<event>
 6    1  0.1885829E-005  0.1278060E+04  0.7818608E-02  0.9047147E-01
          2   -1    0    0  501    0  0.00000000000E+00  0.00000000000E+00  0.19153189703E+04  0.19153189703E+04  0.00000000000E+00 0. -1.
         -2   -1    0    0    0  501 -0.00000000000E+00 -0.00000000000E+00 -0.21320686724E+03  0.21320686724E+03  0.00000000000E+00 0.  1.
         23    2    1    2    0    0  0.38940358111E+03  0.44751268030E+03  0.12367797956E+04  0.13745782901E+04  0.89098061921E+02 0.  0.
         13    1    3    3    0    0  0.27187749542E+03  0.24697967789E+03  0.74381633910E+03  0.82956559724E+03  0.00000000000E+00 0.  1.
        -13    1    3    3    0    0  0.11752608569E+03  0.20053300241E+03  0.49296345652E+03  0.54501269282E+03  0.00000000000E+00 0. -1.
         22    1    1    2    0    0 -0.38940358111E+03 -0.44751268030E+03  0.46533230742E+03  0.75394754747E+03  0.00000000000E+00 0. -1.
<mgrwt>
<rscale>  0 0.12780597E+04</rscale>
<asrwt>0</asrwt>
<pdfrwt beam="1">  1        2 0.29466444E+00 0.12780597E+04</pdfrwt>
<pdfrwt beam="2">  1       -2 0.32801058E-01 0.12780597E+04</pdfrwt>
<totfact> 0.63400672E+01</totfact>
</mgrwt>
</event>
<event>
 6    1  0.1885829E-005  0.3282291E+04  0.7818608E-02  0.8167416E-01
         -1   -1    0    0    0  501 -0.00000000000E+00  0.00000000000E+00  0.13314283554E+04  0.13314283554E+04  0.00000000000E+00 0.  1.
          1   -1    0    0  501    0  0.00000000000E+00 -0.00000000000E+00 -0.20229095009E+04  0.20229095009E+04  0.00000000000E+00 0. -1.
         23    2    1    2    0    0 -0.15649416284E+04 -0.44826146394E+03 -0.14366501941E+03  0.16367572472E+04  0.91400263414E+02 0.  0.
         11    1    3    3    0    0 -0.37098863889E+03 -0.12437810243E+03  0.49064008137E+00  0.39128343087E+03  0.00000000000E+00 0.  1.
        -11    1    3    3    0    0 -0.11939529895E+04 -0.32388336152E+03 -0.14415565949E+03  0.12454738164E+04  0.00000000000E+00 0. -1.
         22    1    1    2    0    0  0.15649416284E+04  0.44826146394E+03 -0.54781612610E+03  0.17175806090E+04  0.00000000000E+00 0. -1.
<mgrwt>
<rscale>  0 0.32822913E+04</rscale>
<asrwt>0</asrwt>
<pdfrwt beam="1">  1        1 0.31121685E+00 0.32822913E+04</pdfrwt>
<pdfrwt beam="2">  1       -1 0.20483513E+00 0.32822913E+04</pdfrwt>
<totfact> 0.33305434E-01</totfact>
</mgrwt>
</event>
<event>
 6    1  0.1885829E-005  0.2157471E+04  0.7818608E-02  0.8536341E-01
          1   -1    0    0  501    0  0.00000000000E+00  0.00000000000E+00  0.20976472783E+04  0.20976472783E+04  0.00000000000E+00 0. -1.
         -1   -1    0    0    0  501 -0.00000000000E+00 -0.00000000000E+00 -0.55475017275E+03  0.55475017275E+03  0.00000000000E+00 0.  1.
         23    2    1    2    0    0  0.71587489112E+01  0.84669731660E+03  0.15907376867E+04  0.18043194388E+04  0.90413804332E+02 0.  0.
         11    1    3    3    0    0 -0.92558577970E+00  0.43549061790E+03  0.91310170014E+03  0.10116361252E+04  0.00000000000E+00 0. -1.
        -11    1    3    3    0    0  0.80843346909E+01  0.41120669870E+03  0.67763598651E+03  0.79268331365E+03  0.00000000000E+00 0.  1.
         22    1    1    2    0    0 -0.71587489112E+01 -0.84669731660E+03 -0.47840581092E+02  0.84807801223E+03  0.00000000000E+00 0.  1.
<mgrwt>
<rscale>  0 0.21574709E+04</rscale>
<asrwt>0</asrwt>
<pdfrwt beam="1">  1        1 0.32271496E+00 0.21574709E+04</pdfrwt>
<pdfrwt beam="2">  1       -1 0.85346181E-01 0.21574709E+04</pdfrwt>
<totfact> 0.31759975E+00</totfact>
</mgrwt>
</event>
<event>
 6    1  0.1885829E-005  0.1964197E+04  0.7818608E-02  0.8623545E-01
          1   -1    0    0  501    0  0.00000000000E+00  0.00000000000E+00  0.10242343029E+04  0.10242343029E+04  0.00000000000E+00 0. -1.
         -1   -1    0    0    0  501 -0.00000000000E+00 -0.00000000000E+00 -0.94169592062E+03  0.94169592062E+03  0.00000000000E+00 0.  1.
         23    2    1    2    0    0  0.78226439140E+02 -0.89093296069E+03 -0.35955339766E+03  0.96826993156E+03  0.91581102722E+02 0.  0.
         11    1    3    3    0    0 -0.13943825677E+02 -0.30694355990E+03 -0.13922530993E+03  0.33733138924E+03  0.00000000000E+00 0. -1.
        -11    1    3    3    0    0  0.92170264817E+02 -0.58398940079E+03 -0.22032808773E+03  0.63093854232E+03  0.00000000000E+00 0.  1.
         22    1    1    2    0    0 -0.78226439140E+02  0.89093296069E+03  0.44209177990E+03  0.99766029193E+03  0.00000000000E+00 0. -1.
<mgrwt>
<rscale>  0 0.19641968E+04</rscale>
<asrwt>0</asrwt>
<pdfrwt beam="1">  1        1 0.15757451E+00 0.19641968E+04</pdfrwt>
<pdfrwt beam="2">  1       -1 0.14487630E+00 0.19641968E+04</pdfrwt>
<totfact> 0.51628278E+00</totfact>
</mgrwt>
</event>
<event>
 6    1  0.1885829E-005  0.3255120E+04  0.7818608E-02  0.8174410E-01
         -2   -1    0    0    0  501 -0.00000000000E+00  0.00000000000E+00  0.93426354076E+03  0.93426354076E+03  0.00000000000E+00 0.  1.
          2   -1    0    0  501    0  0.00000000000E+00 -0.00000000000E+00 -0.28353360688E+04  0.28353360688E+04  0.00000000000E+00 0. -1.
         23    2    1    2    0    0  0.15765701456E+04  0.15022120865E+03 -0.13797509185E+04  0.21022915828E+04  0.88189945441E+02 0.  0.
         13    1    3    3    0    0  0.42089299031E+03  0.76886448090E+02 -0.39066536296E+03  0.57938058391E+03  0.00000000000E+00 0. -1.
        -13    1    3    3    0    0  0.11556771553E+04  0.73334760559E+02 -0.98908555557E+03  0.15229109989E+04  0.00000000000E+00 0.  1.
         22    1    1    2    0    0 -0.15765701456E+04 -0.15022120865E+03 -0.52132160949E+03  0.16673080267E+04  0.00000000000E+00 0.  1.
<mgrwt>
<rscale>  0 0.32551197E+04</rscale>
<asrwt>0</asrwt>
<pdfrwt beam="1">  1        2 0.43620555E+00 0.32551197E+04</pdfrwt>
<pdfrwt beam="2">  1       -2 0.14373285E+00 0.32551197E+04</pdfrwt>
<totfact> 0.61830733E-01</totfact>
</mgrwt>
</event>
<event>
 6    1  0.1885829E-005  0.3904306E+04  0.7818608E-02  0.8024134E-01
          2   -1    0    0  501    0  0.00000000000E+00  0.00000000000E+00  0.29032933318E+04  0.29032933318E+04  0.00000000000E+00 0. -1.
         -2   -1    0    0    0  501 -0.00000000000E+00 -0.00000000000E+00 -0.13126134239E+04  0.13126134239E+04  0.00000000000E+00 0.  1.
         23    2    1    2    0    0  0.15232610731E+04  0.12190401302E+04  0.77045665911E+03  0.20995066721E+04  0.89116028861E+02 0.  0.
         11    1    3    3    0    0  0.79778599195E+03  0.66162691612E+03  0.45285531682E+03  0.11310572943E+04  0.00000000000E+00 0. -1.
        -11    1    3    3    0    0  0.72547508115E+03  0.55741321410E+03  0.31760134228E+03  0.96844937774E+03  0.00000000000E+00 0.  1.
         22    1    1    2    0    0 -0.15232610731E+04 -0.12190401302E+04  0.82022324885E+03  0.21164000836E+04  0.00000000000E+00 0.  1.
<mgrwt>
<rscale>  0 0.39043062E+04</rscale>
<asrwt>0</asrwt>
<pdfrwt beam="1">  1        2 0.44666051E+00 0.39043062E+04</pdfrwt>
<pdfrwt beam="2">  1       -2 0.20194053E+00 0.39043062E+04</pdfrwt>
<totfact> 0.20523714E-01</totfact>
</mgrwt>
</event>
<event>
 6    1  0.1885829E-005  0.1249363E+04  0.7818608E-02  0.9070713E-01
          2   -1    0    0  501    0  0.00000000000E+00  0.00000000000E+00  0.17980257523E+04  0.17980257523E+04  0.00000000000E+00 0. -1.
         -2   -1    0    0    0  501 -0.00000000000E+00 -0.00000000000E+00 -0.21703094028E+03  0.21703094028E+03  0.00000000000E+00 0.  1.
         23    2    1    2    0    0 -0.31050290338E+03 -0.40074377973E+03  0.13744317320E+04  0.14676300436E+04  0.88700219331E+02 0.  0.
         13    1    3    3    0    0 -0.19758836821E+03 -0.23449624840E+03  0.70792050592E+03  0.77147980950E+03  0.00000000000E+00 0.  1.
        -13    1    3    3    0    0 -0.11291453517E+03 -0.16624753133E+03  0.66651122611E+03  0.69615023412E+03  0.00000000000E+00 0. -1.
         22    1    1    2    0    0  0.31050290338E+03  0.40074377973E+03  0.20656308002E+03  0.54742664900E+03  0.00000000000E+00 0.  1.
<mgrwt>
<rscale>  0 0.12493634E+04</rscale>
<asrwt>0</asrwt>
<pdfrwt beam="1">  1        2 0.27661934E+00 0.12493634E+04</pdfrwt>
<pdfrwt beam="2">  1       -2 0.33389377E-01 0.12493634E+04</pdfrwt>
<totfact> 0.71320255E+01</totfact>
</mgrwt>
</event>
<event>
 6    1  0.1885829E-005  0.2695629E+04  0.7818608E-02  0.8336425E-01
          2   -1    0    0  501    0  0.00000000000E+00  0.00000000000E+00  0.14184732536E+04  0.14184732536E+04  0.00000000000E+00 0. -1.
         -2   -1    0    0    0  501 -0.00000000000E+00 -0.00000000000E+00 -0.12806751317E+04  0.12806751317E+04  0.00000000000E+00 0.  1.
         23    2    1    2    0    0 -0.82150874420E+03  0.50195725825E+03 -0.87344348532E+03  0.13029222954E+04  0.88686412613E+02 0.  0.
         13    1    3    3    0    0 -0.62199281083E+03  0.42312815648E+03 -0.68130548934E+03  0.10149333295E+04  0.00000000000E+00 0. -1.
        -13    1    3    3    0    0 -0.19951593337E+03  0.78829101771E+02 -0.19213799598E+03  0.28798896586E+03  0.00000000000E+00 0.  1.
         22    1    1    2    0    0  0.82150874420E+03 -0.50195725825E+03  0.10112416073E+04  0.13962260900E+04  0.00000000000E+00 0. -1.
<mgrwt>
<rscale>  0 0.26956286E+04</rscale>
<asrwt>0</asrwt>
<pdfrwt beam="1">  1        2 0.21822665E+00 0.26956286E+04</pdfrwt>
<pdfrwt beam="2">  1       -2 0.19702694E+00 0.26956286E+04</pdfrwt>
<totfact> 0.17247212E+00</totfact>
</mgrwt>
</event>
<event>
 6    1  0.1885829E-005  0.1092833E+04  0.7818608E-02  0.9212205E-01
         -2   -1    0    0    0  501 -0.00000000000E+00  0.00000000000E+00  0.91346620554E+02  0.91346620554E+02  0.00000000000E+00 0.  1.
          2   -1    0    0  501    0  0.00000000000E+00 -0.00000000000E+00 -0.32685515020E+04  0.32685515020E+04  0.00000000000E+00 0. -1.
         23    2    1    2    0    0 -0.35904259868E+03  0.35230403220E+03 -0.97467676482E+03  0.11006593518E+04  0.91795936991E+02 0.  0.
         13    1    3    3    0    0 -0.14792147777E+03  0.17981926808E+03 -0.53270378756E+03  0.58136826370E+03  0.00000000000E+00 0.  1.
        -13    1    3    3    0    0 -0.21112112091E+03  0.17248476412E+03 -0.44197297726E+03  0.51929108810E+03  0.00000000000E+00 0. -1.
         22    1    1    2    0    0  0.35904259868E+03 -0.35230403220E+03 -0.22025281167E+04  0.22592387708E+04  0.00000000000E+00 0. -1.
<mgrwt>
<rscale>  0 0.10928333E+04</rscale>
<asrwt>0</asrwt>
<pdfrwt beam="1">  1        2 0.50285414E+00 0.10928333E+04</pdfrwt>
<pdfrwt beam="2">  1       -2 0.14053324E-01 0.10928333E+04</pdfrwt>
<totfact> 0.46701736E+01</totfact>
</mgrwt>
</event>
<event>
 6    1  0.1885829E-005  0.2950058E+04  0.7818608E-02  0.8258138E-01
         -2   -1    0    0    0  501 -0.00000000000E+00  0.00000000000E+00  0.67446471952E+03  0.67446471952E+03  0.00000000000E+00 0.  1.
          2   -1    0    0  501    0  0.00000000000E+00 -0.00000000000E+00 -0.32258335549E+04  0.32258335549E+04  0.00000000000E+00 0. -1.
         23    2    1    2    0    0 -0.20651562007E+02 -0.43080631459E+03 -0.31398688275E+04  0.31706731595E+04  0.91495697895E+02 0.  0.
         11    1    3    3    0    0 -0.52361378566E+02 -0.35326685845E+03 -0.25427543539E+04  0.25677108271E+04  0.00000000000E+00 0.  1.
        -11    1    3    3    0    0  0.31709816560E+02 -0.77539456136E+02 -0.59711447353E+03  0.60296233234E+03  0.00000000000E+00 0. -1.
         22    1    1    2    0    0  0.20651562007E+02  0.43080631459E+03  0.58849999209E+03  0.72962511497E+03  0.00000000000E+00 0.  1.
<mgrwt>
<rscale>  0 0.29500583E+04</rscale>
<asrwt>0</asrwt>
<pdfrwt beam="1">  1        2 0.49628208E+00 0.29500583E+04</pdfrwt>
<pdfrwt beam="2">  1       -2 0.10376380E+00 0.29500583E+04</pdfrwt>
<totfact> 0.81021285E-01</totfact>
</mgrwt>
</event>
<event>
 6    1  0.1885829E-005  0.3537129E+04  0.7818608E-02  0.8105047E-01
          2   -1    0    0  501    0  0.00000000000E+00  0.00000000000E+00  0.44906907599E+04  0.44906907599E+04  0.00000000000E+00 0. -1.
         -2   -1    0    0    0  501 -0.00000000000E+00 -0.00000000000E+00 -0.69651216227E+03  0.69651216227E+03  0.00000000000E+00 0.  1.
         23    2    1    2    0    0 -0.85302736781E+03 -0.13203144045E+04  0.30832670591E+04  0.34620127783E+04  0.90060551498E+02 0.  0.
         13    1    3    3    0    0 -0.65991588731E+03 -0.95193411621E+03  0.22411325540E+04  0.25227648849E+04  0.00000000000E+00 0. -1.
        -13    1    3    3    0    0 -0.19311148050E+03 -0.36838028825E+03  0.84213450509E+03  0.93924789344E+03  0.00000000000E+00 0.  1.
         22    1    1    2    0    0  0.85302736781E+03  0.13203144045E+04  0.71091153859E+03  0.17251901439E+04  0.00000000000E+00 0.  1.
<mgrwt>
<rscale>  0 0.35371292E+04</rscale>
<asrwt>0</asrwt>
<pdfrwt beam="1">  1        2 0.69087548E+00 0.35371292E+04</pdfrwt>
<pdfrwt beam="2">  1       -2 0.10715572E+00 0.35371292E+04</pdfrwt>
<totfact> 0.71714804E-02</totfact>
</mgrwt>
</event>
<event>
 6    1  0.1885829E-005  0.3491907E+04  0.7818608E-02  0.8115710E-01
         -1   -1    0    0    0  501 -0.00000000000E+00  0.00000000000E+00  0.23371216702E+04  0.23371216702E+04  0.00000000000E+00 0.  1.
          1   -1    0    0  501    0  0.00000000000E+00 -0.00000000000E+00 -0.13043198650E+04  0.13043198650E+04  0.00000000000E+00 0. -1.
         23    2    1    2    0    0 -0.42854376735E+03  0.50370715399E+03  0.22003975834E+04  0.22995583217E+04  0.94065363300E+02 0.  0.
         13    1    3    3    0    0 -0.42531756345E+03  0.46957546510E+03  0.20978934588E+04  0.21914728179E+04  0.00000000000E+00 0. -1.
        -13    1    3    3    0    0 -0.32262039070E+01  0.34131688894E+02  0.10250412461E+03  0.10808550384E+03  0.00000000000E+00 0.  1.
         22    1    1    2    0    0  0.42854376735E+03 -0.50370715399E+03 -0.11675957782E+04  0.13418832135E+04  0.00000000000E+00 0. -1.
<mgrwt>
<rscale>  0 0.34919073E+04</rscale>
<asrwt>0</asrwt>
<pdfrwt beam="1">  1        1 0.20066459E+00 0.34919073E+04</pdfrwt>
<pdfrwt beam="2">  1       -1 0.35955718E+00 0.34919073E+04</pdfrwt>
<totfact> 0.98363006E-02</totfact>
</mgrwt>
</event>
<event>
 6    1  0.1885829E-005  0.3055062E+04  0.7818608E-02  0.8228180E-01
         -2   -1    0    0    0  501 -0.00000000000E+00  0.00000000000E+00  0.25206051243E+04  0.25206051243E+04  0.00000000000E+00 0.  1.
          2   -1    0    0  501    0  0.00000000000E+00 -0.00000000000E+00 -0.92571052613E+03  0.92571052613E+03  0.00000000000E+00 0. -1.
         23    2    1    2    0    0 -0.55179689893E+03 -0.13902466018E+04  0.11402606016E+04  0.18829994629E+04  0.90704498910E+02 0.  0.
         11    1    3    3    0    0 -0.27947862266E+03 -0.77127290184E+03  0.57746574582E+03  0.10032132760E+04  0.00000000000E+00 0.  1.
        -11    1    3    3    0    0 -0.27231827627E+03 -0.61897369996E+03  0.56279485583E+03  0.87978618685E+03  0.00000000000E+00 0. -1.
         22    1    1    2    0    0  0.55179689893E+03  0.13902466018E+04  0.45463399656E+03  0.15633161876E+04  0.00000000000E+00 0.  1.
<mgrwt>
<rscale>  0 0.30550618E+04</rscale>
<asrwt>0</asrwt>
<pdfrwt beam="1">  1        2 0.14241701E+00 0.30550618E+04</pdfrwt>
<pdfrwt beam="2">  1       -2 0.38778540E+00 0.30550618E+04</pdfrwt>
<totfact> 0.21393113E-01</totfact>
</mgrwt>
</event>
<event>
 6    1  0.1885829E-005  0.4143686E+04  0.7818608E-02  0.7976172E-01
         -2   -1    0    0    0  501 -0.00000000000E+00  0.00000000000E+00  0.20970449010E+04  0.20970449010E+04  0.00000000000E+00 0.  1.
          2   -1    0    0  501    0  0.00000000000E+00 -0.00000000000E+00 -0.20469441944E+04  0.20469441944E+04  0.00000000000E+00 0. -1.
         23    2    1    2    0    0  0.39550582398E+03  0.18120732780E+04  0.94619111031E+03  0.20841317136E+04  0.91065695247E+02 0.  0.
         13    1    3    3    0    0  0.17749903967E+03  0.88245712897E+03  0.41085336006E+03  0.98946297406E+03  0.00000000000E+00 0. -1.
        -13    1    3    3    0    0  0.21800678431E+03  0.92961614905E+03  0.53533775025E+03  0.10946687396E+04  0.00000000000E+00 0.  1.
         22    1    1    2    0    0 -0.39550582398E+03 -0.18120732780E+04 -0.89609040371E+03  0.20598573818E+04  0.00000000000E+00 0. -1.
<mgrwt>
<rscale>  0 0.41436862E+04</rscale>
<asrwt>0</asrwt>
<pdfrwt beam="1">  1        2 0.31491449E+00 0.41436862E+04</pdfrwt>
<pdfrwt beam="2">  1       -2 0.32262229E+00 0.41436862E+04</pdfrwt>
<totfact> 0.11314695E-01</totfact>
</mgrwt>
</event>
<event>
 6    1  0.1885829E-005  0.7727533E+03  0.7818608E-02  0.9600315E-01
         -2   -1    0    0    0  501 -0.00000000000E+00  0.00000000000E+00  0.12655336986E+03  0.12655336986E+03  0.00000000000E+00 0.  1.
          2   -1    0    0  501    0  0.00000000000E+00 -0.00000000000E+00 -0.11796359130E+04  0.11796359130E+04  0.00000000000E+00 0. -1.
         23    2    1    2    0    0 -0.11345198683E+02  0.33306104730E+03 -0.84630288013E+03  0.91399519339E+03  0.90001521472E+02 0.  0.
         13    1    3    3    0    0 -0.36345797225E+02  0.28949024524E+03 -0.67215316619E+03  0.73274517937E+03  0.00000000000E+00 0. -1.
        -13    1    3    3    0    0  0.25000598542E+02  0.43570802064E+02 -0.17414971393E+03  0.18125001402E+03  0.00000000000E+00 0.  1.
         22    1    1    2    0    0  0.11345198683E+02 -0.33306104730E+03 -0.20677966297E+03  0.39219408943E+03  0.00000000000E+00 0.  1.
<mgrwt>
<rscale>  0 0.77275326E+03</rscale>
<asrwt>0</asrwt>
<pdfrwt beam="1">  1        2 0.18148245E+00 0.77275326E+03</pdfrwt>
<pdfrwt beam="2">  1       -2 0.19469749E-01 0.77275326E+03</pdfrwt>
<totfact> 0.43874188E+02</totfact>
</mgrwt>
</event>
<event>
 6    1  0.1885829E-005  0.1316581E+04  0.7818608E-02  0.9016518E-01
         -2   -1    0    0    0  501 -0.00000000000E+00  0.00000000000E+00  0.20759196664E+03  0.20759196664E+03  0.00000000000E+00 0.  1.
          2   -1    0    0  501    0  0.00000000000E+00 -0.00000000000E+00 -0.20874924516E+04  0.20874924516E+04  0.00000000000E+00 0. -1.
         23    2    1    2    0    0  0.32280269216E+02 -0.65195773476E+03 -0.10398656950E+04  0.12312473292E+04  0.92511719871E+02 0.  0.
         13    1    3    3    0    0 -0.26356622027E+02 -0.19764659053E+03 -0.27462656658E+03  0.33937972442E+03  0.00000000000E+00 0. -1.
        -13    1    3    3    0    0  0.58636891243E+02 -0.45431114423E+03 -0.76523912845E+03  0.89186760480E+03  0.00000000000E+00 0.  1.
         22    1    1    2    0    0 -0.32280269216E+02  0.65195773476E+03 -0.84003478997E+03  0.10638370891E+04  0.00000000000E+00 0.  1.
<mgrwt>
<rscale>  0 0.13165814E+04</rscale>
<asrwt>0</asrwt>
<pdfrwt beam="1">  1        2 0.32115268E+00 0.13165814E+04</pdfrwt>
<pdfrwt beam="2">  1       -2 0.31937226E-01 0.13165814E+04</pdfrwt>
<totfact> 0.53373305E+01</totfact>
</mgrwt>
</event>
<event>
 6    1  0.1885829E-005  0.2298855E+04  0.7818608E-02  0.8478373E-01
         -2   -1    0    0    0  501 -0.00000000000E+00  0.00000000000E+00  0.16859136058E+04  0.16859136058E+04  0.00000000000E+00 0. -1.
          2   -1    0    0  501    0  0.00000000000E+00 -0.00000000000E+00 -0.78366058061E+03  0.78366058061E+03  0.00000000000E+00 0.  1.
         23    2    1    2    0    0  0.79211975347E+03  0.82254465391E+03  0.32826346598E+03  0.11914906893E+04  0.88655220029E+02 0.  0.
         11    1    3    3    0    0  0.61980172628E+03  0.60481611553E+03  0.22038335750E+03  0.89360256141E+03  0.00000000000E+00 0. -1.
        -11    1    3    3    0    0  0.17231802720E+03  0.21772853838E+03  0.10788010848E+03  0.29788812787E+03  0.00000000000E+00 0.  1.
         22    1    1    2    0    0 -0.79211975347E+03 -0.82254465391E+03  0.57398955920E+03  0.12780834971E+04  0.00000000000E+00 0. -1.
<mgrwt>
<rscale>  0 0.22988554E+04</rscale>
<asrwt>0</asrwt>
<pdfrwt beam="1">  1        2 0.12056317E+00 0.22988554E+04</pdfrwt>
<pdfrwt beam="2">  1       -2 0.25937132E+00 0.22988554E+04</pdfrwt>
<totfact> 0.18066918E+00</totfact>
</mgrwt>
</event>
<event>
 6    1  0.1885829E-005  0.2907628E+04  0.7818608E-02  0.8270612E-01
          2   -1    0    0  501    0  0.00000000000E+00  0.00000000000E+00  0.35708881426E+04  0.35708881426E+04  0.00000000000E+00 0. -1.
         -2   -1    0    0    0  501 -0.00000000000E+00 -0.00000000000E+00 -0.59189042832E+03  0.59189042832E+03  0.00000000000E+00 0.  1.
         23    2    1    2    0    0  0.87154915226E+03  0.10388275190E+04  0.22356101584E+04  0.26163680183E+04  0.93103640496E+02 0.  0.
         11    1    3    3    0    0  0.20042128923E+03  0.19526854563E+03  0.51048428916E+03  0.58214491973E+03  0.00000000000E+00 0.  1.
        -11    1    3    3    0    0  0.67112786303E+03  0.84355897334E+03  0.17251258693E+04  0.20342230986E+04  0.00000000000E+00 0. -1.
         22    1    1    2    0    0 -0.87154915226E+03 -0.10388275190E+04  0.74338755584E+03  0.15464105526E+04  0.00000000000E+00 0.  1.
<mgrwt>
<rscale>  0 0.29076276E+04</rscale>
<asrwt>0</asrwt>
<pdfrwt beam="1">  1        2 0.54936740E+00 0.29076276E+04</pdfrwt>
<pdfrwt beam="2">  1       -2 0.91060068E-01 0.29076276E+04</pdfrwt>
<totfact> 0.64231744E-01</totfact>
</mgrwt>
</event>
<event>
 6    1  0.1885829E-005  0.3223119E+04  0.7818608E-02  0.8182738E-01
         -2   -1    0    0    0  501 -0.00000000000E+00  0.00000000000E+00  0.94261895124E+03  0.94261895124E+03  0.00000000000E+00 0.  1.
          2   -1    0    0  501    0  0.00000000000E+00 -0.00000000000E+00 -0.27552220334E+04  0.27552220334E+04  0.00000000000E+00 0. -1.
         23    2    1    2    0    0 -0.11281750233E+04 -0.44000865290E+03 -0.21247980704E+04  0.24473002182E+04  0.90138893370E+02 0.  0.
         13    1    3    3    0    0 -0.24636347395E+03 -0.69626614275E+02 -0.50556909081E+03  0.56669474349E+03  0.00000000000E+00 0. -1.
        -13    1    3    3    0    0 -0.88181154933E+03 -0.37038203863E+03 -0.16192289796E+04  0.18806054747E+04  0.00000000000E+00 0.  1.
         22    1    1    2    0    0  0.11281750233E+04  0.44000865290E+03  0.31219498829E+03  0.12505407664E+04  0.00000000000E+00 0.  1.
<mgrwt>
<rscale>  0 0.32231193E+04</rscale>
<asrwt>0</asrwt>
<pdfrwt beam="1">  1        2 0.42388031E+00 0.32231193E+04</pdfrwt>
<pdfrwt beam="2">  1       -2 0.14501830E+00 0.32231193E+04</pdfrwt>
<totfact> 0.67719653E-01</totfact>
</mgrwt>
</event>
<event>
 6    1  0.1885829E-005  0.1747305E+04  0.7818608E-02  0.8734835E-01
         -3   -1    0    0    0  501 -0.00000000000E+00  0.00000000000E+00  0.16514330303E+04  0.16514330303E+04  0.00000000000E+00 0.  1.
          3   -1    0    0  501    0  0.00000000000E+00 -0.00000000000E+00 -0.46218558028E+03  0.46218558028E+03  0.00000000000E+00 0. -1.
         23    2    1    2    0    0 -0.10459051705E+03  0.51721675275E+03  0.14349250482E+04  0.15315448800E+04  0.90374110451E+02 0.  0.
         13    1    3    3    0    0  0.38942742921E+01  0.84767269410E+02  0.31237426379E+03  0.32369481925E+03  0.00000000000E+00 0.  1.
        -13    1    3    3    0    0 -0.10848479134E+03  0.43244948334E+03  0.11225507844E+04  0.12078500607E+04  0.00000000000E+00 0. -1.
         22    1    1    2    0    0  0.10459051705E+03 -0.51721675275E+03 -0.24567759819E+03  0.58207373059E+03  0.00000000000E+00 0. -1.
<mgrwt>
<rscale>  0 0.17473048E+04</rscale>
<asrwt>0</asrwt>
<pdfrwt beam="1">  1        3 0.71105475E-01 0.17473048E+04</pdfrwt>
<pdfrwt beam="2">  1       -3 0.25406662E+00 0.17473048E+04</pdfrwt>
<totfact> 0.32440536E-01</totfact>
</mgrwt>
</event>
<event>
 6    1  0.1885829E-005  0.9239815E+03  0.7818608E-02  0.9396090E-01
         -2   -1    0    0    0  501 -0.00000000000E+00  0.00000000000E+00  0.59492883142E+03  0.59492883142E+03  0.00000000000E+00 0.  1.
          2   -1    0    0  501    0  0.00000000000E+00 -0.00000000000E+00 -0.35875793765E+03  0.35875793765E+03  0.00000000000E+00 0. -1.
         23    2    1    2    0    0  0.23789375445E+03 -0.94173910519E+02  0.51073825415E+03  0.57838768939E+03  0.90645414469E+02 0.  0.
         13    1    3    3    0    0  0.73675511080E+02  0.66766348455E+01  0.97190680546E+02  0.12214207617E+03  0.00000000000E+00 0. -1.
        -13    1    3    3    0    0  0.16421824337E+03 -0.10085054536E+03  0.41354757360E+03  0.45624561322E+03  0.00000000000E+00 0.  1.
         22    1    1    2    0    0 -0.23789375445E+03  0.94173910519E+02 -0.27456736037E+03  0.37529907968E+03  0.00000000000E+00 0. -1.
<mgrwt>
<rscale>  0 0.92398147E+03</rscale>
<asrwt>0</asrwt>
<pdfrwt beam="1">  1        2 0.55193529E-01 0.92398147E+03</pdfrwt>
<pdfrwt beam="2">  1       -2 0.91527512E-01 0.92398147E+03</pdfrwt>
<totfact> 0.91597549E+01</totfact>
</mgrwt>
</event>
<event>
 6    1  0.1885829E-005  0.1085358E+04  0.7818608E-02  0.9219582E-01
          2   -1    0    0  501    0  0.00000000000E+00  0.00000000000E+00  0.26290311636E+04  0.26290311636E+04  0.00000000000E+00 0. -1.
         -2   -1    0    0    0  501 -0.00000000000E+00 -0.00000000000E+00 -0.11201853906E+03  0.11201853906E+03  0.00000000000E+00 0.  1.
         23    2    1    2    0    0 -0.49794262525E+03 -0.15800019886E+03  0.16024141859E+04  0.16877685318E+04  0.88997038905E+02 0.  0.
         13    1    3    3    0    0 -0.25291787645E+03 -0.60035095069E+02  0.66758389783E+03  0.71640765316E+03  0.00000000000E+00 0. -1.
        -13    1    3    3    0    0 -0.24502474880E+03 -0.97965103789E+02  0.93483028808E+03  0.97136087866E+03  0.00000000000E+00 0.  1.
         22    1    1    2    0    0  0.49794262525E+03  0.15800019886E+03  0.91459843863E+03  0.10532811708E+04  0.00000000000E+00 0.  1.
<mgrwt>
<rscale>  0 0.10853575E+04</rscale>
<asrwt>0</asrwt>
<pdfrwt beam="1">  1        2 0.40446629E+00 0.10853575E+04</pdfrwt>
<pdfrwt beam="2">  1       -2 0.17233623E-01 0.10853575E+04</pdfrwt>
<totfact> 0.81470109E+01</totfact>
</mgrwt>
</event>
<event>
 6    1  0.1885829E-005  0.6885799E+04  0.7818608E-02  0.7589329E-01
          2   -1    0    0  501    0  0.00000000000E+00  0.00000000000E+00  0.50937630519E+04  0.50937630519E+04  0.00000000000E+00 0. -1.
         -2   -1    0    0    0  501 -0.00000000000E+00 -0.00000000000E+00 -0.23270724297E+04  0.23270724297E+04  0.00000000000E+00 0.  1.
         23    2    1    2    0    0 -0.10575730331E+04 -0.25909827327E+04  0.35437153231E+04  0.45164560940E+04  0.93835579993E+02 0.  0.
         13    1    3    3    0    0 -0.87668927853E+03 -0.20827710445E+04  0.28154859895E+04  0.36101912237E+04  0.00000000000E+00 0.  1.
        -13    1    3    3    0    0 -0.18088375454E+03 -0.50821168818E+03  0.72822933360E+03  0.90626487021E+03  0.00000000000E+00 0. -1.
         22    1    1    2    0    0  0.10575730331E+04  0.25909827327E+04 -0.77702470095E+03  0.29043793876E+04  0.00000000000E+00 0.  1.
<mgrwt>
<rscale>  0 0.68857986E+04</rscale>
<asrwt>0</asrwt>
<pdfrwt beam="1">  1        2 0.78365585E+00 0.68857986E+04</pdfrwt>
<pdfrwt beam="2">  1       -2 0.35801114E+00 0.68857986E+04</pdfrwt>
<totfact> 0.21967454E-04</totfact>
</mgrwt>
</event>
<event>
 6    1  0.1885829E-005  0.5212927E+04  0.7818608E-02  0.7796475E-01
         -2   -1    0    0    0  501 -0.00000000000E+00  0.00000000000E+00  0.17070608650E+04  0.17070608650E+04  0.00000000000E+00 0. -1.
          2   -1    0    0  501    0  0.00000000000E+00 -0.00000000000E+00 -0.39797362644E+04  0.39797362644E+04  0.00000000000E+00 0.  1.
         23    2    1    2    0    0  0.27124571739E+02  0.11266928535E+04 -0.36995801914E+04  0.38684930255E+04  0.90400042899E+02 0.  0.
         13    1    3    3    0    0  0.47341452518E+02  0.31474292188E+03 -0.10130976030E+04  0.10619185812E+04  0.00000000000E+00 0. -1.
        -13    1    3    3    0    0 -0.20216880779E+02  0.81194993163E+03 -0.26864825884E+04  0.28065744443E+04  0.00000000000E+00 0.  1.
         22    1    1    2    0    0 -0.27124571739E+02 -0.11266928535E+04  0.14269047920E+04  0.18183041038E+04  0.00000000000E+00 0. -1.
<mgrwt>
<rscale>  0 0.52129270E+04</rscale>
<asrwt>0</asrwt>
<pdfrwt beam="1">  1        2 0.61226711E+00 0.52129270E+04</pdfrwt>
<pdfrwt beam="2">  1       -2 0.26262475E+00 0.52129270E+04</pdfrwt>
<totfact> 0.13609980E-02</totfact>
</mgrwt>
</event>
<event>
 6    1  0.1885829E-005  0.1070921E+04  0.7818608E-02  0.9234007E-01
         -2   -1    0    0    0  501 -0.00000000000E+00  0.00000000000E+00  0.12251541807E+03  0.12251541807E+03  0.00000000000E+00 0.  1.
          2   -1    0    0  501    0  0.00000000000E+00 -0.00000000000E+00 -0.23402593392E+04  0.23402593392E+04  0.00000000000E+00 0. -1.
         23    2    1    2    0    0  0.35245126917E+03  0.30576273323E+03 -0.53410806037E+03  0.71567932261E+03  0.95982948959E+02 0.  0.
         13    1    3    3    0    0  0.24358233341E+03  0.16445125865E+03 -0.37660969475E+03  0.47771480174E+03  0.00000000000E+00 0. -1.
        -13    1    3    3    0    0  0.10886893576E+03  0.14131147458E+03 -0.15749836562E+03  0.23796452087E+03  0.00000000000E+00 0.  1.
         22    1    1    2    0    0 -0.35245126917E+03 -0.30576273323E+03 -0.16836358607E+04  0.17470954346E+04  0.00000000000E+00 0. -1.
<mgrwt>
<rscale>  0 0.10709208E+04</rscale>
<asrwt>0</asrwt>
<pdfrwt beam="1">  1        2 0.36003987E+00 0.10709208E+04</pdfrwt>
<pdfrwt beam="2">  1       -2 0.18848527E-01 0.10709208E+04</pdfrwt>
<totfact> 0.10214718E+02</totfact>
</mgrwt>
</event>
<event>
 6    1  0.1885829E-005  0.2573892E+04  0.7818608E-02  0.8377124E-01
          1   -1    0    0  501    0  0.00000000000E+00  0.00000000000E+00  0.19146813356E+04  0.19146813356E+04  0.00000000000E+00 0. -1.
         -1   -1    0    0    0  501 -0.00000000000E+00 -0.00000000000E+00 -0.86501599759E+03  0.86501599759E+03  0.00000000000E+00 0.  1.
         23    2    1    2    0    0 -0.35201156129E+03 -0.97266579892E+03 -0.29765707692E+03  0.10810894957E+04  0.10081600405E+03 0.  0.
         13    1    3    3    0    0 -0.24046312599E+03 -0.57362816578E+03 -0.13840608700E+03  0.63720328974E+03  0.00000000000E+00 0. -1.
        -13    1    3    3    0    0 -0.11154843530E+03 -0.39903763314E+03 -0.15925098992E+03  0.44388620599E+03  0.00000000000E+00 0.  1.
         22    1    1    2    0    0  0.35201156129E+03  0.97266579892E+03  0.13473224149E+04  0.16986078374E+04  0.00000000000E+00 0. -1.
<mgrwt>
<rscale>  0 0.25738920E+04</rscale>
<asrwt>0</asrwt>
<pdfrwt beam="1">  1        1 0.29456636E+00 0.25738920E+04</pdfrwt>
<pdfrwt beam="2">  1       -1 0.13307938E+00 0.25738920E+04</pdfrwt>
<totfact> 0.14361549E+00</totfact>
</mgrwt>
</event>
<event>
 6    1  0.1885829E-005  0.6369405E+03  0.7818608E-02  0.9831598E-01
         -2   -1    0    0    0  501 -0.00000000000E+00  0.00000000000E+00  0.13522508686E+03  0.13522508686E+03  0.00000000000E+00 0.  1.
          2   -1    0    0  501    0  0.00000000000E+00 -0.00000000000E+00 -0.75003309230E+03  0.75003309230E+03  0.00000000000E+00 0. -1.
         23    2    1    2    0    0 -0.10353431526E+03  0.10185510849E+03  0.69740817314E+02  0.18547184870E+03  0.91881486150E+02 0.  0.
         11    1    3    3    0    0 -0.95910123884E+02  0.50067305141E+02  0.14147963463E+02  0.10911302295E+03  0.00000000000E+00 0.  1.
        -11    1    3    3    0    0 -0.76241913780E+01  0.51787803348E+02  0.55592853851E+02  0.76358825745E+02  0.00000000000E+00 0. -1.
         22    1    1    2    0    0  0.10353431526E+03 -0.10185510849E+03 -0.68454882276E+03  0.69978633046E+03  0.00000000000E+00 0. -1.
<mgrwt>
<rscale>  0 0.63694047E+03</rscale>
<asrwt>0</asrwt>
<pdfrwt beam="1">  1        2 0.11538970E+00 0.63694047E+03</pdfrwt>
<pdfrwt beam="2">  1       -2 0.20803860E-01 0.63694047E+03</pdfrwt>
<totfact> 0.75073506E+02</totfact>
</mgrwt>
</event>
<event>
 6    1  0.1885829E-005  0.1570471E+04  0.7818608E-02  0.8838897E-01
          2   -1    0    0  501    0  0.00000000000E+00  0.00000000000E+00  0.76820509162E+03  0.76820509162E+03  0.00000000000E+00 0. -1.
         -2   -1    0    0    0  501 -0.00000000000E+00 -0.00000000000E+00 -0.80264322484E+03  0.80264322484E+03  0.00000000000E+00 0.  1.
         23    2    1    2    0    0 -0.25156243029E+03 -0.17857271851E+03  0.70215143587E+03  0.77226452911E+03  0.90575890247E+02 0.  0.
         11    1    3    3    0    0 -0.54852688108E+02 -0.88812753576E+02  0.25658041884E+03  0.27700186628E+03  0.00000000000E+00 0.  1.
        -11    1    3    3    0    0 -0.19670974218E+03 -0.89759964936E+02  0.44557101703E+03  0.49526266283E+03  0.00000000000E+00 0. -1.
         22    1    1    2    0    0  0.25156243029E+03  0.17857271851E+03 -0.73658956909E+03  0.79858378736E+03  0.00000000000E+00 0.  1.
<mgrwt>
<rscale>  0 0.15704708E+04</rscale>
<asrwt>0</asrwt>
<pdfrwt beam="1">  1        2 0.11818540E+00 0.15704708E+04</pdfrwt>
<pdfrwt beam="2">  1       -2 0.12348357E+00 0.15704708E+04</pdfrwt>
<totfact> 0.17266667E+01</totfact>
</mgrwt>
</event>
<event>
 6    1  0.1885829E-005  0.2134612E+04  0.7818608E-02  0.8546148E-01
          2   -1    0    0  501    0  0.00000000000E+00  0.00000000000E+00  0.20016434498E+04  0.20016434498E+04  0.00000000000E+00 0. -1.
         -2   -1    0    0    0  501 -0.00000000000E+00 -0.00000000000E+00 -0.56910314155E+03  0.56910314155E+03  0.00000000000E+00 0.  1.
         23    2    1    2    0    0 -0.58924631308E+03  0.43819223839E+03 -0.21161334781E+03  0.77006202707E+03  0.94824370821E+02 0.  0.
         11    1    3    3    0    0 -0.23213934909E+03  0.15057780423E+03 -0.35893773682E+02  0.27901741077E+03  0.00000000000E+00 0.  1.
        -11    1    3    3    0    0 -0.35710696398E+03  0.28761443416E+03 -0.17571957413E+03  0.49104461630E+03  0.00000000000E+00 0. -1.
         22    1    1    2    0    0  0.58924631308E+03 -0.43819223839E+03  0.16441536561E+04  0.18006845643E+04  0.00000000000E+00 0. -1.
<mgrwt>
<rscale>  0 0.21346115E+04</rscale>
<asrwt>0</asrwt>
<pdfrwt beam="1">  1        2 0.30794514E+00 0.21346115E+04</pdfrwt>
<pdfrwt beam="2">  1       -2 0.87554330E-01 0.21346115E+04</pdfrwt>
<totfact> 0.68982105E+00</totfact>
</mgrwt>
</event>
<event>
 6    1  0.1885829E-005  0.1772784E+04  0.7818608E-02  0.8720908E-01
         -2   -1    0    0    0  501 -0.00000000000E+00  0.00000000000E+00  0.51293835646E+03  0.51293835646E+03  0.00000000000E+00 0.  1.
          2   -1    0    0  501    0  0.00000000000E+00 -0.00000000000E+00 -0.15317452000E+04  0.15317452000E+04  0.00000000000E+00 0. -1.
         23    2    1    2    0    0  0.73616935464E+03  0.48613690324E+03 -0.44603500603E+03  0.99285563078E+03  0.92415743074E+02 0.  0.
         11    1    3    3    0    0  0.58353099873E+03  0.41815320528E+03 -0.38759544836E+03  0.81583746001E+03  0.00000000000E+00 0. -1.
        -11    1    3    3    0    0  0.15263835590E+03  0.67983697956E+02 -0.58439557669E+02  0.17701817076E+03  0.00000000000E+00 0.  1.
         22    1    1    2    0    0 -0.73616935464E+03 -0.48613690324E+03 -0.57277183749E+03  0.10518279257E+04  0.00000000000E+00 0. -1.
<mgrwt>
<rscale>  0 0.17727841E+04</rscale>
<asrwt>0</asrwt>
<pdfrwt beam="1">  1        2 0.23565311E+00 0.17727841E+04</pdfrwt>
<pdfrwt beam="2">  1       -2 0.78913592E-01 0.17727841E+04</pdfrwt>
<totfact> 0.16427027E+01</totfact>
</mgrwt>
</event>
<event>
 6    1  0.1885829E-005  0.2575339E+04  0.7818608E-02  0.8376626E-01
         -2   -1    0    0    0  501 -0.00000000000E+00  0.00000000000E+00  0.14950524556E+04  0.14950524556E+04  0.00000000000E+00 0.  1.
          2   -1    0    0  501    0  0.00000000000E+00 -0.00000000000E+00 -0.11090533517E+04  0.11090533517E+04  0.00000000000E+00 0. -1.
         23    2    1    2    0    0 -0.48466504755E+03 -0.42680152981E+03  0.13178435383E+04  0.14703537161E+04  0.90380888440E+02 0.  0.
         13    1    3    3    0    0 -0.38164968264E+03 -0.32772105353E+03  0.11031471105E+04  0.12124319019E+04  0.00000000000E+00 0. -1.
        -13    1    3    3    0    0 -0.10301536492E+03 -0.99080476278E+02  0.21469642776E+03  0.25792181428E+03  0.00000000000E+00 0.  1.
         22    1    1    2    0    0  0.48466504755E+03  0.42680152981E+03 -0.93184443447E+03  0.11337520912E+04  0.00000000000E+00 0. -1.
<mgrwt>
<rscale>  0 0.25753392E+04</rscale>
<asrwt>0</asrwt>
<pdfrwt beam="1">  1        2 0.17062359E+00 0.25753392E+04</pdfrwt>
<pdfrwt beam="2">  1       -2 0.23000807E+00 0.25753392E+04</pdfrwt>
<totfact> 0.16295887E+00</totfact>
</mgrwt>
</event>
<event>
 6    1  0.1885829E-005  0.8994269E+03  0.7818608E-02  0.9426298E-01
         -2   -1    0    0    0  501 -0.00000000000E+00  0.00000000000E+00  0.84623953091E+03  0.84623953091E+03  0.00000000000E+00 0.  1.
          2   -1    0    0  501    0  0.00000000000E+00 -0.00000000000E+00 -0.23898927593E+03  0.23898927593E+03  0.00000000000E+00 0. -1.
         23    2    1    2    0    0  0.32763229866E+03 -0.28865108878E+03  0.41058511466E+03  0.60633471459E+03  0.91647561655E+02 0.  0.
         11    1    3    3    0    0  0.11617122011E+03 -0.48741624742E+02  0.10490983785E+03  0.16394380880E+03  0.00000000000E+00 0.  1.
        -11    1    3    3    0    0  0.21146107854E+03 -0.23990946404E+03  0.30567527680E+03  0.44239090579E+03  0.00000000000E+00 0. -1.
         22    1    1    2    0    0 -0.32763229866E+03  0.28865108878E+03  0.19666514033E+03  0.47889409226E+03  0.00000000000E+00 0. -1.
<mgrwt>
<rscale>  0 0.89942687E+03</rscale>
<asrwt>0</asrwt>
<pdfrwt beam="1">  1        2 0.36767581E-01 0.89942687E+03</pdfrwt>
<pdfrwt beam="2">  1       -2 0.13019070E+00 0.89942687E+03</pdfrwt>
<totfact> 0.61413492E+01</totfact>
</mgrwt>
</event>
<event>
 6    1  0.2429911E-005  0.2205748E+04  0.7818608E-02  0.8516040E-01
          2   -1    0    0  501    0  0.00000000000E+00  0.00000000000E+00  0.16716558135E+04  0.16716558135E+04  0.00000000000E+00 0. -1.
         -2   -1    0    0    0  501 -0.00000000000E+00 -0.00000000000E+00 -0.72762032637E+03  0.72762032637E+03  0.00000000000E+00 0.  1.
         23    2    1    2    0    0  0.11429073966E+03  0.10227553027E+04  0.47310328098E+02  0.10342828091E+04  0.91716299828E+02 0.  0.
         13    1    3    3    0    0 -0.80587985758E+01  0.28436916980E+03  0.26141704439E+01  0.28449534768E+03  0.00000000000E+00 0. -1.
        -13    1    3    3    0    0  0.12234953824E+03  0.73838613286E+03  0.44696157655E+02  0.74978746137E+03  0.00000000000E+00 0.  1.
         22    1    1    2    0    0 -0.11429073966E+03 -0.10227553027E+04  0.89672515902E+03  0.13649933308E+04  0.00000000000E+00 0. -1.
<mgrwt>
<rscale>  0 0.22057477E+04</rscale>
<asrwt>0</asrwt>
<pdfrwt beam="1">  1        2 0.25717782E+00 0.22057477E+04</pdfrwt>
<pdfrwt beam="2">  1       -2 0.11194159E+00 0.22057477E+04</pdfrwt>
<totfact> 0.58513283E+00</totfact>
</mgrwt>
</event>
<event>
 6    1  0.1885829E-005  0.1540975E+04  0.7818608E-02  0.8857653E-01
          2   -1    0    0  501    0  0.00000000000E+00  0.00000000000E+00  0.14903116684E+04  0.14903116684E+04  0.00000000000E+00 0. -1.
         -2   -1    0    0    0  501 -0.00000000000E+00 -0.00000000000E+00 -0.39833991527E+03  0.39833991527E+03  0.00000000000E+00 0.  1.
         23    2    1    2    0    0 -0.52088270208E+03 -0.27011578461E+03  0.11548155220E+04  0.12985408604E+04  0.91258697735E+02 0.  0.
         13    1    3    3    0    0 -0.32044160152E+03 -0.14626030103E+03  0.59980274587E+03  0.69558481122E+03  0.00000000000E+00 0. -1.
        -13    1    3    3    0    0 -0.20044110056E+03 -0.12385548358E+03  0.55501277613E+03  0.60295604920E+03  0.00000000000E+00 0.  1.
         22    1    1    2    0    0  0.52088270208E+03  0.27011578461E+03 -0.62843768857E+02  0.59011072325E+03  0.00000000000E+00 0.  1.
<mgrwt>
<rscale>  0 0.15409745E+04</rscale>
<asrwt>0</asrwt>
<pdfrwt beam="1">  1        2 0.22927871E+00 0.15409745E+04</pdfrwt>
<pdfrwt beam="2">  1       -2 0.61283065E-01 0.15409745E+04</pdfrwt>
<totfact> 0.30657795E+01</totfact>
</mgrwt>
</event>
<event>
 6    1  0.1885829E-005  0.1424706E+04  0.7818608E-02  0.8936127E-01
          2   -1    0    0  501    0  0.00000000000E+00  0.00000000000E+00  0.24128495123E+04  0.24128495123E+04  0.00000000000E+00 0. -1.
         -2   -1    0    0    0  501 -0.00000000000E+00 -0.00000000000E+00 -0.21031002790E+03  0.21031002790E+03  0.00000000000E+00 0.  1.
         23    2    1    2    0    0  0.47894676776E+03  0.34873187272E+03  0.38713168002E+03  0.71352360065E+03  0.90780315051E+02 0.  0.
         11    1    3    3    0    0  0.75740991168E+02  0.94219324389E+02  0.10034185340E+03  0.15710654466E+03  0.00000000000E+00 0. -1.
        -11    1    3    3    0    0  0.40320577659E+03  0.25451254834E+03  0.28678982662E+03  0.55641705598E+03  0.00000000000E+00 0.  1.
         22    1    1    2    0    0 -0.47894676776E+03 -0.34873187272E+03  0.18154078043E+04  0.19096359395E+04  0.00000000000E+00 0.  1.
<mgrwt>
<rscale>  0 0.14247055E+04</rscale>
<asrwt>0</asrwt>
<pdfrwt beam="1">  1        2 0.37120760E+00 0.14247055E+04</pdfrwt>
<pdfrwt beam="2">  1       -2 0.32355391E-01 0.14247055E+04</pdfrwt>
<totfact> 0.33877429E+01</totfact>
</mgrwt>
</event>
<event>
 6    1  0.1885829E-005  0.4448904E+03  0.7818608E-02  0.1029257E+00
          2   -1    0    0  501    0  0.00000000000E+00  0.00000000000E+00  0.16464878958E+03  0.16464878958E+03  0.00000000000E+00 0. -1.
         -2   -1    0    0    0  501 -0.00000000000E+00 -0.00000000000E+00 -0.30052982029E+03  0.30052982029E+03  0.00000000000E+00 0.  1.
         23    2    1    2    0    0 -0.80996630919E+02 -0.78733069775E+01  0.13526960365E+03  0.18207949349E+03  0.90733858586E+02 0.  0.
         11    1    3    3    0    0 -0.75164112778E+02 -0.41552741866E+02  0.81723228830E+02  0.11855361798E+03  0.00000000000E+00 0.  1.
        -11    1    3    3    0    0 -0.58325181411E+01  0.33679434889E+02  0.53546374822E+02  0.63525875507E+02  0.00000000000E+00 0. -1.
         22    1    1    2    0    0  0.80996630919E+02  0.78733069775E+01 -0.27115063436E+03  0.28309911638E+03  0.00000000000E+00 0.  1.
<mgrwt>
<rscale>  0 0.44489042E+03</rscale>
<asrwt>0</asrwt>
<pdfrwt beam="1">  1        2 0.25330583E-01 0.44489042E+03</pdfrwt>
<pdfrwt beam="2">  1       -2 0.46235356E-01 0.44489042E+03</pdfrwt>
<totfact> 0.95858921E+02</totfact>
</mgrwt>
</event>
<event>
 6    1  0.1885829E-005  0.2624945E+04  0.7818608E-02  0.8359777E-01
          1   -1    0    0  501    0  0.00000000000E+00  0.00000000000E+00  0.59820374696E+03  0.59820374696E+03  0.00000000000E+00 0. -1.
         -1   -1    0    0    0  501 -0.00000000000E+00 -0.00000000000E+00 -0.28795949318E+04  0.28795949318E+04  0.00000000000E+00 0.  1.
         23    2    1    2    0    0  0.92951315224E+03  0.31181077399E+03 -0.22949571790E+04  0.24972862132E+04  0.91593220512E+02 0.  0.
         11    1    3    3    0    0  0.28423902198E+03  0.74181106290E+02 -0.59654738580E+03  0.66495371391E+03  0.00000000000E+00 0.  1.
        -11    1    3    3    0    0  0.64527413026E+03  0.23762966770E+03 -0.16984097932E+04  0.18323324993E+04  0.00000000000E+00 0. -1.
         22    1    1    2    0    0 -0.92951315224E+03 -0.31181077399E+03  0.13565994179E+02  0.98051246558E+03  0.00000000000E+00 0. -1.
<mgrwt>
<rscale>  0 0.26249453E+04</rscale>
<asrwt>0</asrwt>
<pdfrwt beam="1">  1        1 0.92031347E-01 0.26249453E+04</pdfrwt>
<pdfrwt beam="2">  1       -1 0.44301460E+00 0.26249453E+04</pdfrwt>
<totfact> 0.10920664E-01</totfact>
</mgrwt>
</event>
<event>
 6    1  0.1885829E-005  0.2111660E+04  0.7818608E-02  0.8556125E-01
          2   -1    0    0  501    0  0.00000000000E+00  0.00000000000E+00  0.13487795495E+04  0.13487795495E+04  0.00000000000E+00 0. -1.
         -2   -1    0    0    0  501 -0.00000000000E+00 -0.00000000000E+00 -0.82650760520E+03  0.82650760520E+03  0.00000000000E+00 0.  1.
         23    2    1    2    0    0 -0.36645083319E+03  0.74950535043E+03  0.92469544775E+03  0.12490101121E+04  0.94446310930E+02 0.  0.
         13    1    3    3    0    0 -0.28234572651E+03  0.51614311303E+03  0.59885697752E+03  0.83949538530E+03  0.00000000000E+00 0. -1.
        -13    1    3    3    0    0 -0.84105106679E+02  0.23336223739E+03  0.32583847023E+03  0.40951472683E+03  0.00000000000E+00 0.  1.
         22    1    1    2    0    0  0.36645083319E+03 -0.74950535043E+03 -0.40242350345E+03  0.92627704257E+03  0.00000000000E+00 0.  1.
<mgrwt>
<rscale>  0 0.21116596E+04</rscale>
<asrwt>0</asrwt>
<pdfrwt beam="1">  1        2 0.20750455E+00 0.21116596E+04</pdfrwt>
<pdfrwt beam="2">  1       -2 0.12715502E+00 0.21116596E+04</pdfrwt>
<totfact> 0.65499678E+00</totfact>
</mgrwt>
</event>
<event>
 6    1  0.1885829E-005  0.3512825E+04  0.7818608E-02  0.8110757E-01
          2   -1    0    0  501    0  0.00000000000E+00  0.00000000000E+00  0.36814092017E+04  0.36814092017E+04  0.00000000000E+00 0. -1.
         -2   -1    0    0    0  501 -0.00000000000E+00 -0.00000000000E+00 -0.83799040639E+03  0.83799040639E+03  0.00000000000E+00 0.  1.
         23    2    1    2    0    0  0.50337107991E+03  0.16284744502E+04  0.88361440784E+03  0.19220654524E+04  0.90827873525E+02 0.  0.
         13    1    3    3    0    0  0.12477123362E+03  0.31574755744E+03  0.14772550402E+03  0.37025289372E+03  0.00000000000E+00 0. -1.
        -13    1    3    3    0    0  0.37859984629E+03  0.13127268928E+04  0.73588890383E+03  0.15518125587E+04  0.00000000000E+00 0.  1.
         22    1    1    2    0    0 -0.50337107991E+03 -0.16284744502E+04  0.19598043874E+04  0.25973341556E+04  0.00000000000E+00 0. -1.
<mgrwt>
<rscale>  0 0.35128254E+04</rscale>
<asrwt>0</asrwt>
<pdfrwt beam="1">  1        2 0.56637064E+00 0.35128254E+04</pdfrwt>
<pdfrwt beam="2">  1       -2 0.12892160E+00 0.35128254E+04</pdfrwt>
<totfact> 0.21890118E-01</totfact>
</mgrwt>
</event>
<event>
 6    1  0.1885829E-005  0.1779344E+04  0.7818608E-02  0.8717362E-01
         -2   -1    0    0    0  501 -0.00000000000E+00  0.00000000000E+00  0.27734260259E+03  0.27734260259E+03  0.00000000000E+00 0.  1.
          2   -1    0    0  501    0  0.00000000000E+00 -0.00000000000E+00 -0.28539308905E+04  0.28539308905E+04  0.00000000000E+00 0. -1.
         23    2    1    2    0    0 -0.28384389101E+03  0.18984237982E+03 -0.27330577738E+04  0.27556537603E+04  0.86112530081E+02 0.  0.
         11    1    3    3    0    0 -0.13927172659E+03  0.45994652586E+02 -0.12728555384E+04  0.12812780118E+04  0.00000000000E+00 0. -1.
        -11    1    3    3    0    0 -0.14457216442E+03  0.14384772723E+03 -0.14602022354E+04  0.14743757485E+04  0.00000000000E+00 0.  1.
         22    1    1    2    0    0  0.28384389101E+03 -0.18984237982E+03  0.15646948594E+03  0.37561973280E+03  0.00000000000E+00 0.  1.
<mgrwt>
<rscale>  0 0.17793444E+04</rscale>
<asrwt>0</asrwt>
<pdfrwt beam="1">  1        2 0.43906632E+00 0.17793444E+04</pdfrwt>
<pdfrwt beam="2">  1       -2 0.42668090E-01 0.17793444E+04</pdfrwt>
<totfact> 0.10590368E+01</totfact>
</mgrwt>
</event>
<event>
 6    1  0.1885829E-005  0.2647644E+04  0.7818608E-02  0.8352195E-01
         -2   -1    0    0    0  501 -0.00000000000E+00  0.00000000000E+00  0.97359205557E+03  0.97359205557E+03  0.00000000000E+00 0.  1.
          2   -1    0    0  501    0  0.00000000000E+00 -0.00000000000E+00 -0.18000403553E+04  0.18000403553E+04  0.00000000000E+00 0. -1.
         23    2    1    2    0    0 -0.69593494256E+02 -0.13088510758E+04 -0.23118067048E+03  0.13340915315E+04  0.91767743753E+02 0.  0.
         11    1    3    3    0    0  0.19200133894E+02 -0.46477416849E+03 -0.83329187679E+02  0.47257531289E+03  0.00000000000E+00 0.  1.
        -11    1    3    3    0    0 -0.88793628150E+02 -0.84407690733E+03 -0.14785148280E+03  0.86151621856E+03  0.00000000000E+00 0. -1.
         22    1    1    2    0    0  0.69593494256E+02  0.13088510758E+04 -0.59526762926E+03  0.14395408794E+04  0.00000000000E+00 0. -1.
<mgrwt>
<rscale>  0 0.26476442E+04</rscale>
<asrwt>0</asrwt>
<pdfrwt beam="1">  1        2 0.27692929E+00 0.26476442E+04</pdfrwt>
<pdfrwt beam="2">  1       -2 0.14978339E+00 0.26476442E+04</pdfrwt>
<totfact> 0.22868651E+00</totfact>
</mgrwt>
</event>
<event>
 6    1  0.1885829E-005  0.3051051E+04  0.7818608E-02  0.8229301E-01
         -2   -1    0    0    0  501 -0.00000000000E+00  0.00000000000E+00  0.15012395715E+04  0.15012395715E+04  0.00000000000E+00 0.  1.
          2   -1    0    0  501    0  0.00000000000E+00 -0.00000000000E+00 -0.15502047316E+04  0.15502047316E+04  0.00000000000E+00 0. -1.
         23    2    1    2    0    0 -0.10252984376E+03 -0.67441219928E+03  0.13386796822E+04  0.15051899930E+04  0.90495525372E+02 0.  0.
         13    1    3    3    0    0 -0.11112649122E+03 -0.45517742376E+03  0.92802083380E+03  0.10395952348E+04  0.00000000000E+00 0. -1.
        -13    1    3    3    0    0  0.85966474596E+01 -0.21923477552E+03  0.41065884837E+03  0.46559475823E+03  0.00000000000E+00 0.  1.
         22    1    1    2    0    0  0.10252984376E+03  0.67441219928E+03 -0.13876448423E+04  0.15462543101E+04  0.00000000000E+00 0. -1.
<mgrwt>
<rscale>  0 0.30510514E+04</rscale>
<asrwt>0</asrwt>
<pdfrwt beam="1">  1        2 0.23849304E+00 0.30510514E+04</pdfrwt>
<pdfrwt beam="2">  1       -2 0.23095993E+00 0.30510514E+04</pdfrwt>
<totfact> 0.85492752E-01</totfact>
</mgrwt>
</event>
<event>
 6    1  0.1885829E-005  0.1826938E+04  0.7818608E-02  0.8692104E-01
         -4   -1    0    0    0  501 -0.00000000000E+00  0.00000000000E+00  0.80448928248E+03  0.80448928248E+03  0.00000000000E+00 0.  1.
          4   -1    0    0  501    0  0.00000000000E+00 -0.00000000000E+00 -0.10372112810E+04  0.10372112810E+04  0.00000000000E+00 0. -1.
         23    2    1    2    0    0 -0.46238482389E+03  0.27662523765E+03  0.62400475247E+03  0.82962251644E+03  0.92576137401E+02 0.  0.
         13    1    3    3    0    0 -0.40962441956E+03  0.20785338686E+03  0.53964038761E+03  0.70866560765E+03  0.00000000000E+00 0. -1.
        -13    1    3    3    0    0 -0.52760404327E+02  0.68771850787E+02  0.84364364857E+02  0.12095690879E+03  0.00000000000E+00 0.  1.
         22    1    1    2    0    0  0.46238482389E+03 -0.27662523765E+03 -0.85672675102E+03  0.10120780471E+04  0.00000000000E+00 0. -1.
<mgrwt>
<rscale>  0 0.18269377E+04</rscale>
<asrwt>0</asrwt>
<pdfrwt beam="1">  1        4 0.15957097E+00 0.18269377E+04</pdfrwt>
<pdfrwt beam="2">  1       -4 0.12376758E+00 0.18269377E+04</pdfrwt>
<totfact> 0.23274719E-01</totfact>
</mgrwt>
</event>
<event>
 6    1  0.1885829E-005  0.4029899E+04  0.7818608E-02  0.7998542E-01
          1   -1    0    0  501    0  0.00000000000E+00  0.00000000000E+00  0.37681968297E+04  0.37681968297E+04  0.00000000000E+00 0. -1.
         -1   -1    0    0    0  501 -0.00000000000E+00 -0.00000000000E+00 -0.10774442747E+04  0.10774442747E+04  0.00000000000E+00 0.  1.
         23    2    1    2    0    0 -0.16020583230E+04  0.34267586940E+03 -0.62331579595E+02  0.16419729140E+04  0.90400237101E+02 0.  0.
         11    1    3    3    0    0 -0.50526614051E+03  0.14313801427E+03 -0.44546301072E+02  0.52703580221E+03  0.00000000000E+00 0.  1.
        -11    1    3    3    0    0 -0.10967921825E+04  0.19953785513E+03 -0.17785278522E+02  0.11149371118E+04  0.00000000000E+00 0. -1.
         22    1    1    2    0    0  0.16020583230E+04 -0.34267586940E+03  0.27530841346E+04  0.32036681903E+04  0.00000000000E+00 0. -1.
<mgrwt>
<rscale>  0 0.40298993E+04</rscale>
<asrwt>0</asrwt>
<pdfrwt beam="1">  1        1 0.57972258E+00 0.40298993E+04</pdfrwt>
<pdfrwt beam="2">  1       -1 0.16576066E+00 0.40298993E+04</pdfrwt>
<totfact> 0.31216009E-02</totfact>
</mgrwt>
</event>
<event>
 6    1  0.1885829E-005  0.1493272E+04  0.7818608E-02  0.8888939E-01
         -4   -1    0    0    0  501 -0.00000000000E+00  0.00000000000E+00  0.91435698407E+03  0.91435698407E+03  0.00000000000E+00 0. -1.
          4   -1    0    0  501    0  0.00000000000E+00 -0.00000000000E+00 -0.60968052189E+03  0.60968052189E+03  0.00000000000E+00 0.  1.
         23    2    1    2    0    0 -0.69733450847E+03  0.21431111358E+03  0.30118616425E+03  0.79450556541E+03  0.91221257563E+02 0.  0.
         13    1    3    3    0    0 -0.37921393361E+03  0.16381964136E+03  0.17183544575E+03  0.44740083008E+03  0.00000000000E+00 0.  1.
        -13    1    3    3    0    0 -0.31812057485E+03  0.50491472220E+02  0.12935071851E+03  0.34710473533E+03  0.00000000000E+00 0. -1.
         22    1    1    2    0    0  0.69733450847E+03 -0.21431111358E+03  0.34902979271E+01  0.72953194055E+03  0.00000000000E+00 0. -1.
<mgrwt>
<rscale>  0 0.14932724E+04</rscale>
<asrwt>0</asrwt>
<pdfrwt beam="1">  1        4 0.93797003E-01 0.14932724E+04</pdfrwt>
<pdfrwt beam="2">  1       -4 0.14067031E+00 0.14932724E+04</pdfrwt>
<totfact> 0.65543555E-01</totfact>
</mgrwt>
</event>
<event>
 6    1  0.1885829E-005  0.2634966E+04  0.7818608E-02  0.8356420E-01
         -2   -1    0    0    0  501 -0.00000000000E+00  0.00000000000E+00  0.80188241648E+03  0.80188241648E+03  0.00000000000E+00 0.  1.
          2   -1    0    0  501    0  0.00000000000E+00 -0.00000000000E+00 -0.21646084095E+04  0.21646084095E+04  0.00000000000E+00 0. -1.
         23    2    1    2    0    0  0.10264974490E+04 -0.70582231246E+03 -0.11591022312E+04  0.17042132076E+04  0.94564924883E+02 0.  0.
         11    1    3    3    0    0  0.59915744349E+03 -0.41620618502E+03 -0.61484242813E+03  0.95406941151E+03  0.00000000000E+00 0.  1.
        -11    1    3    3    0    0  0.42734000550E+03 -0.28961612745E+03 -0.54425980310E+03  0.75014379611E+03  0.00000000000E+00 0. -1.
         22    1    1    2    0    0 -0.10264974490E+04  0.70582231246E+03 -0.20362376184E+03  0.12622776184E+04  0.00000000000E+00 0.  1.
<mgrwt>
<rscale>  0 0.26349660E+04</rscale>
<asrwt>0</asrwt>
<pdfrwt beam="1">  1        2 0.33301667E+00 0.26349660E+04</pdfrwt>
<pdfrwt beam="2">  1       -2 0.12336653E+00 0.26349660E+04</pdfrwt>
<totfact> 0.23627353E+00</totfact>
</mgrwt>
</event>
<event>
 6    1  0.1885829E-005  0.2336914E+04  0.7818608E-02  0.8463507E-01
          1   -1    0    0  501    0  0.00000000000E+00  0.00000000000E+00  0.21444643651E+04  0.21444643651E+04  0.00000000000E+00 0. -1.
         -1   -1    0    0    0  501 -0.00000000000E+00 -0.00000000000E+00 -0.63665880582E+03  0.63665880582E+03  0.00000000000E+00 0.  1.
         23    2    1    2    0    0  0.58057856989E+03  0.68044545603E+03 -0.13704590585E+03  0.90879471768E+03  0.83956918351E+02 0.  0.
         13    1    3    3    0    0  0.35313336051E+03  0.34985920967E+03 -0.79798731502E+02  0.50346049938E+03  0.00000000000E+00 0.  1.
        -13    1    3    3    0    0  0.22744520938E+03  0.33058624636E+03 -0.57247174344E+02  0.40533421830E+03  0.00000000000E+00 0. -1.
         22    1    1    2    0    0 -0.58057856989E+03 -0.68044545603E+03  0.16448514651E+04  0.18723284532E+04  0.00000000000E+00 0. -1.
<mgrwt>
<rscale>  0 0.23369143E+04</rscale>
<asrwt>0</asrwt>
<pdfrwt beam="1">  1        1 0.32991759E+00 0.23369143E+04</pdfrwt>
<pdfrwt beam="2">  1       -1 0.97947509E-01 0.23369143E+04</pdfrwt>
<totfact> 0.21396717E+00</totfact>
</mgrwt>
</event>
<event>
 6    1  0.1885829E-005  0.1098282E+04  0.7818608E-02  0.9206868E-01
         -2   -1    0    0    0  501 -0.00000000000E+00  0.00000000000E+00  0.25400771826E+03  0.25400771826E+03  0.00000000000E+00 0.  1.
          2   -1    0    0  501    0  0.00000000000E+00 -0.00000000000E+00 -0.11871905911E+04  0.11871905911E+04  0.00000000000E+00 0. -1.
         23    2    1    2    0    0  0.16332177088E+03  0.51912301514E+03 -0.42211281413E+03  0.69463598067E+03  0.90427938710E+02 0.  0.
         13    1    3    3    0    0  0.15314933618E+03  0.37079872879E+03 -0.33237863591E+03  0.52098174061E+03  0.00000000000E+00 0. -1.
        -13    1    3    3    0    0  0.10172434707E+02  0.14832428635E+03 -0.89734178215E+02  0.17365424006E+03  0.00000000000E+00 0.  1.
         22    1    1    2    0    0 -0.16332177088E+03 -0.51912301514E+03 -0.51107005869E+03  0.74656232867E+03  0.00000000000E+00 0.  1.
<mgrwt>
<rscale>  0 0.10982815E+04</rscale>
<asrwt>0</asrwt>
<pdfrwt beam="1">  1        2 0.18264471E+00 0.10982815E+04</pdfrwt>
<pdfrwt beam="2">  1       -2 0.39078111E-01 0.10982815E+04</pdfrwt>
<totfact> 0.11840264E+02</totfact>
</mgrwt>
</event>
<event>
 6    1  0.1885829E-005  0.1958140E+04  0.7818608E-02  0.8626445E-01
          2   -1    0    0  501    0  0.00000000000E+00  0.00000000000E+00  0.20167375563E+04  0.20167375563E+04  0.00000000000E+00 0. -1.
         -2   -1    0    0    0  501 -0.00000000000E+00 -0.00000000000E+00 -0.47531131173E+03  0.47531131173E+03  0.00000000000E+00 0.  1.
         23    2    1    2    0    0  0.60612600803E+03  0.54074834377E+03  0.14631501132E+04  0.16760067971E+04  0.91613433522E+02 0.  0.
         13    1    3    3    0    0  0.28115101958E+03  0.21541863194E+03  0.71317180395E+03  0.79628205101E+03  0.00000000000E+00 0.  1.
        -13    1    3    3    0    0  0.32497498845E+03  0.32532971183E+03  0.74997830924E+03  0.87972474607E+03  0.00000000000E+00 0. -1.
         22    1    1    2    0    0 -0.60612600803E+03 -0.54074834377E+03  0.78276131430E+02  0.81604207101E+03  0.00000000000E+00 0.  1.
<mgrwt>
<rscale>  0 0.19581401E+04</rscale>
<asrwt>0</asrwt>
<pdfrwt beam="1">  1        2 0.31026731E+00 0.19581401E+04</pdfrwt>
<pdfrwt beam="2">  1       -2 0.73124819E-01 0.19581401E+04</pdfrwt>
<totfact> 0.10294582E+01</totfact>
</mgrwt>
</event>
<event>
 6    1  0.1885829E-005  0.3188271E+04  0.7818608E-02  0.8191922E-01
         -2   -1    0    0    0  501 -0.00000000000E+00  0.00000000000E+00  0.12390427591E+04  0.12390427591E+04  0.00000000000E+00 0.  1.
          2   -1    0    0  501    0  0.00000000000E+00 -0.00000000000E+00 -0.20509934885E+04  0.20509934885E+04  0.00000000000E+00 0. -1.
         23    2    1    2    0    0  0.63503103824E+03  0.12760270032E+04 -0.11400488423E+04  0.18274502829E+04  0.91399351706E+02 0.  0.
         13    1    3    3    0    0  0.26021975991E+03  0.42546381640E+03 -0.39336018257E+03  0.63518974783E+03  0.00000000000E+00 0.  1.
        -13    1    3    3    0    0  0.37481127833E+03  0.85056318675E+03 -0.74668865972E+03  0.11922605351E+04  0.00000000000E+00 0. -1.
         22    1    1    2    0    0 -0.63503103824E+03 -0.12760270032E+04  0.32809811290E+03  0.14625859646E+04  0.00000000000E+00 0.  1.
<mgrwt>
<rscale>  0 0.31882714E+04</rscale>
<asrwt>0</asrwt>
<pdfrwt beam="1">  1        2 0.31553746E+00 0.31882714E+04</pdfrwt>
<pdfrwt beam="2">  1       -2 0.19062196E+00 0.31882714E+04</pdfrwt>
<totfact> 0.80982910E-01</totfact>
</mgrwt>
</event>
<event>
 6    1  0.1885829E-005  0.5073916E+04  0.7818608E-02  0.7817205E-01
         -1   -1    0    0    0  501 -0.00000000000E+00  0.00000000000E+00  0.43624245917E+04  0.43624245917E+04  0.00000000000E+00 0.  1.
          1   -1    0    0  501    0  0.00000000000E+00 -0.00000000000E+00 -0.14753621881E+04  0.14753621881E+04  0.00000000000E+00 0. -1.
         23    2    1    2    0    0 -0.15790116790E+04  0.84275853439E+03  0.35113325581E+04  0.39422042689E+04  0.89433405837E+02 0.  0.
         11    1    3    3    0    0 -0.36439902511E+03  0.19084602037E+03  0.72682107680E+03  0.83515132202E+03  0.00000000000E+00 0. -1.
        -11    1    3    3    0    0 -0.12146126539E+04  0.65191251402E+03  0.27845114813E+04  0.31070529469E+04  0.00000000000E+00 0.  1.
         22    1    1    2    0    0  0.15790116790E+04 -0.84275853439E+03 -0.62427015459E+03  0.18955825109E+04  0.00000000000E+00 0. -1.
<mgrwt>
<rscale>  0 0.50739162E+04</rscale>
<asrwt>0</asrwt>
<pdfrwt beam="1">  1        1 0.22697880E+00 0.50739162E+04</pdfrwt>
<pdfrwt beam="2">  1       -1 0.67114224E+00 0.50739162E+04</pdfrwt>
<totfact> 0.12342531E-03</totfact>
</mgrwt>
</event>
<event>
 6    1  0.1885829E-005  0.4225803E+04  0.7818608E-02  0.7960482E-01
         -2   -1    0    0    0  501 -0.00000000000E+00  0.00000000000E+00  0.15485266997E+04  0.15485266997E+04  0.00000000000E+00 0.  1.
          2   -1    0    0  501    0  0.00000000000E+00 -0.00000000000E+00 -0.28829677991E+04  0.28829677991E+04  0.00000000000E+00 0. -1.
         23    2    1    2    0    0  0.16531578431E+04 -0.67295014231E+03  0.51719068899E+03  0.18596599342E+04  0.71106356342E+02 0.  0.
         13    1    3    3    0    0  0.32452282748E+03 -0.16114028665E+03  0.11502401784E+03  0.38014705341E+03  0.00000000000E+00 0.  1.
        -13    1    3    3    0    0  0.13286350156E+04 -0.51180985566E+03  0.40216667115E+03  0.14795128808E+04  0.00000000000E+00 0. -1.
         22    1    1    2    0    0 -0.16531578431E+04  0.67295014231E+03 -0.18516317884E+04  0.25718345646E+04  0.00000000000E+00 0. -1.
<mgrwt>
<rscale>  0 0.42258029E+04</rscale>
<asrwt>0</asrwt>
<pdfrwt beam="1">  1        2 0.44353351E+00 0.42258029E+04</pdfrwt>
<pdfrwt beam="2">  1       -2 0.23823488E+00 0.42258029E+04</pdfrwt>
<totfact> 0.12107047E-01</totfact>
</mgrwt>
</event>
<event>
 6    1  0.1885829E-005  0.4892243E+04  0.7818608E-02  0.7845348E-01
         -2   -1    0    0    0  501 -0.00000000000E+00  0.00000000000E+00  0.21811333935E+04  0.21811333935E+04  0.00000000000E+00 0.  1.
          2   -1    0    0  501    0  0.00000000000E+00 -0.00000000000E+00 -0.27433028070E+04  0.27433028070E+04  0.00000000000E+00 0. -1.
         23    2    1    2    0    0 -0.97511082424E+03  0.13973513449E+04 -0.20465385691E+04  0.26646168072E+04  0.91818918077E+02 0.  0.
         13    1    3    3    0    0 -0.96365058247E+02  0.96755376583E+02 -0.17588275674E+03  0.22267144286E+03  0.00000000000E+00 0. -1.
        -13    1    3    3    0    0 -0.87874576599E+03  0.13005959683E+04 -0.18706558124E+04  0.24419453643E+04  0.00000000000E+00 0.  1.
         22    1    1    2    0    0  0.97511082424E+03 -0.13973513449E+04  0.14843691555E+04  0.22598193933E+04  0.00000000000E+00 0.  1.
<mgrwt>
<rscale>  0 0.48922426E+04</rscale>
<asrwt>0</asrwt>
<pdfrwt beam="1">  1        2 0.42204658E+00 0.48922426E+04</pdfrwt>
<pdfrwt beam="2">  1       -2 0.33555898E+00 0.48922426E+04</pdfrwt>
<totfact> 0.35206915E-02</totfact>
</mgrwt>
</event>
<event>
 6    1  0.1885829E-005  0.1886989E+04  0.7818608E-02  0.8661360E-01
          2   -1    0    0  501    0  0.00000000000E+00  0.00000000000E+00  0.42923100917E+04  0.42923100917E+04  0.00000000000E+00 0. -1.
         -2   -1    0    0    0  501 -0.00000000000E+00 -0.00000000000E+00 -0.20738998348E+03  0.20738998348E+03  0.00000000000E+00 0.  1.
         23    2    1    2    0    0  0.55514296773E+03  0.32398109033E+03  0.40748437455E+03  0.76651362969E+03  0.91390193651E+02 0.  0.
         13    1    3    3    0    0  0.39049534577E+03  0.24993241921E+03  0.24888270180E+03  0.52620854089E+03  0.00000000000E+00 0. -1.
        -13    1    3    3    0    0  0.16464762195E+03  0.74048671120E+02  0.15860167275E+03  0.24030508881E+03  0.00000000000E+00 0.  1.
         22    1    1    2    0    0 -0.55514296773E+03 -0.32398109033E+03  0.36774357337E+04  0.37331864455E+04  0.00000000000E+00 0. -1.
<mgrwt>
<rscale>  0 0.18869893E+04</rscale>
<asrwt>0</asrwt>
<pdfrwt beam="1">  1        2 0.66035533E+00 0.18869893E+04</pdfrwt>
<pdfrwt beam="2">  1       -2 0.31906155E-01 0.18869893E+04</pdfrwt>
<totfact> 0.16782342E+00</totfact>
</mgrwt>
</event>
<event>
 6    1  0.1929381E-005  0.3661793E+04  0.7818608E-02  0.8076482E-01
         -2   -1    0    0    0  501 -0.00000000000E+00  0.00000000000E+00  0.15499199630E+04  0.15499199630E+04  0.00000000000E+00 0.  1.
          2   -1    0    0  501    0  0.00000000000E+00 -0.00000000000E+00 -0.21628099702E+04  0.21628099702E+04  0.00000000000E+00 0. -1.
         23    2    1    2    0    0 -0.19502285619E+02 -0.14673441657E+04  0.80151633311E+03  0.16745875105E+04  0.91299826204E+02 0.  0.
         13    1    3    3    0    0 -0.44326435729E+02 -0.62855266984E+03  0.31267237154E+03  0.70342540727E+03  0.00000000000E+00 0.  1.
        -13    1    3    3    0    0  0.24824150111E+02 -0.83879149587E+03  0.48884396156E+03  0.97116210322E+03  0.00000000000E+00 0. -1.
         22    1    1    2    0    0  0.19502285619E+02  0.14673441657E+04 -0.14144063404E+04  0.20381424227E+04  0.00000000000E+00 0.  1.
<mgrwt>
<rscale>  0 0.36617932E+04</rscale>
<asrwt>0</asrwt>
<pdfrwt beam="1">  1        2 0.33274000E+00 0.36617932E+04</pdfrwt>
<pdfrwt beam="2">  1       -2 0.23844923E+00 0.36617932E+04</pdfrwt>
<totfact> 0.33279560E-01</totfact>
</mgrwt>
</event>
<event>
 6    1  0.1885829E-005  0.6543884E+03  0.7818608E-02  0.9798579E-01
         -2   -1    0    0    0  501 -0.00000000000E+00  0.00000000000E+00  0.51679246693E+02  0.51679246693E+02  0.00000000000E+00 0. -1.
          2   -1    0    0  501    0  0.00000000000E+00 -0.00000000000E+00 -0.20715482661E+04  0.20715482661E+04  0.00000000000E+00 0.  1.
         23    2    1    2    0    0 -0.27202720266E+03  0.16777487972E+03 -0.11117704731E+04  0.11605280898E+04  0.92976626494E+02 0.  0.
         11    1    3    3    0    0 -0.16294814781E+03  0.97231206141E+02 -0.81102274239E+03  0.83292490358E+03  0.00000000000E+00 0. -1.
        -11    1    3    3    0    0 -0.10907905485E+03  0.70543673579E+02 -0.30074773073E+03  0.32760318623E+03  0.00000000000E+00 0.  1.
         22    1    1    2    0    0  0.27202720266E+03 -0.16777487972E+03 -0.90809854627E+03  0.96269942298E+03  0.00000000000E+00 0. -1.
<mgrwt>
<rscale>  0 0.65438843E+03</rscale>
<asrwt>0</asrwt>
<pdfrwt beam="1">  1        2 0.31869976E+00 0.65438843E+03</pdfrwt>
<pdfrwt beam="2">  1       -2 0.79506528E-02 0.65438843E+03</pdfrwt>
<totfact> 0.62526885E+02</totfact>
</mgrwt>
</event>
<event>
 6    1  0.1885829E-005  0.5118478E+03  0.7818608E-02  0.1010732E+00
          2   -1    0    0  501    0  0.00000000000E+00  0.00000000000E+00  0.11153626049E+04  0.11153626049E+04  0.00000000000E+00 0. -1.
         -2   -1    0    0    0  501 -0.00000000000E+00 -0.00000000000E+00 -0.58722643936E+02  0.58722643936E+02  0.00000000000E+00 0.  1.
         23    2    1    2    0    0 -0.13957788547E+02 -0.19590110310E+02  0.11106937978E+04  0.11149209898E+04  0.93965465000E+02 0.  0.
         11    1    3    3    0    0 -0.31294142405E+02 -0.35037970644E+02  0.28082166428E+03  0.28472405916E+03  0.00000000000E+00 0. -1.
        -11    1    3    3    0    0  0.17336353858E+02  0.15447860334E+02  0.82987213354E+03  0.83019693060E+03  0.00000000000E+00 0.  1.
         22    1    1    2    0    0  0.13957788547E+02  0.19590110310E+02 -0.54053836811E+02  0.59164259118E+02  0.00000000000E+00 0.  1.
<mgrwt>
<rscale>  0 0.51184779E+03</rscale>
<asrwt>0</asrwt>
<pdfrwt beam="1">  1        2 0.17159423E+00 0.51184779E+03</pdfrwt>
<pdfrwt beam="2">  1       -2 0.90342538E-02 0.51184779E+03</pdfrwt>
<totfact> 0.17410952E+03</totfact>
</mgrwt>
</event>
<event>
 6    1  0.1885829E-005  0.3208929E+04  0.7818608E-02  0.8186463E-01
          2   -1    0    0  501    0  0.00000000000E+00  0.00000000000E+00  0.31098752208E+04  0.31098752208E+04  0.00000000000E+00 0. -1.
         -2   -1    0    0    0  501 -0.00000000000E+00 -0.00000000000E+00 -0.82778450213E+03  0.82778450213E+03  0.00000000000E+00 0.  1.
         23    2    1    2    0    0  0.71016681177E+03 -0.13346918438E+04  0.17964810871E+04  0.23497189391E+04  0.89975430233E+02 0.  0.
         11    1    3    3    0    0  0.15671129513E+03 -0.31547657885E+03  0.36306335885E+03  0.50586451186E+03  0.00000000000E+00 0. -1.
        -11    1    3    3    0    0  0.55345551665E+03 -0.10192152650E+04  0.14334177282E+04  0.18438544273E+04  0.00000000000E+00 0.  1.
         22    1    1    2    0    0 -0.71016681177E+03  0.13346918438E+04  0.48560963158E+03  0.15879407838E+04  0.00000000000E+00 0.  1.
<mgrwt>
<rscale>  0 0.32089291E+04</rscale>
<asrwt>0</asrwt>
<pdfrwt beam="1">  1        2 0.47844233E+00 0.32089291E+04</pdfrwt>
<pdfrwt beam="2">  1       -2 0.12735146E+00 0.32089291E+04</pdfrwt>
<totfact> 0.57045540E-01</totfact>
</mgrwt>
</event>
<event>
 6    1  0.1885829E-005  0.1505596E+04  0.7818608E-02  0.8880740E-01
         -2   -1    0    0    0  501 -0.00000000000E+00  0.00000000000E+00  0.78032285985E+03  0.78032285985E+03  0.00000000000E+00 0.  1.
          2   -1    0    0  501    0  0.00000000000E+00 -0.00000000000E+00 -0.72624359734E+03  0.72624359734E+03  0.00000000000E+00 0. -1.
         23    2    1    2    0    0 -0.13121314152E+03  0.10669234058E+03 -0.70383778311E+03  0.73001099099E+03  0.94489565476E+02 0.  0.
         11    1    3    3    0    0 -0.11310050829E+03  0.33778255593E+02 -0.45657874788E+03  0.47158970360E+03  0.00000000000E+00 0.  1.
        -11    1    3    3    0    0 -0.18112633230E+02  0.72914084989E+02 -0.24725903523E+03  0.25842128738E+03  0.00000000000E+00 0. -1.
         22    1    1    2    0    0  0.13121314152E+03 -0.10669234058E+03  0.75791704562E+03  0.77655546620E+03  0.00000000000E+00 0.  1.
<mgrwt>
<rscale>  0 0.15055955E+04</rscale>
<asrwt>0</asrwt>
<pdfrwt beam="1">  1        2 0.11172978E+00 0.15055955E+04</pdfrwt>
<pdfrwt beam="2">  1       -2 0.12004967E+00 0.15055955E+04</pdfrwt>
<totfact> 0.20025167E+01</totfact>
</mgrwt>
</event>
<event>
 6    1  0.1885829E-005  0.2981456E+04  0.7818608E-02  0.8249046E-01
         -2   -1    0    0    0  501 -0.00000000000E+00  0.00000000000E+00  0.74015388921E+03  0.74015388921E+03  0.00000000000E+00 0.  1.
          2   -1    0    0  501    0  0.00000000000E+00 -0.00000000000E+00 -0.30024422476E+04  0.30024422476E+04  0.00000000000E+00 0. -1.
         23    2    1    2    0    0  0.19925219295E+02 -0.86934529937E+03 -0.26499580635E+04  0.27905215263E+04  0.92597981291E+02 0.  0.
         11    1    3    3    0    0  0.51738855098E+02 -0.64434289369E+03 -0.20129143663E+04  0.21141615170E+04  0.00000000000E+00 0. -1.
        -11    1    3    3    0    0 -0.31813635803E+02 -0.22500240568E+03 -0.63704369724E+03  0.67636000930E+03  0.00000000000E+00 0.  1.
         22    1    1    2    0    0 -0.19925219295E+02  0.86934529937E+03  0.38766970510E+03  0.95207461060E+03  0.00000000000E+00 0.  1.
<mgrwt>
<rscale>  0 0.29814556E+04</rscale>
<asrwt>0</asrwt>
<pdfrwt beam="1">  1        2 0.46191419E+00 0.29814556E+04</pdfrwt>
<pdfrwt beam="2">  1       -2 0.11386983E+00 0.29814556E+04</pdfrwt>
<totfact> 0.89795969E-01</totfact>
</mgrwt>
</event>
<event>
 6    1  0.1885829E-005  0.5441730E+04  0.7818608E-02  0.7763758E-01
         -2   -1    0    0    0  501 -0.00000000000E+00  0.00000000000E+00  0.28961685664E+04  0.28961685664E+04  0.00000000000E+00 0. -1.
          2   -1    0    0  501    0  0.00000000000E+00 -0.00000000000E+00 -0.25561724415E+04  0.25561724415E+04  0.00000000000E+00 0.  1.
         23    2    1    2    0    0 -0.11045935070E+03 -0.16171675236E+04 -0.20186062389E+04  0.25904470235E+04  0.90623209794E+02 0.  0.
         13    1    3    3    0    0 -0.59312878805E+02 -0.34239126801E+03 -0.41666962121E+03  0.54255264375E+03  0.00000000000E+00 0. -1.
        -13    1    3    3    0    0 -0.51146471892E+02 -0.12747762556E+04 -0.16019366177E+04  0.20478943797E+04  0.00000000000E+00 0.  1.
         22    1    1    2    0    0  0.11045935070E+03  0.16171675236E+04  0.23586023638E+04  0.28618939844E+04  0.00000000000E+00 0. -1.
<mgrwt>
<rscale>  0 0.54417300E+04</rscale>
<asrwt>0</asrwt>
<pdfrwt beam="1">  1        2 0.39325730E+00 0.54417300E+04</pdfrwt>
<pdfrwt beam="2">  1       -2 0.44556439E+00 0.54417300E+04</pdfrwt>
<totfact> 0.84579859E-03</totfact>
</mgrwt>
</event>
<event>
 6    1  0.1885829E-005  0.1389709E+04  0.7818608E-02  0.8961301E-01
         -2   -1    0    0    0  501 -0.00000000000E+00  0.00000000000E+00  0.30504670576E+03  0.30504670576E+03  0.00000000000E+00 0.  1.
          2   -1    0    0  501    0  0.00000000000E+00 -0.00000000000E+00 -0.15827836443E+04  0.15827836443E+04  0.00000000000E+00 0. -1.
         23    2    1    2    0    0 -0.19345778987E+03  0.64936308402E+03 -0.45205153556E+03  0.81972234239E+03  0.92172644852E+02 0.  0.
         11    1    3    3    0    0 -0.10125380498E+03  0.46456845567E+03 -0.34211644609E+03  0.58576432608E+03  0.00000000000E+00 0.  1.
        -11    1    3    3    0    0 -0.92203984890E+02  0.18479462835E+03 -0.10993508947E+03  0.23395801631E+03  0.00000000000E+00 0. -1.
         22    1    1    2    0    0  0.19345778987E+03 -0.64936308402E+03 -0.82568540295E+03  0.10681080076E+04  0.00000000000E+00 0.  1.
<mgrwt>
<rscale>  0 0.13897092E+04</rscale>
<asrwt>0</asrwt>
<pdfrwt beam="1">  1        2 0.24350517E+00 0.13897092E+04</pdfrwt>
<pdfrwt beam="2">  1       -2 0.46930263E-01 0.13897092E+04</pdfrwt>
<totfact> 0.47789436E+01</totfact>
</mgrwt>
</event>
<event>
 6    1  0.2139530E-005  0.3821998E+04  0.7818608E-02  0.8041451E-01
          2   -1    0    0  501    0  0.00000000000E+00  0.00000000000E+00  0.24578508420E+04  0.24578508420E+04  0.00000000000E+00 0. -1.
         -2   -1    0    0    0  501 -0.00000000000E+00 -0.00000000000E+00 -0.14858175021E+04  0.14858175021E+04  0.00000000000E+00 0.  1.
         23    2    1    2    0    0  0.11352545094E+04 -0.13854611050E+04  0.11704163847E+04  0.21415415153E+04  0.89555979866E+02 0.  0.
         11    1    3    3    0    0  0.44886142098E+03 -0.55628511451E+03  0.51932816458E+03  0.88353350044E+03  0.00000000000E+00 0. -1.
        -11    1    3    3    0    0  0.68639308842E+03 -0.82917599048E+03  0.65108822008E+03  0.12580080148E+04  0.00000000000E+00 0.  1.
         22    1    1    2    0    0 -0.11352545094E+04  0.13854611050E+04 -0.19838304475E+03  0.18021268288E+04  0.00000000000E+00 0. -1.
<mgrwt>
<rscale>  0 0.38219983E+04</rscale>
<asrwt>0</asrwt>
<pdfrwt beam="1">  1        2 0.37813090E+00 0.38219983E+04</pdfrwt>
<pdfrwt beam="2">  1       -2 0.22858731E+00 0.38219983E+04</pdfrwt>
<totfact> 0.25716629E-01</totfact>
</mgrwt>
</event>
<event>
 6    1  0.1885829E-005  0.2074377E+04  0.7818608E-02  0.8572615E-01
          2   -1    0    0  501    0  0.00000000000E+00  0.00000000000E+00  0.13792691258E+04  0.13792691258E+04  0.00000000000E+00 0. -1.
         -2   -1    0    0    0  501 -0.00000000000E+00 -0.00000000000E+00 -0.77994906927E+03  0.77994906927E+03  0.00000000000E+00 0.  1.
         23    2    1    2    0    0  0.78629983765E+00 -0.81771631118E+03  0.96100852732E+03  0.12650822246E+04  0.90747240646E+02 0.  0.
         13    1    3    3    0    0 -0.18177401684E+02 -0.64673902314E+03  0.70761109046E+03  0.95880928100E+03  0.00000000000E+00 0.  1.
        -13    1    3    3    0    0  0.18963701522E+02 -0.17097728803E+03  0.25339743686E+03  0.30627294364E+03  0.00000000000E+00 0. -1.
         22    1    1    2    0    0 -0.78629983765E+00  0.81771631118E+03 -0.36168847075E+03  0.89413597048E+03  0.00000000000E+00 0.  1.
<mgrwt>
<rscale>  0 0.20743767E+04</rscale>
<asrwt>0</asrwt>
<pdfrwt beam="1">  1        2 0.21219525E+00 0.20743767E+04</pdfrwt>
<pdfrwt beam="2">  1       -2 0.11999216E+00 0.20743767E+04</pdfrwt>
<totfact> 0.72955378E+00</totfact>
</mgrwt>
</event>
<event>
 6    1  0.1885829E-005  0.7720650E+03  0.7818608E-02  0.9601356E-01
          2   -1    0    0  501    0  0.00000000000E+00  0.00000000000E+00  0.13642675582E+04  0.13642675582E+04  0.00000000000E+00 0. -1.
         -2   -1    0    0    0  501 -0.00000000000E+00 -0.00000000000E+00 -0.10923156354E+03  0.10923156354E+03  0.00000000000E+00 0.  1.
         23    2    1    2    0    0 -0.37442901821E+03 -0.48852000871E+02  0.55219362871E+03  0.67564512566E+03  0.94841576218E+02 0.  0.
         13    1    3    3    0    0 -0.22593582492E+03 -0.73131624475E+02  0.36537157109E+03  0.43576555215E+03  0.00000000000E+00 0. -1.
        -13    1    3    3    0    0 -0.14849319329E+03  0.24279623604E+02  0.18682205762E+03  0.23987957351E+03  0.00000000000E+00 0.  1.
         22    1    1    2    0    0  0.37442901821E+03  0.48852000871E+02  0.70284236592E+03  0.79785399604E+03  0.00000000000E+00 0.  1.
<mgrwt>
<rscale>  0 0.77206497E+03</rscale>
<asrwt>0</asrwt>
<pdfrwt beam="1">  1        2 0.20988730E+00 0.77206497E+03</pdfrwt>
<pdfrwt beam="2">  1       -2 0.16804857E-01 0.77206497E+03</pdfrwt>
<totfact> 0.44192523E+02</totfact>
</mgrwt>
</event>
<event>
 6    1  0.1885829E-005  0.9820989E+03  0.7818608E-02  0.9328399E-01
          2   -1    0    0  501    0  0.00000000000E+00  0.00000000000E+00  0.22905547936E+04  0.22905547936E+04  0.00000000000E+00 0.  1.
         -2   -1    0    0    0  501 -0.00000000000E+00 -0.00000000000E+00 -0.10527125265E+03  0.10527125265E+03  0.00000000000E+00 0. -1.
         23    2    1    2    0    0 -0.35289051823E+03  0.29369871857E+03  0.14975823052E+04  0.15689502123E+04  0.89785035419E+02 0.  0.
         13    1    3    3    0    0 -0.22553659076E+03  0.13478730849E+03  0.90380667356E+03  0.94122307424E+03  0.00000000000E+00 0. -1.
        -13    1    3    3    0    0 -0.12735392748E+03  0.15891141008E+03  0.59377563167E+03  0.62772713806E+03  0.00000000000E+00 0.  1.
         22    1    1    2    0    0  0.35289051823E+03 -0.29369871857E+03  0.68770123569E+03  0.82687583392E+03  0.00000000000E+00 0. -1.
<mgrwt>
<rscale>  0 0.98209892E+03</rscale>
<asrwt>0</asrwt>
<pdfrwt beam="1">  1        2 0.35239301E+00 0.98209892E+03</pdfrwt>
<pdfrwt beam="2">  1       -2 0.16195579E-01 0.98209892E+03</pdfrwt>
<totfact> 0.14261217E+02</totfact>
</mgrwt>
</event>
<event>
 6    1  0.1885829E-005  0.4137485E+04  0.7818608E-02  0.7977372E-01
         -2   -1    0    0    0  501 -0.00000000000E+00  0.00000000000E+00  0.18446953689E+04  0.18446953689E+04  0.00000000000E+00 0.  1.
          2   -1    0    0  501    0  0.00000000000E+00 -0.00000000000E+00 -0.23200013376E+04  0.23200013376E+04  0.00000000000E+00 0. -1.
         23    2    1    2    0    0 -0.16355148883E+04  0.37021302592E+03 -0.14555086717E+04  0.22223362937E+04  0.91139862114E+02 0.  0.
         13    1    3    3    0    0 -0.38228784237E+03  0.11572890328E+03 -0.38183178136E+03  0.55256916557E+03  0.00000000000E+00 0.  1.
        -13    1    3    3    0    0 -0.12532270459E+04  0.25448412265E+03 -0.10736768904E+04  0.16697671281E+04  0.00000000000E+00 0. -1.
         22    1    1    2    0    0  0.16355148883E+04 -0.37021302592E+03  0.98020270298E+03  0.19423604128E+04  0.00000000000E+00 0.  1.
<mgrwt>
<rscale>  0 0.41374851E+04</rscale>
<asrwt>0</asrwt>
<pdfrwt beam="1">  1        2 0.35692328E+00 0.41374851E+04</pdfrwt>
<pdfrwt beam="2">  1       -2 0.28379929E+00 0.41374851E+04</pdfrwt>
<totfact> 0.13757321E-01</totfact>
</mgrwt>
</event>
<event>
 6    1  0.1885829E-005  0.9428788E+03  0.7818608E-02  0.9373513E-01
         -1   -1    0    0    0  501 -0.00000000000E+00  0.00000000000E+00  0.84934744781E+03  0.84934744781E+03  0.00000000000E+00 0.  1.
          1   -1    0    0  501    0  0.00000000000E+00 -0.00000000000E+00 -0.26167746895E+03  0.26167746895E+03  0.00000000000E+00 0. -1.
         23    2    1    2    0    0  0.25936701203E+03 -0.26482666665E+03  0.63140262771E+03  0.73777305156E+03  0.90749033213E+02 0.  0.
         13    1    3    3    0    0  0.71730481001E+02 -0.66096091400E+02  0.25164411576E+03  0.26988648762E+03  0.00000000000E+00 0.  1.
        -13    1    3    3    0    0  0.18763653103E+03 -0.19873057525E+03  0.37975851195E+03  0.46788656394E+03  0.00000000000E+00 0. -1.
         22    1    1    2    0    0 -0.25936701203E+03  0.26482666665E+03 -0.43732648852E+02  0.37325186520E+03  0.00000000000E+00 0. -1.
<mgrwt>
<rscale>  0 0.94287876E+03</rscale>
<asrwt>0</asrwt>
<pdfrwt beam="1">  1        1 0.40258073E-01 0.94287876E+03</pdfrwt>
<pdfrwt beam="2">  1       -1 0.13066884E+00 0.94287876E+03</pdfrwt>
<totfact> 0.52780991E+01</totfact>
</mgrwt>
</event>
<event>
 6    1  0.1885829E-005  0.3962886E+04  0.7818608E-02  0.8012076E-01
         -2   -1    0    0    0  501 -0.00000000000E+00  0.00000000000E+00  0.10263337940E+04  0.10263337940E+04  0.00000000000E+00 0.  1.
          2   -1    0    0  501    0  0.00000000000E+00 -0.00000000000E+00 -0.38253804854E+04  0.38253804854E+04  0.00000000000E+00 0. -1.
         23    2    1    2    0    0  0.11147745199E+04 -0.69861166869E+03  0.41190735506E+03  0.13816989506E+04  0.92972184239E+02 0.  0.
         11    1    3    3    0    0  0.59595271183E+03 -0.31899006336E+03  0.21667802408E+03  0.70983354484E+03  0.00000000000E+00 0.  1.
        -11    1    3    3    0    0  0.51882180811E+03 -0.37962160533E+03  0.19522933098E+03  0.67186540577E+03  0.00000000000E+00 0. -1.
         22    1    1    2    0    0 -0.11147745199E+04  0.69861166869E+03 -0.32109540464E+04  0.34700153288E+04  0.00000000000E+00 0. -1.
<mgrwt>
<rscale>  0 0.39628865E+04</rscale>
<asrwt>0</asrwt>
<pdfrwt beam="1">  1        2 0.58852008E+00 0.39628865E+04</pdfrwt>
<pdfrwt beam="2">  1       -2 0.15789751E+00 0.39628865E+04</pdfrwt>
<totfact> 0.96756832E-02</totfact>
</mgrwt>
</event>
<event>
 6    1  0.1885829E-005  0.1098988E+04  0.7818608E-02  0.9206179E-01
          2   -1    0    0  501    0  0.00000000000E+00  0.00000000000E+00  0.15495010700E+04  0.15495010700E+04  0.00000000000E+00 0. -1.
         -2   -1    0    0    0  501 -0.00000000000E+00 -0.00000000000E+00 -0.19486507484E+03  0.19486507484E+03  0.00000000000E+00 0.  1.
         23    2    1    2    0    0 -0.15295549930E+03 -0.42382535751E+03  0.11716314606E+04  0.12580391169E+04  0.83179454740E+02 0.  0.
         11    1    3    3    0    0 -0.79668073445E+00 -0.34948862466E+02  0.48466318807E+02  0.59758193970E+02  0.00000000000E+00 0.  1.
        -11    1    3    3    0    0 -0.15215881856E+03 -0.38887649505E+03  0.11231651418E+04  0.11982809229E+04  0.00000000000E+00 0. -1.
         22    1    1    2    0    0  0.15295549930E+03  0.42382535751E+03  0.18300453452E+03  0.48632702793E+03  0.00000000000E+00 0.  1.
<mgrwt>
<rscale>  0 0.10989880E+04</rscale>
<asrwt>0</asrwt>
<pdfrwt beam="1">  1        2 0.23838477E+00 0.10989880E+04</pdfrwt>
<pdfrwt beam="2">  1       -2 0.29979243E-01 0.10989880E+04</pdfrwt>
<totfact> 0.12128278E+02</totfact>
</mgrwt>
</event>
<event>
 6    1  0.1885829E-005  0.4722776E+04  0.7818608E-02  0.7872755E-01
          2   -1    0    0  501    0  0.00000000000E+00  0.00000000000E+00  0.19663521191E+04  0.19663521191E+04  0.00000000000E+00 0. -1.
         -2   -1    0    0    0  501 -0.00000000000E+00 -0.00000000000E+00 -0.28357857914E+04  0.28357857914E+04  0.00000000000E+00 0.  1.
         23    2    1    2    0    0 -0.21288893688E+03  0.11322681095E+04 -0.25297641200E+04  0.27812346554E+04  0.90592132281E+02 0.  0.
         11    1    3    3    0    0 -0.19765539555E+02  0.72033304772E+02 -0.22230710732E+03  0.23452062493E+03  0.00000000000E+00 0. -1.
        -11    1    3    3    0    0 -0.19312339733E+03  0.10602348047E+04 -0.23074570126E+04  0.25467140305E+04  0.00000000000E+00 0.  1.
         22    1    1    2    0    0  0.21288893688E+03 -0.11322681095E+04  0.16603304477E+04  0.20209032552E+04  0.00000000000E+00 0. -1.
<mgrwt>
<rscale>  0 0.47227760E+04</rscale>
<asrwt>0</asrwt>
<pdfrwt beam="1">  1        2 0.30251571E+00 0.47227760E+04</pdfrwt>
<pdfrwt beam="2">  1       -2 0.43627474E+00 0.47227760E+04</pdfrwt>
<totfact> 0.22241931E-02</totfact>
</mgrwt>
</event>
<event>
 6    1  0.1885829E-005  0.2705175E+04  0.7818608E-02  0.8333328E-01
         -2   -1    0    0    0  501 -0.00000000000E+00  0.00000000000E+00  0.55683777814E+03  0.55683777814E+03  0.00000000000E+00 0.  1.
          2   -1    0    0  501    0  0.00000000000E+00 -0.00000000000E+00 -0.32855048227E+04  0.32855048227E+04  0.00000000000E+00 0. -1.
         23    2    1    2    0    0  0.73510605689E+03  0.43277390399E+02  0.24292408155E+03  0.78087111345E+03  0.92161483409E+02 0.  0.
         13    1    3    3    0    0  0.53424439195E+03  0.75183047223E+01  0.13987338689E+03  0.55230259785E+03  0.00000000000E+00 0. -1.
        -13    1    3    3    0    0  0.20086166494E+03  0.35759085677E+02  0.10305069466E+03  0.22856851560E+03  0.00000000000E+00 0.  1.
         22    1    1    2    0    0 -0.73510605689E+03 -0.43277390399E+02 -0.29715911261E+04  0.30614714874E+04  0.00000000000E+00 0. -1.
<mgrwt>
<rscale>  0 0.27051752E+04</rscale>
<asrwt>0</asrwt>
<pdfrwt beam="1">  1        2 0.50546227E+00 0.27051752E+04</pdfrwt>
<pdfrwt beam="2">  1       -2 0.85667352E-01 0.27051752E+04</pdfrwt>
<totfact> 0.11819979E+00</totfact>
</mgrwt>
</event>
<event>
 6    1  0.1885829E-005  0.2040148E+04  0.7818608E-02  0.8588077E-01
         -2   -1    0    0    0  501 -0.00000000000E+00  0.00000000000E+00  0.31459706141E+03  0.31459706141E+03  0.00000000000E+00 0.  1.
          2   -1    0    0  501    0  0.00000000000E+00 -0.00000000000E+00 -0.33075670795E+04  0.33075670795E+04  0.00000000000E+00 0. -1.
         23    2    1    2    0    0  0.36963378454E+03  0.17979148138E+03 -0.31530664736E+04  0.31810462582E+04  0.90956022555E+02 0.  0.
         13    1    3    3    0    0  0.27916335864E+03  0.91369176100E+02 -0.21149743127E+04  0.21352744205E+04  0.00000000000E+00 0. -1.
        -13    1    3    3    0    0  0.90470425908E+02  0.88422305282E+02 -0.10380921609E+04  0.10457718377E+04  0.00000000000E+00 0.  1.
         22    1    1    2    0    0 -0.36963378454E+03 -0.17979148138E+03  0.16009645549E+03  0.44111788279E+03  0.00000000000E+00 0.  1.
<mgrwt>
<rscale>  0 0.20401479E+04</rscale>
<asrwt>0</asrwt>
<pdfrwt beam="1">  1        2 0.50885647E+00 0.20401479E+04</pdfrwt>
<pdfrwt beam="2">  1       -2 0.48399548E-01 0.20401479E+04</pdfrwt>
<totfact> 0.41383796E+00</totfact>
</mgrwt>
</event>
<event>
 6    1  0.1885829E-005  0.3236220E+04  0.7818608E-02  0.8179317E-01
         -2   -1    0    0    0  501 -0.00000000000E+00  0.00000000000E+00  0.22164050335E+04  0.22164050335E+04  0.00000000000E+00 0.  1.
          2   -1    0    0  501    0  0.00000000000E+00 -0.00000000000E+00 -0.11813183354E+04  0.11813183354E+04  0.00000000000E+00 0. -1.
         23    2    1    2    0    0 -0.23523341815E+03 -0.72540454754E+03 -0.97889510126E+03  0.12441985359E+04  0.90817722849E+02 0.  0.
         13    1    3    3    0    0 -0.16314927201E+03 -0.59656685592E+03 -0.82311041141E+03  0.10295729444E+04  0.00000000000E+00 0.  1.
        -13    1    3    3    0    0 -0.72084146147E+02 -0.12883769162E+03 -0.15578468984E+03  0.21462559143E+03  0.00000000000E+00 0. -1.
         22    1    1    2    0    0  0.23523341815E+03  0.72540454754E+03  0.20139817993E+04  0.21535248330E+04  0.00000000000E+00 0.  1.
<mgrwt>
<rscale>  0 0.32362200E+04</rscale>
<asrwt>0</asrwt>
<pdfrwt beam="1">  1        2 0.18174128E+00 0.32362200E+04</pdfrwt>
<pdfrwt beam="2">  1       -2 0.34098539E+00 0.32362200E+04</pdfrwt>
<totfact> 0.28916517E-01</totfact>
</mgrwt>
</event>
<event>
 6    1  0.1885829E-005  0.7245681E+03  0.7818608E-02  0.9676116E-01
          2   -1    0    0  501    0  0.00000000000E+00  0.00000000000E+00  0.83871115020E+03  0.83871115020E+03  0.00000000000E+00 0.  1.
         -2   -1    0    0    0  501 -0.00000000000E+00 -0.00000000000E+00 -0.15648978812E+03  0.15648978812E+03  0.00000000000E+00 0. -1.
         23    2    1    2    0    0 -0.10868443012E+03 -0.20633925508E+03  0.71707016077E+03  0.75939883421E+03  0.90048766785E+02 0.  0.
         11    1    3    3    0    0 -0.98428730493E+02 -0.10432236713E+03  0.48327452378E+03  0.50410875474E+03  0.00000000000E+00 0.  1.
        -11    1    3    3    0    0 -0.10255699626E+02 -0.10201688795E+03  0.23379563698E+03  0.25529007947E+03  0.00000000000E+00 0. -1.
         22    1    1    2    0    0  0.10868443012E+03  0.20633925508E+03 -0.34848798689E+02  0.23580210412E+03  0.00000000000E+00 0. -1.
<mgrwt>
<rscale>  0 0.72456809E+03</rscale>
<asrwt>0</asrwt>
<pdfrwt beam="1">  1        2 0.12903248E+00 0.72456809E+03</pdfrwt>
<pdfrwt beam="2">  1       -2 0.24075353E-01 0.72456809E+03</pdfrwt>
<totfact> 0.49882505E+02</totfact>
</mgrwt>
</event>
<event>
 6    1  0.1885829E-005  0.2775053E+04  0.7818608E-02  0.8311055E-01
         -2   -1    0    0    0  501 -0.00000000000E+00  0.00000000000E+00  0.50098908603E+03  0.50098908603E+03  0.00000000000E+00 0.  1.
          2   -1    0    0  501    0  0.00000000000E+00 -0.00000000000E+00 -0.38428579987E+04  0.38428579987E+04  0.00000000000E+00 0. -1.
         23    2    1    2    0    0  0.69415787451E+03 -0.11661627204E+04 -0.12318191531E+04  0.18350424624E+04  0.90618804089E+02 0.  0.
         11    1    3    3    0    0  0.50114764350E+03 -0.90341473797E+03 -0.96622960016E+03  0.14145341246E+04  0.00000000000E+00 0.  1.
        -11    1    3    3    0    0  0.19301023100E+03 -0.26274798243E+03 -0.26558955297E+03  0.42050833784E+03  0.00000000000E+00 0. -1.
         22    1    1    2    0    0 -0.69415787451E+03  0.11661627204E+04 -0.21100497595E+04  0.25088046223E+04  0.00000000000E+00 0. -1.
<mgrwt>
<rscale>  0 0.27750531E+04</rscale>
<asrwt>0</asrwt>
<pdfrwt beam="1">  1        2 0.59120893E+00 0.27750531E+04</pdfrwt>
<pdfrwt beam="2">  1       -2 0.77075243E-01 0.27750531E+04</pdfrwt>
<totfact> 0.59694672E-01</totfact>
</mgrwt>
</event>
<event>
 6    1  0.1885829E-005  0.5779252E+04  0.7818608E-02  0.7718391E-01
          2   -1    0    0  501    0  0.00000000000E+00  0.00000000000E+00  0.30822101498E+04  0.30822101498E+04  0.00000000000E+00 0. -1.
         -2   -1    0    0    0  501 -0.00000000000E+00 -0.00000000000E+00 -0.27090748880E+04  0.27090748880E+04  0.00000000000E+00 0.  1.
         23    2    1    2    0    0  0.23504729657E+04  0.13957937577E+03 -0.14910289288E+04  0.27880678139E+04  0.77131729748E+02 0.  0.
         11    1    3    3    0    0  0.21322939596E+04  0.13539460450E+03 -0.13279273784E+04  0.25156312034E+04  0.00000000000E+00 0. -1.
        -11    1    3    3    0    0  0.21817900616E+03  0.41847712636E+01 -0.16310155036E+03  0.27243661055E+03  0.00000000000E+00 0.  1.
         22    1    1    2    0    0 -0.23504729657E+04 -0.13957937577E+03  0.18641641905E+04  0.30032172239E+04  0.00000000000E+00 0. -1.
<mgrwt>
<rscale>  0 0.57792519E+04</rscale>
<asrwt>0</asrwt>
<pdfrwt beam="1">  1        2 0.47418617E+00 0.57792519E+04</pdfrwt>
<pdfrwt beam="2">  1       -2 0.41678076E+00 0.57792519E+04</pdfrwt>
<totfact> 0.60978965E-03</totfact>
</mgrwt>
</event>
<event>
 6    1  0.1885829E-005  0.1540628E+04  0.7818608E-02  0.8857877E-01
         -2   -1    0    0    0  501 -0.00000000000E+00  0.00000000000E+00  0.24660394168E+03  0.24660394168E+03  0.00000000000E+00 0.  1.
          2   -1    0    0  501    0  0.00000000000E+00 -0.00000000000E+00 -0.24062201522E+04  0.24062201522E+04  0.00000000000E+00 0. -1.
         23    2    1    2    0    0 -0.47143840006E+03 -0.59137825687E+03 -0.85786534365E+03  0.11473216106E+04  0.91823322638E+02 0.  0.
         11    1    3    3    0    0 -0.38773676523E+03 -0.53097322174E+03 -0.76215902456E+03  0.10065578672E+04  0.00000000000E+00 0. -1.
        -11    1    3    3    0    0 -0.83701634832E+02 -0.60405035126E+02 -0.95706319091E+02  0.14076374340E+03  0.00000000000E+00 0.  1.
         22    1    1    2    0    0  0.47143840006E+03  0.59137825687E+03 -0.13017508669E+04  0.15055024833E+04  0.00000000000E+00 0.  1.
<mgrwt>
<rscale>  0 0.15406276E+04</rscale>
<asrwt>0</asrwt>
<pdfrwt beam="1">  1        2 0.37018771E+00 0.15406276E+04</pdfrwt>
<pdfrwt beam="2">  1       -2 0.37939068E-01 0.15406276E+04</pdfrwt>
<totfact> 0.24953503E+01</totfact>
</mgrwt>
</event>
<event>
 6    1  0.1885829E-005  0.3174797E+04  0.7818608E-02  0.8195505E-01
          2   -1    0    0  501    0  0.00000000000E+00  0.00000000000E+00  0.17284765619E+04  0.17284765619E+04  0.00000000000E+00 0. -1.
         -2   -1    0    0    0  501 -0.00000000000E+00 -0.00000000000E+00 -0.14578355459E+04  0.14578355459E+04  0.00000000000E+00 0.  1.
         23    2    1    2    0    0 -0.12801409640E+04  0.61631481821E+01 -0.80416883422E+03  0.15147813465E+04  0.95268785544E+02 0.  0.
         13    1    3    3    0    0 -0.88597125615E+03  0.35297685029E+02 -0.59259949864E+03  0.10664732341E+04  0.00000000000E+00 0.  1.
        -13    1    3    3    0    0 -0.39416970786E+03 -0.29134536847E+02 -0.21156933558E+03  0.44830811234E+03  0.00000000000E+00 0. -1.
         22    1    1    2    0    0  0.12801409640E+04 -0.61631481821E+01  0.10748098502E+04  0.16715307614E+04  0.00000000000E+00 0. -1.
<mgrwt>
<rscale>  0 0.31747974E+04</rscale>
<asrwt>0</asrwt>
<pdfrwt beam="1">  1        2 0.26591947E+00 0.31747974E+04</pdfrwt>
<pdfrwt beam="2">  1       -2 0.22428239E+00 0.31747974E+04</pdfrwt>
<totfact> 0.74100060E-01</totfact>
</mgrwt>
</event>
<event>
 6    1  0.1885829E-005  0.1673618E+04  0.7818608E-02  0.8776556E-01
         -2   -1    0    0    0  501 -0.00000000000E+00  0.00000000000E+00  0.34187391768E+03  0.34187391768E+03  0.00000000000E+00 0.  1.
          2   -1    0    0  501    0  0.00000000000E+00 -0.00000000000E+00 -0.20482673204E+04  0.20482673204E+04  0.00000000000E+00 0. -1.
         23    2    1    2    0    0 -0.15145432975E+03 -0.80767067132E+03 -0.65009523136E+03  0.10518452491E+04  0.92110210607E+02 0.  0.
         11    1    3    3    0    0 -0.10948529713E+03 -0.50161862261E+03 -0.35161143352E+03  0.62228520231E+03  0.00000000000E+00 0.  1.
        -11    1    3    3    0    0 -0.41969032625E+02 -0.30605204871E+03 -0.29848379784E+03  0.42956004678E+03  0.00000000000E+00 0. -1.
         22    1    1    2    0    0  0.15145432975E+03  0.80767067132E+03 -0.10562981713E+04  0.13382959890E+04  0.00000000000E+00 0. -1.
<mgrwt>
<rscale>  0 0.16736178E+04</rscale>
<asrwt>0</asrwt>
<pdfrwt beam="1">  1        2 0.31511805E+00 0.16736178E+04</pdfrwt>
<pdfrwt beam="2">  1       -2 0.52595988E-01 0.16736178E+04</pdfrwt>
<totfact> 0.20428072E+01</totfact>
</mgrwt>
</event>
<event>
 6    1  0.1885829E-005  0.2043913E+04  0.7818608E-02  0.8586361E-01
         -2   -1    0    0    0  501 -0.00000000000E+00  0.00000000000E+00  0.91682382219E+03  0.91682382219E+03  0.00000000000E+00 0. -1.
          2   -1    0    0  501    0  0.00000000000E+00 -0.00000000000E+00 -0.11391446672E+04  0.11391446672E+04  0.00000000000E+00 0.  1.
         23    2    1    2    0    0  0.19545674111E+03  0.87970988214E+03  0.36920201872E+03  0.97801110958E+03  0.90015473439E+02 0.  0.
         13    1    3    3    0    0  0.14676174176E+03  0.48388309305E+03  0.23119070616E+03  0.55599550286E+03  0.00000000000E+00 0. -1.
        -13    1    3    3    0    0  0.48694999347E+02  0.39582678909E+03  0.13801131256E+03  0.42201560672E+03  0.00000000000E+00 0.  1.
         22    1    1    2    0    0 -0.19545674111E+03 -0.87970988214E+03 -0.59152286374E+03  0.10779573798E+04  0.00000000000E+00 0.  1.
<mgrwt>
<rscale>  0 0.20439129E+04</rscale>
<asrwt>0</asrwt>
<pdfrwt beam="1">  1        2 0.17525303E+00 0.20439129E+04</pdfrwt>
<pdfrwt beam="2">  1       -2 0.14104982E+00 0.20439129E+04</pdfrwt>
<totfact> 0.67223837E+00</totfact>
</mgrwt>
</event>
<event>
 6    1  0.1885829E-005  0.5522468E+04  0.7818608E-02  0.7752605E-01
          2   -1    0    0  501    0  0.00000000000E+00  0.00000000000E+00  0.21172286164E+04  0.21172286164E+04  0.00000000000E+00 0. -1.
         -2   -1    0    0    0  501 -0.00000000000E+00 -0.00000000000E+00 -0.36011285070E+04  0.36011285070E+04  0.00000000000E+00 0.  1.
         23    2    1    2    0    0  0.24402182396E+04 -0.11483819435E+04 -0.13514588933E+04  0.30181743957E+04  0.97413538545E+02 0.  0.
         13    1    3    3    0    0  0.11912919961E+04 -0.55949832807E+03 -0.71399471803E+03  0.14973321129E+04  0.00000000000E+00 0. -1.
        -13    1    3    3    0    0  0.12489262436E+04 -0.58888361545E+03 -0.63746417524E+03  0.15208422828E+04  0.00000000000E+00 0.  1.
         22    1    1    2    0    0 -0.24402182396E+04  0.11483819435E+04 -0.13244099727E+03  0.27001827277E+04  0.00000000000E+00 0. -1.
<mgrwt>
<rscale>  0 0.55224677E+04</rscale>
<asrwt>0</asrwt>
<pdfrwt beam="1">  1        2 0.32572748E+00 0.55224677E+04</pdfrwt>
<pdfrwt beam="2">  1       -2 0.55401976E+00 0.55224677E+04</pdfrwt>
<totfact> 0.33181648E-03</totfact>
</mgrwt>
</event>
<event>
 6    1  0.1885829E-005  0.1465697E+04  0.7818608E-02  0.8907590E-01
          1   -1    0    0  501    0  0.00000000000E+00  0.00000000000E+00  0.74693860947E+03  0.74693860947E+03  0.00000000000E+00 0. -1.
         -1   -1    0    0    0  501 -0.00000000000E+00 -0.00000000000E+00 -0.71902403681E+03  0.71902403681E+03  0.00000000000E+00 0.  1.
         23    2    1    2    0    0 -0.15598553746E+03 -0.58778457008E+03 -0.38998134252E+03  0.72808787056E+03  0.90577651890E+02 0.  0.
         11    1    3    3    0    0 -0.13700838428E+03 -0.35099375265E+03 -0.25344165060E+03  0.45409314245E+03  0.00000000000E+00 0.  1.
        -11    1    3    3    0    0 -0.18977153178E+02 -0.23679081742E+03 -0.13653969192E+03  0.27399472810E+03  0.00000000000E+00 0. -1.
         22    1    1    2    0    0  0.15598553746E+03  0.58778457008E+03  0.41789591518E+03  0.73787477572E+03  0.00000000000E+00 0. -1.
<mgrwt>
<rscale>  0 0.14656969E+04</rscale>
<asrwt>0</asrwt>
<pdfrwt beam="1">  1        1 0.11491363E+00 0.14656969E+04</pdfrwt>
<pdfrwt beam="2">  1       -1 0.11061908E+00 0.14656969E+04</pdfrwt>
<totfact> 0.18013713E+01</totfact>
</mgrwt>
</event>
<event>
 6    1  0.1885829E-005  0.2258965E+04  0.7818608E-02  0.8494278E-01
         -2   -1    0    0    0  501 -0.00000000000E+00  0.00000000000E+00  0.51281311779E+03  0.51281311779E+03  0.00000000000E+00 0.  1.
          2   -1    0    0  501    0  0.00000000000E+00 -0.00000000000E+00 -0.24877117989E+04  0.24877117989E+04  0.00000000000E+00 0. -1.
         23    2    1    2    0    0 -0.78166710687E+03 -0.66639256680E+03 -0.16073552266E+04  0.19095754632E+04  0.88346511986E+02 0.  0.
         11    1    3    3    0    0 -0.70064634677E+03 -0.62964723800E+03 -0.14697312590E+04  0.17457006964E+04  0.00000000000E+00 0. -1.
        -11    1    3    3    0    0 -0.81020760108E+02 -0.36745328805E+02 -0.13762396754E+03  0.16387476681E+03  0.00000000000E+00 0.  1.
         22    1    1    2    0    0  0.78166710687E+03  0.66639256680E+03 -0.36754345450E+03  0.10909494535E+04  0.00000000000E+00 0.  1.
<mgrwt>
<rscale>  0 0.22589655E+04</rscale>
<asrwt>0</asrwt>
<pdfrwt beam="1">  1        2 0.38272489E+00 0.22589655E+04</pdfrwt>
<pdfrwt beam="2">  1       -2 0.78894325E-01 0.22589655E+04</pdfrwt>
<totfact> 0.45909891E+00</totfact>
</mgrwt>
</event>
<event>
 6    1  0.1885829E-005  0.3293257E+04  0.7818608E-02  0.8164613E-01
          2   -1    0    0  501    0  0.00000000000E+00  0.00000000000E+00  0.30772206186E+04  0.30772206186E+04  0.00000000000E+00 0. -1.
         -2   -1    0    0    0  501 -0.00000000000E+00 -0.00000000000E+00 -0.88111480419E+03  0.88111480419E+03  0.00000000000E+00 0.  1.
         23    2    1    2    0    0  0.83812947768E+03  0.55018629727E+03  0.26669751399E+04  0.28506875073E+04  0.92178545005E+02 0.  0.
         13    1    3    3    0    0  0.66078001001E+03  0.47239983749E+03  0.21989680317E+04  0.23441954340E+04  0.00000000000E+00 0.  1.
        -13    1    3    3    0    0  0.17734946766E+03  0.77786459779E+02  0.46800710817E+03  0.50649207329E+03  0.00000000000E+00 0. -1.
         22    1    1    2    0    0 -0.83812947768E+03 -0.55018629727E+03 -0.47086932549E+03  0.11076479155E+04  0.00000000000E+00 0.  1.
<mgrwt>
<rscale>  0 0.32932565E+04</rscale>
<asrwt>0</asrwt>
<pdfrwt beam="1">  1        2 0.47341855E+00 0.32932565E+04</pdfrwt>
<pdfrwt beam="2">  1       -2 0.13555613E+00 0.32932565E+04</pdfrwt>
<totfact> 0.50722347E-01</totfact>
</mgrwt>
</event>
<event>
 6    1  0.1885829E-005  0.2481130E+04  0.7818608E-02  0.8409739E-01
         -1   -1    0    0    0  501 -0.00000000000E+00  0.00000000000E+00  0.42179783107E+03  0.42179783107E+03  0.00000000000E+00 0.  1.
          1   -1    0    0  501    0  0.00000000000E+00 -0.00000000000E+00 -0.36486700902E+04  0.36486700902E+04  0.00000000000E+00 0. -1.
         23    2    1    2    0    0 -0.20008470780E+03  0.99240728679E+03 -0.44366297660E+03  0.11088534927E+04  0.88391845066E+02 0.  0.
         13    1    3    3    0    0 -0.15480082444E+02  0.27422902826E+03 -0.11568642835E+03  0.29803446545E+03  0.00000000000E+00 0. -1.
        -13    1    3    3    0    0 -0.18460462535E+03  0.71817825853E+03 -0.32797654825E+03  0.81081902724E+03  0.00000000000E+00 0.  1.
         22    1    1    2    0    0  0.20008470780E+03 -0.99240728679E+03 -0.27832092826E+04  0.29616144286E+04  0.00000000000E+00 0. -1.
<mgrwt>
<rscale>  0 0.24811297E+04</rscale>
<asrwt>0</asrwt>
<pdfrwt beam="1">  1        1 0.56133386E+00 0.24811297E+04</pdfrwt>
<pdfrwt beam="2">  1       -1 0.64891974E-01 0.24811297E+04</pdfrwt>
<totfact> 0.40770090E-01</totfact>
</mgrwt>
</event>
<event>
 6    1  0.1885829E-005  0.2397819E+04  0.7818608E-02  0.8440321E-01
         -2   -1    0    0    0  501 -0.00000000000E+00  0.00000000000E+00  0.30758858426E+04  0.30758858426E+04  0.00000000000E+00 0.  1.
          2   -1    0    0  501    0  0.00000000000E+00 -0.00000000000E+00 -0.46730716587E+03  0.46730716587E+03  0.00000000000E+00 0. -1.
         23    2    1    2    0    0 -0.91794655667E+03 -0.28605046784E+02  0.24409135440E+04  0.26096215188E+04  0.92851561036E+02 0.  0.
         13    1    3    3    0    0 -0.53953144878E+03 -0.74178961945E+01  0.13052393878E+04  0.14123735585E+04  0.00000000000E+00 0.  1.
        -13    1    3    3    0    0 -0.37841510789E+03 -0.21187150589E+02  0.11356741562E+04  0.11972479602E+04  0.00000000000E+00 0. -1.
         22    1    1    2    0    0  0.91794655667E+03  0.28605046784E+02  0.16766513272E+03  0.93357148967E+03  0.00000000000E+00 0. -1.
<mgrwt>
<rscale>  0 0.23978186E+04</rscale>
<asrwt>0</asrwt>
<pdfrwt beam="1">  1        2 0.71893412E-01 0.23978186E+04</pdfrwt>
<pdfrwt beam="2">  1       -2 0.47321319E+00 0.23978186E+04</pdfrwt>
<totfact> 0.14608213E-01</totfact>
</mgrwt>
</event>
<event>
 6    1  0.1885829E-005  0.1392160E+04  0.7818608E-02  0.8959513E-01
          2   -1    0    0  501    0  0.00000000000E+00  0.00000000000E+00  0.60185990533E+03  0.60185990533E+03  0.00000000000E+00 0. -1.
         -2   -1    0    0    0  501 -0.00000000000E+00 -0.00000000000E+00 -0.80504988494E+03  0.80504988494E+03  0.00000000000E+00 0.  1.
         23    2    1    2    0    0 -0.62379159321E+03  0.12838385448E+03 -0.37868678299E+03  0.74630590454E+03  0.89277419776E+02 0.  0.
         13    1    3    3    0    0 -0.35988812173E+03  0.29585901748E+02 -0.20344947324E+03  0.41447131855E+03  0.00000000000E+00 0.  1.
        -13    1    3    3    0    0 -0.26390347148E+03  0.98797952728E+02 -0.17523730976E+03  0.33183458598E+03  0.00000000000E+00 0. -1.
         22    1    1    2    0    0  0.62379159321E+03 -0.12838385448E+03  0.17549680338E+03  0.66060388573E+03  0.00000000000E+00 0. -1.
<mgrwt>
<rscale>  0 0.13921598E+04</rscale>
<asrwt>0</asrwt>
<pdfrwt beam="1">  1        2 0.92593832E-01 0.13921598E+04</pdfrwt>
<pdfrwt beam="2">  1       -2 0.12385383E+00 0.13921598E+04</pdfrwt>
<totfact> 0.23604796E+01</totfact>
</mgrwt>
</event>
<event>
 6    1  0.1885829E-005  0.3584491E+03  0.7818608E-02  0.1059200E+00
         -2   -1    0    0    0  501 -0.00000000000E+00  0.00000000000E+00  0.99814110366E+02  0.99814110366E+02  0.00000000000E+00 0.  1.
          2   -1    0    0  501    0  0.00000000000E+00 -0.00000000000E+00 -0.32181252826E+03  0.32181252826E+03  0.00000000000E+00 0. -1.
         23    2    1    2    0    0  0.75782620825E+02 -0.67696481829E+01  0.56319677489E+02  0.13309623126E+03  0.93562102095E+02 0.  0.
         13    1    3    3    0    0 -0.61077972468E+01 -0.86666319334E+01  0.49809600933E+02  0.50925553914E+02  0.00000000000E+00 0.  1.
        -13    1    3    3    0    0  0.81890418072E+02  0.18969837506E+01  0.65100765552E+01  0.82170677350E+02  0.00000000000E+00 0. -1.
         22    1    1    2    0    0 -0.75782620825E+02  0.67696481829E+01 -0.27831809539E+03  0.28853040737E+03  0.00000000000E+00 0. -1.
<mgrwt>
<rscale>  0 0.35844905E+03</rscale>
<asrwt>0</asrwt>
<pdfrwt beam="1">  1        2 0.49509621E-01 0.35844905E+03</pdfrwt>
<pdfrwt beam="2">  1       -2 0.15356017E-01 0.35844905E+03</pdfrwt>
<totfact> 0.33480060E+03</totfact>
</mgrwt>
</event>
<event>
 6    1  0.1885829E-005  0.2586750E+04  0.7818608E-02  0.8372716E-01
         -2   -1    0    0    0  501 -0.00000000000E+00  0.00000000000E+00  0.10507596629E+04  0.10507596629E+04  0.00000000000E+00 0.  1.
          2   -1    0    0  501    0  0.00000000000E+00 -0.00000000000E+00 -0.15920093997E+04  0.15920093997E+04  0.00000000000E+00 0. -1.
         23    2    1    2    0    0 -0.60260910203E+03 -0.40180980386E+03 -0.13643099714E+04  0.15464037047E+04  0.73714799909E+02 0.  0.
         11    1    3    3    0    0 -0.56917663785E+03 -0.37055410966E+03 -0.12380531988E+04  0.14121076858E+04  0.00000000000E+00 0.  1.
        -11    1    3    3    0    0 -0.33432464181E+02 -0.31255694202E+02 -0.12625677257E+03  0.13429601893E+03  0.00000000000E+00 0. -1.
         22    1    1    2    0    0  0.60260910203E+03  0.40180980386E+03  0.82306023458E+03  0.10963653579E+04  0.00000000000E+00 0.  1.
<mgrwt>
<rscale>  0 0.25867503E+04</rscale>
<asrwt>0</asrwt>
<pdfrwt beam="1">  1        2 0.24492452E+00 0.25867503E+04</pdfrwt>
<pdfrwt beam="2">  1       -2 0.16165533E+00 0.25867503E+04</pdfrwt>
<totfact> 0.24440346E+00</totfact>
</mgrwt>
</event>
<event>
 6    1  0.1885829E-005  0.2529264E+04  0.7818608E-02  0.8392634E-01
         -2   -1    0    0    0  501 -0.00000000000E+00  0.00000000000E+00  0.21849365179E+04  0.21849365179E+04  0.00000000000E+00 0.  1.
          2   -1    0    0  501    0  0.00000000000E+00 -0.00000000000E+00 -0.73196376797E+03  0.73196376797E+03  0.00000000000E+00 0. -1.
         23    2    1    2    0    0  0.61471220111E+03  0.60635453895E+03 -0.33570003874E+03  0.93072625975E+03  0.89554103683E+02 0.  0.
         11    1    3    3    0    0  0.46635595280E+03  0.41989720084E+03 -0.21290213110E+03  0.66266797977E+03  0.00000000000E+00 0. -1.
        -11    1    3    3    0    0  0.14835624831E+03  0.18645733811E+03 -0.12279790763E+03  0.26805827998E+03  0.00000000000E+00 0.  1.
         22    1    1    2    0    0 -0.61471220111E+03 -0.60635453895E+03  0.17886727886E+04  0.19861740261E+04  0.00000000000E+00 0.  1.
<mgrwt>
<rscale>  0 0.25292642E+04</rscale>
<asrwt>0</asrwt>
<pdfrwt beam="1">  1        2 0.11260981E+00 0.25292642E+04</pdfrwt>
<pdfrwt beam="2">  1       -2 0.33614408E+00 0.25292642E+04</pdfrwt>
<totfact> 0.65471523E-01</totfact>
</mgrwt>
</event>
<event>
 6    1  0.5653167E-005  0.2953823E+04  0.7818608E-02  0.8257041E-01
          1   -1    0    0  501    0  0.00000000000E+00  0.00000000000E+00  0.18687517557E+04  0.18687517557E+04  0.00000000000E+00 0. -1.
         -1   -1    0    0    0  501 -0.00000000000E+00 -0.00000000000E+00 -0.11672323509E+04  0.11672323509E+04  0.00000000000E+00 0.  1.
         23    2    1    2    0    0  0.11174896362E+03  0.34745046189E+03 -0.11183621497E+04  0.11798648952E+04  0.90208750779E+02 0.  0.
         13    1    3    3    0    0  0.25864708874E+02  0.20281590390E+03 -0.69014676123E+03  0.71979568356E+03  0.00000000000E+00 0. -1.
        -13    1    3    3    0    0  0.85884254749E+02  0.14463455799E+03 -0.42821538849E+03  0.46006921166E+03  0.00000000000E+00 0.  1.
         22    1    1    2    0    0 -0.11174896362E+03 -0.34745046189E+03  0.18198815545E+04  0.18561192113E+04  0.00000000000E+00 0. -1.
<mgrwt>
<rscale>  0 0.29538230E+04</rscale>
<asrwt>0</asrwt>
<pdfrwt beam="1">  1        1 0.28750027E+00 0.29538230E+04</pdfrwt>
<pdfrwt beam="2">  1       -1 0.17957421E+00 0.29538230E+04</pdfrwt>
<totfact> 0.65515596E-01</totfact>
</mgrwt>
</event>
<event>
 6    1  0.1885829E-005  0.2639679E+04  0.7818608E-02  0.8354847E-01
         -1   -1    0    0    0  501 -0.00000000000E+00  0.00000000000E+00  0.52373590034E+03  0.52373590034E+03  0.00000000000E+00 0.  1.
          1   -1    0    0  501    0  0.00000000000E+00 -0.00000000000E+00 -0.33260597228E+04  0.33260597228E+04  0.00000000000E+00 0. -1.
         23    2    1    2    0    0 -0.89659365983E+03  0.16581612548E+03 -0.27915010145E+04  0.29379336207E+04  0.87182953376E+02 0.  0.
         13    1    3    3    0    0 -0.57569608161E+03  0.73473226215E+02 -0.18560205529E+04  0.19446430485E+04  0.00000000000E+00 0. -1.
        -13    1    3    3    0    0 -0.32089757822E+03  0.92342899267E+02 -0.93548046158E+03  0.99329057217E+03  0.00000000000E+00 0.  1.
         22    1    1    2    0    0  0.89659365983E+03 -0.16581612548E+03 -0.10822807959E+02  0.91186200244E+03  0.00000000000E+00 0.  1.
<mgrwt>
<rscale>  0 0.26396794E+04</rscale>
<asrwt>0</asrwt>
<pdfrwt beam="1">  1        1 0.51170150E+00 0.26396794E+04</pdfrwt>
<pdfrwt beam="2">  1       -1 0.80574754E-01 0.26396794E+04</pdfrwt>
<totfact> 0.45995038E-01</totfact>
</mgrwt>
</event>
<event>
 6    1  0.1885829E-005  0.2365038E+04  0.7818608E-02  0.8452710E-01
          2   -1    0    0  501    0  0.00000000000E+00  0.00000000000E+00  0.20848447674E+04  0.20848447674E+04  0.00000000000E+00 0. -1.
         -2   -1    0    0    0  501 -0.00000000000E+00 -0.00000000000E+00 -0.67072186491E+03  0.67072186491E+03  0.00000000000E+00 0.  1.
         23    2    1    2    0    0 -0.60208108202E+03 -0.71358404592E+03  0.15503309125E+04  0.18120326150E+04  0.90732793154E+02 0.  0.
         11    1    3    3    0    0 -0.29618860204E+03 -0.41376212908E+03  0.80267725862E+03  0.95037759283E+03  0.00000000000E+00 0.  1.
        -11    1    3    3    0    0 -0.30589247999E+03 -0.29982191683E+03  0.74765365384E+03  0.86165502217E+03  0.00000000000E+00 0. -1.
         22    1    1    2    0    0  0.60208108202E+03  0.71358404592E+03 -0.13620800994E+03  0.94353401735E+03  0.00000000000E+00 0.  1.
<mgrwt>
<rscale>  0 0.23650378E+04</rscale>
<asrwt>0</asrwt>
<pdfrwt beam="1">  1        2 0.32074535E+00 0.23650378E+04</pdfrwt>
<pdfrwt beam="2">  1       -2 0.10318798E+00 0.23650378E+04</pdfrwt>
<totfact> 0.41408516E+00</totfact>
</mgrwt>
</event>
<event>
 6    1  0.1885829E-005  0.3834793E+04  0.7818608E-02  0.8038729E-01
         -2   -1    0    0    0  501 -0.00000000000E+00  0.00000000000E+00  0.23205197864E+04  0.23205197864E+04  0.00000000000E+00 0.  1.
          2   -1    0    0  501    0  0.00000000000E+00 -0.00000000000E+00 -0.15843043613E+04  0.15843043613E+04  0.00000000000E+00 0. -1.
         23    2    1    2    0    0  0.32470556387E+03  0.16113560192E+04 -0.63488231137E+03  0.17643076384E+04  0.88340079231E+02 0.  0.
         11    1    3    3    0    0  0.25876922991E+03  0.13216569695E+04 -0.55517024985E+03  0.14566923716E+04  0.00000000000E+00 0.  1.
        -11    1    3    3    0    0  0.65936333968E+02  0.28969904978E+03 -0.79712061523E+02  0.30761526674E+03  0.00000000000E+00 0. -1.
         22    1    1    2    0    0 -0.32470556387E+03 -0.16113560192E+04  0.13710977365E+04  0.21405165094E+04  0.00000000000E+00 0.  1.
<mgrwt>
<rscale>  0 0.38347931E+04</rscale>
<asrwt>0</asrwt>
<pdfrwt beam="1">  1        2 0.24373913E+00 0.38347931E+04</pdfrwt>
<pdfrwt beam="2">  1       -2 0.35700304E+00 0.38347931E+04</pdfrwt>
<totfact> 0.12778725E-01</totfact>
</mgrwt>
</event>
<event>
 6    1  0.1885829E-005  0.1235101E+04  0.7818608E-02  0.9082676E-01
         -3   -1    0    0    0  501 -0.00000000000E+00  0.00000000000E+00  0.27984010620E+03  0.27984010620E+03  0.00000000000E+00 0.  1.
          3   -1    0    0  501    0  0.00000000000E+00 -0.00000000000E+00 -0.13628091293E+04  0.13628091293E+04  0.00000000000E+00 0. -1.
         23    2    1    2    0    0  0.30984996148E+03 -0.26183807181E+03  0.68687426871E+02  0.42163377562E+03  0.92146099539E+02 0.  0.
         13    1    3    3    0    0  0.11439955212E+03 -0.69241198722E+02 -0.15484833450E+02  0.13461567959E+03  0.00000000000E+00 0. -1.
        -13    1    3    3    0    0  0.19545040936E+03 -0.19259687308E+03  0.84172260321E+02  0.28701809603E+03  0.00000000000E+00 0.  1.
         22    1    1    2    0    0 -0.30984996148E+03  0.26183807181E+03 -0.11516564500E+04  0.12210154599E+04  0.00000000000E+00 0. -1.
<mgrwt>
<rscale>  0 0.12351011E+04</rscale>
<asrwt>0</asrwt>
<pdfrwt beam="1">  1        3 0.20966294E+00 0.12351011E+04</pdfrwt>
<pdfrwt beam="2">  1       -3 0.43052325E-01 0.12351011E+04</pdfrwt>
<totfact> 0.17802626E+00</totfact>
</mgrwt>
</event>
<event>
 6    1  0.1885829E-005  0.1867586E+04  0.7818608E-02  0.8671161E-01
         -1   -1    0    0    0  501 -0.00000000000E+00  0.00000000000E+00  0.33781372058E+03  0.33781372058E+03  0.00000000000E+00 0.  1.
          1   -1    0    0  501    0  0.00000000000E+00 -0.00000000000E+00 -0.25812141508E+04  0.25812141508E+04  0.00000000000E+00 0. -1.
         23    2    1    2    0    0 -0.35845473107E+03  0.27104380010E+03  0.14539530401E+03  0.48832846675E+03  0.12397726084E+03 0.  0.
         11    1    3    3    0    0 -0.25346481819E+03  0.11622578121E+03  0.95283472855E+02  0.29467233748E+03  0.00000000000E+00 0. -1.
        -11    1    3    3    0    0 -0.10498991288E+03  0.15481801889E+03  0.50111831159E+02  0.19365612926E+03  0.00000000000E+00 0.  1.
         22    1    1    2    0    0  0.35845473107E+03 -0.27104380010E+03 -0.23887957343E+04  0.24306994047E+04  0.00000000000E+00 0. -1.
<mgrwt>
<rscale>  0 0.18675862E+04</rscale>
<asrwt>0</asrwt>
<pdfrwt beam="1">  1        1 0.39710988E+00 0.18675862E+04</pdfrwt>
<pdfrwt beam="2">  1       -1 0.51971340E-01 0.18675862E+04</pdfrwt>
<totfact> 0.41635621E+00</totfact>
</mgrwt>
</event>
<event>
 6    1  0.1885829E-005  0.3144519E+04  0.7818608E-02  0.8203625E-01
         -2   -1    0    0    0  501 -0.00000000000E+00  0.00000000000E+00  0.16200080801E+04  0.16200080801E+04  0.00000000000E+00 0.  1.
          2   -1    0    0  501    0  0.00000000000E+00 -0.00000000000E+00 -0.15259186709E+04  0.15259186709E+04  0.00000000000E+00 0. -1.
         23    2    1    2    0    0  0.18422802689E+03  0.15254760942E+04  0.37417584956E+03  0.15840478524E+04  0.90458567076E+02 0.  0.
         11    1    3    3    0    0  0.14261838147E+03  0.10430750500E+04  0.21632993577E+03  0.10747763506E+04  0.00000000000E+00 0.  1.
        -11    1    3    3    0    0  0.41609645419E+02  0.48240104422E+03  0.15784591379E+03  0.50927150181E+03  0.00000000000E+00 0. -1.
         22    1    1    2    0    0 -0.18422802689E+03 -0.15254760942E+04 -0.28008644036E+03  0.15618788986E+04  0.00000000000E+00 0. -1.
<mgrwt>
<rscale>  0 0.31445194E+04</rscale>
<asrwt>0</asrwt>
<pdfrwt beam="1">  1        2 0.23475672E+00 0.31445194E+04</pdfrwt>
<pdfrwt beam="2">  1       -2 0.24923201E+00 0.31445194E+04</pdfrwt>
<totfact> 0.67450119E-01</totfact>
</mgrwt>
</event>
<event>
 6    1  0.1885829E-005  0.6644146E+03  0.7818608E-02  0.9780101E-01
         -2   -1    0    0    0  501 -0.00000000000E+00  0.00000000000E+00  0.10019845262E+03  0.10019845262E+03  0.00000000000E+00 0.  1.
          2   -1    0    0  501    0  0.00000000000E+00 -0.00000000000E+00 -0.11014310339E+04  0.11014310339E+04  0.00000000000E+00 0. -1.
         23    2    1    2    0    0  0.17223911538E+03 -0.26969249077E+03 -0.61186219517E+03  0.69763578613E+03  0.99599155488E+02 0.  0.
         11    1    3    3    0    0  0.48574731383E+02 -0.41998692805E+02 -0.20899635296E+03  0.21863867516E+03  0.00000000000E+00 0. -1.
        -11    1    3    3    0    0  0.12366438399E+03 -0.22769379797E+03 -0.40286584221E+03  0.47899711098E+03  0.00000000000E+00 0.  1.
         22    1    1    2    0    0 -0.17223911538E+03  0.26969249077E+03 -0.38937038610E+03  0.50399370037E+03  0.00000000000E+00 0.  1.
<mgrwt>
<rscale>  0 0.66441459E+03</rscale>
<asrwt>0</asrwt>
<pdfrwt beam="1">  1        2 0.16945094E+00 0.66441459E+03</pdfrwt>
<pdfrwt beam="2">  1       -2 0.15415146E-01 0.66441459E+03</pdfrwt>
<totfact> 0.73372571E+02</totfact>
</mgrwt>
</event>
<event>
 6    1  0.1885829E-005  0.2123043E+04  0.7818608E-02  0.8551160E-01
         -2   -1    0    0    0  501 -0.00000000000E+00  0.00000000000E+00  0.36323358795E+03  0.36323358795E+03  0.00000000000E+00 0.  1.
          2   -1    0    0  501    0  0.00000000000E+00 -0.00000000000E+00 -0.31022123993E+04  0.31022123993E+04  0.00000000000E+00 0. -1.
         23    2    1    2    0    0 -0.63636859728E+03 -0.84117920778E+03 -0.12073939816E+04  0.16057956056E+04  0.90729537574E+02 0.  0.
         11    1    3    3    0    0 -0.23227680556E+03 -0.24601436021E+03 -0.41822610999E+03  0.53794856530E+03  0.00000000000E+00 0.  1.
        -11    1    3    3    0    0 -0.40409179172E+03 -0.59516484757E+03 -0.78916787159E+03  0.10678470403E+04  0.00000000000E+00 0. -1.
         22    1    1    2    0    0  0.63636859728E+03  0.84117920778E+03 -0.15315848298E+04  0.18596503817E+04  0.00000000000E+00 0.  1.
<mgrwt>
<rscale>  0 0.21230429E+04</rscale>
<asrwt>0</asrwt>
<pdfrwt beam="1">  1        2 0.47726346E+00 0.21230429E+04</pdfrwt>
<pdfrwt beam="2">  1       -2 0.55882088E-01 0.21230429E+04</pdfrwt>
<totfact> 0.41581214E+00</totfact>
</mgrwt>
</event>
<event>
 6    1  0.1885829E-005  0.9353785E+03  0.7818608E-02  0.9382406E-01
         -2   -1    0    0    0  501 -0.00000000000E+00  0.00000000000E+00  0.17203647295E+03  0.17203647295E+03  0.00000000000E+00 0.  1.
          2   -1    0    0  501    0  0.00000000000E+00 -0.00000000000E+00 -0.12714351820E+04  0.12714351820E+04  0.00000000000E+00 0. -1.
         23    2    1    2    0    0  0.35085181127E+03  0.27510127518E+03 -0.74924538087E+03  0.87656332170E+03  0.90647179249E+02 0.  0.
         11    1    3    3    0    0  0.16549158498E+03  0.99414962748E+02 -0.25079572733E+03  0.31649533388E+03  0.00000000000E+00 0. -1.
        -11    1    3    3    0    0  0.18536022629E+03  0.17568631243E+03 -0.49844965354E+03  0.56006798782E+03  0.00000000000E+00 0.  1.
         22    1    1    2    0    0 -0.35085181127E+03 -0.27510127518E+03 -0.35015332817E+03  0.56690833325E+03  0.00000000000E+00 0. -1.
<mgrwt>
<rscale>  0 0.93537848E+03</rscale>
<asrwt>0</asrwt>
<pdfrwt beam="1">  1        2 0.19560541E+00 0.93537848E+03</pdfrwt>
<pdfrwt beam="2">  1       -2 0.26467151E-01 0.93537848E+03</pdfrwt>
<totfact> 0.22209420E+02</totfact>
</mgrwt>
</event>
<event>
 6    1  0.1885829E-005  0.3714326E+04  0.7818608E-02  0.8064795E-01
          2   -1    0    0  501    0  0.00000000000E+00  0.00000000000E+00  0.21062094057E+04  0.21062094057E+04  0.00000000000E+00 0. -1.
         -2   -1    0    0    0  501 -0.00000000000E+00 -0.00000000000E+00 -0.16375644256E+04  0.16375644256E+04  0.00000000000E+00 0.  1.
         23    2    1    2    0    0 -0.65094246820E+03 -0.10037222104E+04 -0.11958406324E+04  0.16939697610E+04  0.91183115904E+02 0.  0.
         11    1    3    3    0    0 -0.52935426040E+02 -0.11238139152E+03 -0.15719624838E+03  0.20035567622E+03  0.00000000000E+00 0. -1.
        -11    1    3    3    0    0 -0.59800704216E+03 -0.89134081890E+03 -0.10386443840E+04  0.14936140848E+04  0.00000000000E+00 0.  1.
         22    1    1    2    0    0  0.65094246820E+03  0.10037222104E+04  0.16644856124E+04  0.20498040703E+04  0.00000000000E+00 0. -1.
<mgrwt>
<rscale>  0 0.37143256E+04</rscale>
<asrwt>0</asrwt>
<pdfrwt beam="1">  1        2 0.32403222E+00 0.37143256E+04</pdfrwt>
<pdfrwt beam="2">  1       -2 0.25193299E+00 0.37143256E+04</pdfrwt>
<totfact> 0.29431133E-01</totfact>
</mgrwt>
</event>
<event>
 6    1  0.1885829E-005  0.1931693E+04  0.7818608E-02  0.8639240E-01
         -2   -1    0    0    0  501 -0.00000000000E+00  0.00000000000E+00  0.44950439744E+03  0.44950439744E+03  0.00000000000E+00 0.  1.
          2   -1    0    0  501    0  0.00000000000E+00 -0.00000000000E+00 -0.20753058080E+04  0.20753058080E+04  0.00000000000E+00 0. -1.
         23    2    1    2    0    0 -0.14982493230E+03  0.49542573492E+03 -0.18771805919E+04  0.19494097692E+04  0.92180825014E+02 0.  0.
         11    1    3    3    0    0 -0.39265620991E+02  0.13372605824E+03 -0.67096377931E+03  0.68528595549E+03  0.00000000000E+00 0.  1.
        -11    1    3    3    0    0 -0.11055931131E+03  0.36169967667E+03 -0.12062168126E+04  0.12641238137E+04  0.00000000000E+00 0. -1.
         22    1    1    2    0    0  0.14982493230E+03 -0.49542573492E+03  0.25137918137E+03  0.57540043621E+03  0.00000000000E+00 0.  1.
<mgrwt>
<rscale>  0 0.19316926E+04</rscale>
<asrwt>0</asrwt>
<pdfrwt beam="1">  1        2 0.31927781E+00 0.19316926E+04</pdfrwt>
<pdfrwt beam="2">  1       -2 0.69154524E-01 0.19316926E+04</pdfrwt>
<totfact> 0.10816323E+01</totfact>
</mgrwt>
</event>
<event>
 6    1  0.1885829E-005  0.5749668E+04  0.7818608E-02  0.7722239E-01
         -2   -1    0    0    0  501 -0.00000000000E+00  0.00000000000E+00  0.27227167361E+04  0.27227167361E+04  0.00000000000E+00 0.  1.
          2   -1    0    0  501    0  0.00000000000E+00 -0.00000000000E+00 -0.30354498794E+04  0.30354498794E+04  0.00000000000E+00 0. -1.
         23    2    1    2    0    0  0.77094031764E+03 -0.19196895674E+04 -0.21545130132E+04  0.29883814076E+04  0.94552126606E+02 0.  0.
         13    1    3    3    0    0  0.54360080780E+03 -0.12810449479E+04 -0.14990604078E+04  0.20454241865E+04  0.00000000000E+00 0. -1.
        -13    1    3    3    0    0  0.22733950984E+03 -0.63864461950E+03 -0.65545260545E+03  0.94295722105E+03  0.00000000000E+00 0.  1.
         22    1    1    2    0    0 -0.77094031764E+03  0.19196895674E+04  0.18417798700E+04  0.27697852079E+04  0.00000000000E+00 0.  1.
<mgrwt>
<rscale>  0 0.57496679E+04</rscale>
<asrwt>0</asrwt>
<pdfrwt beam="1">  1        2 0.46699229E+00 0.57496679E+04</pdfrwt>
<pdfrwt beam="2">  1       -2 0.41887950E+00 0.57496679E+04</pdfrwt>
<totfact> 0.63397685E-03</totfact>
</mgrwt>
</event>
<event>
 6    1  0.1885829E-005  0.2978349E+04  0.7818608E-02  0.8249941E-01
          2   -1    0    0  501    0  0.00000000000E+00  0.00000000000E+00  0.29185080082E+04  0.29185080082E+04  0.00000000000E+00 0. -1.
         -2   -1    0    0    0  501 -0.00000000000E+00 -0.00000000000E+00 -0.75985423713E+03  0.75985423713E+03  0.00000000000E+00 0.  1.
         23    2    1    2    0    0  0.49526541800E+03  0.56433889211E+03 -0.50570651136E+03  0.91022533867E+03  0.94894004632E+02 0.  0.
         11    1    3    3    0    0  0.12164221032E+03  0.14765651148E+03 -0.18006540961E+03  0.26272195274E+03  0.00000000000E+00 0.  1.
        -11    1    3    3    0    0  0.37362320768E+03  0.41668238063E+03 -0.32564110175E+03  0.64750338593E+03  0.00000000000E+00 0. -1.
         22    1    1    2    0    0 -0.49526541800E+03 -0.56433889211E+03  0.26643602824E+04  0.27681369067E+04  0.00000000000E+00 0. -1.
<mgrwt>
<rscale>  0 0.29783490E+04</rscale>
<asrwt>0</asrwt>
<pdfrwt beam="1">  1        2 0.44900123E+00 0.29783490E+04</pdfrwt>
<pdfrwt beam="2">  1       -2 0.11690065E+00 0.29783490E+04</pdfrwt>
<totfact> 0.95009413E-01</totfact>
</mgrwt>
</event>
<event>
 6    1  0.1885829E-005  0.3923026E+04  0.7818608E-02  0.8020257E-01
          2   -1    0    0  501    0  0.00000000000E+00  0.00000000000E+00  0.27988671525E+04  0.27988671525E+04  0.00000000000E+00 0. -1.
         -2   -1    0    0    0  501 -0.00000000000E+00 -0.00000000000E+00 -0.13746752893E+04  0.13746752893E+04  0.00000000000E+00 0.  1.
         23    2    1    2    0    0 -0.83249888891E+03  0.17253836845E+04  0.26975761376E+03  0.19368659576E+04  0.93152074802E+02 0.  0.
         11    1    3    3    0    0 -0.23639623649E+03  0.39826381352E+03  0.64198252812E+02  0.46756674545E+03  0.00000000000E+00 0. -1.
        -11    1    3    3    0    0 -0.59610265242E+03  0.13271198709E+04  0.20555936095E+03  0.14692992122E+04  0.00000000000E+00 0.  1.
         22    1    1    2    0    0  0.83249888891E+03 -0.17253836845E+04  0.11544342494E+04  0.22366764842E+04  0.00000000000E+00 0. -1.
<mgrwt>
<rscale>  0 0.39230261E+04</rscale>
<asrwt>0</asrwt>
<pdfrwt beam="1">  1        2 0.43059494E+00 0.39230261E+04</pdfrwt>
<pdfrwt beam="2">  1       -2 0.21148851E+00 0.39230261E+04</pdfrwt>
<totfact> 0.20586701E-01</totfact>
</mgrwt>
</event>
<event>
 6    1  0.1885829E-005  0.4009265E+04  0.7818608E-02  0.8002680E-01
          2   -1    0    0  501    0  0.00000000000E+00  0.00000000000E+00  0.26371445356E+04  0.26371445356E+04  0.00000000000E+00 0. -1.
         -2   -1    0    0    0  501 -0.00000000000E+00 -0.00000000000E+00 -0.15238267984E+04  0.15238267984E+04  0.00000000000E+00 0.  1.
         23    2    1    2    0    0 -0.84250965627E+03 -0.13115768102E+04 -0.74935430170E+03  0.17320614191E+04  0.91916485026E+02 0.  0.
         13    1    3    3    0    0 -0.12962180230E+03 -0.14854147782E+03 -0.83595886676E+02  0.21413699945E+03  0.00000000000E+00 0.  1.
        -13    1    3    3    0    0 -0.71288785397E+03 -0.11630353323E+04 -0.66575841502E+03  0.15179244197E+04  0.00000000000E+00 0. -1.
         22    1    1    2    0    0  0.84250965627E+03  0.13115768102E+04  0.18626720389E+04  0.24289099149E+04  0.00000000000E+00 0. -1.
<mgrwt>
<rscale>  0 0.40092650E+04</rscale>
<asrwt>0</asrwt>
<pdfrwt beam="1">  1        2 0.40571454E+00 0.40092650E+04</pdfrwt>
<pdfrwt beam="2">  1       -2 0.23443489E+00 0.40092650E+04</pdfrwt>
<totfact> 0.18295622E-01</totfact>
</mgrwt>
</event>
<event>
 6    1  0.1885829E-005  0.2178732E+04  0.7818608E-02  0.8527333E-01
         -2   -1    0    0    0  501 -0.00000000000E+00  0.00000000000E+00  0.31980673425E+03  0.31980673425E+03  0.00000000000E+00 0. -1.
          2   -1    0    0  501    0  0.00000000000E+00 -0.00000000000E+00 -0.37107342588E+04  0.37107342588E+04  0.00000000000E+00 0.  1.
         23    2    1    2    0    0  0.16620546107E+03 -0.99966071927E+03 -0.96883903147E+03  0.14050013386E+04  0.91836177527E+02 0.  0.
         13    1    3    3    0    0  0.38775314755E+02 -0.34016737390E+03 -0.38305328316E+03  0.51375790508E+03  0.00000000000E+00 0. -1.
        -13    1    3    3    0    0  0.12743014632E+03 -0.65949334537E+03 -0.58578574831E+03  0.89124343347E+03  0.00000000000E+00 0.  1.
         22    1    1    2    0    0 -0.16620546107E+03  0.99966071927E+03 -0.24220884931E+04  0.26255396545E+04  0.00000000000E+00 0.  1.
<mgrwt>
<rscale>  0 0.21787316E+04</rscale>
<asrwt>0</asrwt>
<pdfrwt beam="1">  1        2 0.57088219E+00 0.21787316E+04</pdfrwt>
<pdfrwt beam="2">  1       -2 0.49201036E-01 0.21787316E+04</pdfrwt>
<totfact> 0.20627741E+00</totfact>
</mgrwt>
</event>
<event>
 6    1  0.1885829E-005  0.4626752E+04  0.7818608E-02  0.7888814E-01
         -2   -1    0    0    0  501 -0.00000000000E+00  0.00000000000E+00  0.26207268219E+04  0.26207268219E+04  0.00000000000E+00 0.  1.
          2   -1    0    0  501    0  0.00000000000E+00 -0.00000000000E+00 -0.20420700791E+04  0.20420700791E+04  0.00000000000E+00 0. -1.
         23    2    1    2    0    0 -0.17183813180E+04  0.50095357597E+03 -0.11861529959E+04  0.21491656127E+04  0.90360730876E+02 0.  0.
         13    1    3    3    0    0 -0.12756468782E+04  0.37174396361E+03 -0.83237929138E+03  0.15679042755E+04  0.00000000000E+00 0.  1.
        -13    1    3    3    0    0 -0.44273443984E+03  0.12920961236E+03 -0.35377370451E+03  0.58126133722E+03  0.00000000000E+00 0. -1.
         22    1    1    2    0    0  0.17183813180E+04 -0.50095357597E+03  0.17648097387E+04  0.25136312882E+04  0.00000000000E+00 0.  1.
<mgrwt>
<rscale>  0 0.46267517E+04</rscale>
<asrwt>0</asrwt>
<pdfrwt beam="1">  1        2 0.31416463E+00 0.46267517E+04</pdfrwt>
<pdfrwt beam="2">  1       -2 0.40318874E+00 0.46267517E+04</pdfrwt>
<totfact> 0.33595654E-02</totfact>
</mgrwt>
</event>
<event>
 6    1  0.1885829E-005  0.2481003E+04  0.7818608E-02  0.8409785E-01
         -2   -1    0    0    0  501 -0.00000000000E+00  0.00000000000E+00  0.68203592957E+03  0.68203592957E+03  0.00000000000E+00 0. -1.
          2   -1    0    0  501    0  0.00000000000E+00 -0.00000000000E+00 -0.22562506501E+04  0.22562506501E+04  0.00000000000E+00 0.  1.
         23    2    1    2    0    0  0.58575668425E+03  0.34892858128E+03 -0.20131218086E+04  0.21274219300E+04  0.91665718130E+02 0.  0.
         11    1    3    3    0    0  0.34852913728E+03  0.22145094182E+03 -0.13486061463E+04  0.14104083157E+04  0.00000000000E+00 0.  1.
        -11    1    3    3    0    0  0.23722754697E+03  0.12747763946E+03 -0.66451566232E+03  0.71701361428E+03  0.00000000000E+00 0. -1.
         22    1    1    2    0    0 -0.58575668425E+03 -0.34892858128E+03  0.43890708815E+03  0.81086464962E+03  0.00000000000E+00 0. -1.
<mgrwt>
<rscale>  0 0.24810030E+04</rscale>
<asrwt>0</asrwt>
<pdfrwt beam="1">  1        2 0.34711549E+00 0.24810030E+04</pdfrwt>
<pdfrwt beam="2">  1       -2 0.10492860E+00 0.24810030E+04</pdfrwt>
<totfact> 0.31564708E+00</totfact>
</mgrwt>
</event>
<event>
 6    1  0.1885829E-005  0.2364075E+04  0.7818608E-02  0.8453077E-01
         -2   -1    0    0    0  501 -0.00000000000E+00  0.00000000000E+00  0.95708551313E+03  0.95708551313E+03  0.00000000000E+00 0.  1.
          2   -1    0    0  501    0  0.00000000000E+00 -0.00000000000E+00 -0.14598617631E+04  0.14598617631E+04  0.00000000000E+00 0. -1.
         23    2    1    2    0    0 -0.11380704039E+04  0.19715701180E+03 -0.34764149867E+01  0.11586247990E+04  0.91237097767E+02 0.  0.
         11    1    3    3    0    0 -0.54278705614E+03  0.13981003089E+03 -0.83322747550E+01  0.56056583900E+03  0.00000000000E+00 0. -1.
        -11    1    3    3    0    0 -0.59528334771E+03  0.57346980914E+02  0.48558597682E+01  0.59805896002E+03  0.00000000000E+00 0.  1.
         22    1    1    2    0    0  0.11380704039E+04 -0.19715701180E+03 -0.49929983499E+03  0.12583224772E+04  0.00000000000E+00 0. -1.
<mgrwt>
<rscale>  0 0.23640749E+04</rscale>
<asrwt>0</asrwt>
<pdfrwt beam="1">  1        2 0.22459412E+00 0.23640749E+04</pdfrwt>
<pdfrwt beam="2">  1       -2 0.14724393E+00 0.23640749E+04</pdfrwt>
<totfact> 0.37970100E+00</totfact>
</mgrwt>
</event>
<event>
 6    1  0.1885829E-005  0.2673239E+04  0.7818608E-02  0.8343741E-01
          2   -1    0    0  501    0  0.00000000000E+00  0.00000000000E+00  0.14248498090E+04  0.14248498090E+04  0.00000000000E+00 0. -1.
         -2   -1    0    0    0  501 -0.00000000000E+00 -0.00000000000E+00 -0.12538522177E+04  0.12538522177E+04  0.00000000000E+00 0.  1.
         23    2    1    2    0    0 -0.65694993314E+03 -0.56298264523E+03  0.11047030553E+04  0.14057768259E+04  0.85480818437E+02 0.  0.
         11    1    3    3    0    0 -0.38639763544E+03 -0.27531423987E+03  0.59659769710E+03  0.76225315711E+03  0.00000000000E+00 0. -1.
        -11    1    3    3    0    0 -0.27055229770E+03 -0.28766840535E+03  0.50810535821E+03  0.64352366877E+03  0.00000000000E+00 0.  1.
         22    1    1    2    0    0  0.65694993314E+03  0.56298264523E+03 -0.93370546401E+03  0.12729252009E+04  0.00000000000E+00 0.  1.
<mgrwt>
<rscale>  0 0.26732386E+04</rscale>
<asrwt>0</asrwt>
<pdfrwt beam="1">  1        2 0.21920766E+00 0.26732386E+04</pdfrwt>
<pdfrwt beam="2">  1       -2 0.19290034E+00 0.26732386E+04</pdfrwt>
<totfact> 0.18252718E+00</totfact>
</mgrwt>
</event>
<event>
 6    1  0.1885829E-005  0.2606247E+04  0.7818608E-02  0.8366082E-01
         -2   -1    0    0    0  501 -0.00000000000E+00  0.00000000000E+00  0.61950111806E+03  0.61950111806E+03  0.00000000000E+00 0.  1.
          2   -1    0    0  501    0  0.00000000000E+00 -0.00000000000E+00 -0.27411261398E+04  0.27411261398E+04  0.00000000000E+00 0. -1.
         23    2    1    2    0    0  0.12959643863E+04  0.84129041521E+02 -0.11748938430E+04  0.17534865326E+04  0.87966423011E+02 0.  0.
         13    1    3    3    0    0  0.98944785158E+02 -0.16889374997E+02 -0.93037889974E+02  0.13686259704E+03  0.00000000000E+00 0.  1.
        -13    1    3    3    0    0  0.11970196011E+04  0.10101841652E+03 -0.10818559531E+04  0.16166239356E+04  0.00000000000E+00 0. -1.
         22    1    1    2    0    0 -0.12959643863E+04 -0.84129041521E+02 -0.94673117874E+03  0.16071407253E+04  0.00000000000E+00 0. -1.
<mgrwt>
<rscale>  0 0.26062469E+04</rscale>
<asrwt>0</asrwt>
<pdfrwt beam="1">  1        2 0.42171172E+00 0.26062469E+04</pdfrwt>
<pdfrwt beam="2">  1       -2 0.95307864E-01 0.26062469E+04</pdfrwt>
<totfact> 0.20515921E+00</totfact>
</mgrwt>
</event>
<event>
 6    1  0.1885829E-005  0.2189528E+04  0.7818608E-02  0.8522799E-01
          2   -1    0    0  501    0  0.00000000000E+00  0.00000000000E+00  0.12979084774E+04  0.12979084774E+04  0.00000000000E+00 0. -1.
         -2   -1    0    0    0  501 -0.00000000000E+00 -0.00000000000E+00 -0.92341516282E+03  0.92341516282E+03  0.00000000000E+00 0.  1.
         23    2    1    2    0    0 -0.58602812962E+03 -0.76926130526E+03  0.70420460668E+03  0.11996086797E+04  0.89246466566E+02 0.  0.
         13    1    3    3    0    0 -0.14159639874E+03 -0.25008414928E+03  0.22335323495E+03  0.36397567147E+03  0.00000000000E+00 0.  1.
        -13    1    3    3    0    0 -0.44443173088E+03 -0.51917715598E+03  0.48085137173E+03  0.83563300820E+03  0.00000000000E+00 0. -1.
         22    1    1    2    0    0  0.58602812962E+03  0.76926130526E+03 -0.32971129209E+03  0.10217149605E+04  0.00000000000E+00 0.  1.
<mgrwt>
<rscale>  0 0.21895281E+04</rscale>
<asrwt>0</asrwt>
<pdfrwt beam="1">  1        2 0.19967823E+00 0.21895281E+04</pdfrwt>
<pdfrwt beam="2">  1       -2 0.14206387E+00 0.21895281E+04</pdfrwt>
<totfact> 0.52439446E+00</totfact>
</mgrwt>
</event>
<event>
 6    1  0.1885829E-005  0.2762516E+04  0.7818608E-02  0.8315001E-01
         -2   -1    0    0    0  501 -0.00000000000E+00  0.00000000000E+00  0.91535250451E+03  0.91535250451E+03  0.00000000000E+00 0. -1.
          2   -1    0    0  501    0  0.00000000000E+00 -0.00000000000E+00 -0.20843053442E+04  0.20843053442E+04  0.00000000000E+00 0.  1.
         23    2    1    2    0    0 -0.86009432342E+03 -0.95341062207E+02  0.58176862435E+03  0.10467426411E+04  0.91450867651E+02 0.  0.
         11    1    3    3    0    0 -0.62255136991E+03 -0.67490355532E+02  0.37031512135E+03  0.72750150885E+03  0.00000000000E+00 0. -1.
        -11    1    3    3    0    0 -0.23754295351E+03 -0.27850706675E+02  0.21145350299E+03  0.31924113230E+03  0.00000000000E+00 0.  1.
         22    1    1    2    0    0  0.86009432342E+03  0.95341062207E+02 -0.17507214641E+04  0.19529152076E+04  0.00000000000E+00 0.  1.
<mgrwt>
<rscale>  0 0.27625163E+04</rscale>
<asrwt>0</asrwt>
<pdfrwt beam="1">  1        2 0.32066236E+00 0.27625163E+04</pdfrwt>
<pdfrwt beam="2">  1       -2 0.14082346E+00 0.27625163E+04</pdfrwt>
<totfact> 0.18511386E+00</totfact>
</mgrwt>
</event>
<event>
 6    1  0.1885829E-005  0.3754889E+04  0.7818608E-02  0.8055905E-01
         -2   -1    0    0    0  501 -0.00000000000E+00  0.00000000000E+00  0.26762618342E+04  0.26762618342E+04  0.00000000000E+00 0.  1.
          2   -1    0    0  501    0  0.00000000000E+00 -0.00000000000E+00 -0.13170604270E+04  0.13170604270E+04  0.00000000000E+00 0. -1.
         23    2    1    2    0    0  0.12459047223E+04  0.11468490626E+04  0.15392782160E+04  0.22903927247E+04  0.94763165231E+02 0.  0.
         11    1    3    3    0    0  0.80137211692E+03  0.72221106020E+03  0.92030338281E+03  0.14180071938E+04  0.00000000000E+00 0.  1.
        -11    1    3    3    0    0  0.44453260535E+03  0.42463800238E+03  0.61897483323E+03  0.87238553087E+03  0.00000000000E+00 0. -1.
         22    1    1    2    0    0 -0.12459047223E+04 -0.11468490626E+04 -0.18007680881E+03  0.17029295365E+04  0.00000000000E+00 0. -1.
<mgrwt>
<rscale>  0 0.37548894E+04</rscale>
<asrwt>0</asrwt>
<pdfrwt beam="1">  1        2 0.20262468E+00 0.37548894E+04</pdfrwt>
<pdfrwt beam="2">  1       -2 0.41173259E+00 0.37548894E+04</pdfrwt>
<totfact> 0.80773325E-02</totfact>
</mgrwt>
</event>
<event>
 6    1  0.1885829E-005  0.6769139E+04  0.7818608E-02  0.7601724E-01
          2   -1    0    0  501    0  0.00000000000E+00  0.00000000000E+00  0.33546139580E+04  0.33546139580E+04  0.00000000000E+00 0. -1.
         -2   -1    0    0    0  501 -0.00000000000E+00 -0.00000000000E+00 -0.34147925787E+04  0.34147925787E+04  0.00000000000E+00 0.  1.
         23    2    1    2    0    0  0.15924302108E+04  0.28296658706E+04 -0.98325859792E+03  0.33937703655E+04  0.89648803276E+02 0.  0.
         13    1    3    3    0    0  0.79073930342E+02  0.16192623258E+03 -0.36369246573E+02  0.18383556064E+03  0.00000000000E+00 0. -1.
        -13    1    3    3    0    0  0.15133562805E+04  0.26677396380E+04 -0.94688935134E+03  0.32099348049E+04  0.00000000000E+00 0.  1.
         22    1    1    2    0    0 -0.15924302108E+04 -0.28296658706E+04  0.92307997725E+03  0.33756361712E+04  0.00000000000E+00 0.  1.
<mgrwt>
<rscale>  0 0.67691390E+04</rscale>
<asrwt>0</asrwt>
<pdfrwt beam="1">  1        2 0.51609446E+00 0.67691390E+04</pdfrwt>
<pdfrwt beam="2">  1       -2 0.52535270E+00 0.67691390E+04</pdfrwt>
<totfact> 0.76886761E-04</totfact>
</mgrwt>
</event>
<event>
 6    1  0.1885829E-005  0.2746338E+04  0.7818608E-02  0.8320125E-01
          2   -1    0    0  501    0  0.00000000000E+00  0.00000000000E+00  0.13952043225E+04  0.13952043225E+04  0.00000000000E+00 0. -1.
         -2   -1    0    0    0  501 -0.00000000000E+00 -0.00000000000E+00 -0.13514815852E+04  0.13514815852E+04  0.00000000000E+00 0.  1.
         23    2    1    2    0    0 -0.69919975718E+03  0.56408485055E+03 -0.10148941543E+04  0.13582545115E+04  0.88165494878E+02 0.  0.
         13    1    3    3    0    0 -0.53622308921E+03  0.45540857546E+03 -0.74389811229E+03  0.10238733191E+04  0.00000000000E+00 0.  1.
        -13    1    3    3    0    0 -0.16297666798E+03  0.10867627509E+03 -0.27099604198E+03  0.33438119242E+03  0.00000000000E+00 0. -1.
         22    1    1    2    0    0  0.69919975718E+03 -0.56408485055E+03  0.10586168916E+04  0.13884313963E+04  0.00000000000E+00 0. -1.
<mgrwt>
<rscale>  0 0.27463379E+04</rscale>
<asrwt>0</asrwt>
<pdfrwt beam="1">  1        2 0.21464682E+00 0.27463379E+04</pdfrwt>
<pdfrwt beam="2">  1       -2 0.20792024E+00 0.27463379E+04</pdfrwt>
<totfact> 0.15032147E+00</totfact>
</mgrwt>
</event>
<event>
 6    1  0.1885829E-005  0.2444156E+04  0.7818608E-02  0.8423155E-01
         -1   -1    0    0    0  501 -0.00000000000E+00  0.00000000000E+00  0.60497302484E+03  0.60497302484E+03  0.00000000000E+00 0.  1.
          1   -1    0    0  501    0  0.00000000000E+00 -0.00000000000E+00 -0.24686622796E+04  0.24686622796E+04  0.00000000000E+00 0. -1.
         23    2    1    2    0    0 -0.39861017780E+03  0.11155804197E+04 -0.56516557368E+03  0.13159170401E+04  0.93892407070E+02 0.  0.
         13    1    3    3    0    0 -0.15162832162E+03  0.56384997946E+03 -0.27830074066E+03  0.64681469487E+03  0.00000000000E+00 0.  1.
        -13    1    3    3    0    0 -0.24698185618E+03  0.55173044020E+03 -0.28686483302E+03  0.66910234520E+03  0.00000000000E+00 0. -1.
         22    1    1    2    0    0  0.39861017780E+03 -0.11155804197E+04 -0.12985236811E+04  0.17577182644E+04  0.00000000000E+00 0.  1.
<mgrwt>
<rscale>  0 0.24441555E+04</rscale>
<asrwt>0</asrwt>
<pdfrwt beam="1">  1        1 0.37979420E+00 0.24441555E+04</pdfrwt>
<pdfrwt beam="2">  1       -1 0.93072772E-01 0.24441555E+04</pdfrwt>
<totfact> 0.14250348E+00</totfact>
</mgrwt>
</event>
<event>
 6    1  0.2008565E-005  0.3263993E+04  0.7818608E-02  0.8172118E-01
          2   -1    0    0  501    0  0.00000000000E+00  0.00000000000E+00  0.15576713093E+04  0.15576713093E+04  0.00000000000E+00 0. -1.
         -2   -1    0    0    0  501 -0.00000000000E+00 -0.00000000000E+00 -0.17098681346E+04  0.17098681346E+04  0.00000000000E+00 0.  1.
         23    2    1    2    0    0 -0.15863862155E+04 -0.35446585810E+03  0.54620736076E+02  0.16289300417E+04  0.90345928171E+02 0.  0.
         11    1    3    3    0    0 -0.11362493225E+04 -0.21723346565E+03  0.18866042588E+02  0.11569826399E+04  0.00000000000E+00 0.  1.
        -11    1    3    3    0    0 -0.45013689302E+03 -0.13723239246E+03  0.35754693488E+02  0.47194740184E+03  0.00000000000E+00 0. -1.
         22    1    1    2    0    0  0.15863862155E+04  0.35446585810E+03 -0.20681756132E+03  0.16386094022E+04  0.00000000000E+00 0.  1.
<mgrwt>
<rscale>  0 0.32639930E+04</rscale>
<asrwt>0</asrwt>
<pdfrwt beam="1">  1        2 0.23964174E+00 0.32639930E+04</pdfrwt>
<pdfrwt beam="2">  1       -2 0.26305663E+00 0.32639930E+04</pdfrwt>
<totfact> 0.52728189E-01</totfact>
</mgrwt>
</event>
<event>
 6    1  0.1885829E-005  0.3450380E+04  0.7818608E-02  0.8125651E-01
          1   -1    0    0  501    0  0.00000000000E+00  0.00000000000E+00  0.30213386667E+04  0.30213386667E+04  0.00000000000E+00 0.  1.
         -1   -1    0    0    0  501 -0.00000000000E+00 -0.00000000000E+00 -0.98508668943E+03  0.98508668943E+03  0.00000000000E+00 0. -1.
         23    2    1    2    0    0  0.97504426488E+03  0.87340616731E+03 -0.28380012840E+03  0.13425575995E+04  0.91480837483E+02 0.  0.
         13    1    3    3    0    0  0.42250854906E+03  0.31937491340E+03 -0.10559482246E+03  0.54005932625E+03  0.00000000000E+00 0. -1.
        -13    1    3    3    0    0  0.55253571582E+03  0.55403125391E+03 -0.17820530595E+03  0.80249827329E+03  0.00000000000E+00 0.  1.
         22    1    1    2    0    0 -0.97504426488E+03 -0.87340616731E+03  0.23200521057E+04  0.26638677566E+04  0.00000000000E+00 0.  1.
<mgrwt>
<rscale>  0 0.34503800E+04</rscale>
<asrwt>0</asrwt>
<pdfrwt beam="1">  1        1 0.46482133E+00 0.34503800E+04</pdfrwt>
<pdfrwt beam="2">  1       -1 0.15155180E+00 0.34503800E+04</pdfrwt>
<totfact> 0.16016626E-01</totfact>
</mgrwt>
</event>
<event>
 6    1  0.1885829E-005  0.1106717E+04  0.7818608E-02  0.9198670E-01
         -1   -1    0    0    0  501 -0.00000000000E+00  0.00000000000E+00  0.35513965976E+03  0.35513965976E+03  0.00000000000E+00 0.  1.
          1   -1    0    0  501    0  0.00000000000E+00 -0.00000000000E+00 -0.86221140537E+03  0.86221140537E+03  0.00000000000E+00 0. -1.
         23    2    1    2    0    0  0.37433010622E+03  0.18347892707E+02 -0.69838159739E+03  0.79656711465E+03  0.79515023628E+02 0.  0.
         13    1    3    3    0    0  0.18676033654E+03  0.48837312894E+02 -0.34549873230E+03  0.39576998427E+03  0.00000000000E+00 0. -1.
        -13    1    3    3    0    0  0.18756976969E+03 -0.30489420187E+02 -0.35288286509E+03  0.40079713037E+03  0.00000000000E+00 0.  1.
         22    1    1    2    0    0 -0.37433010622E+03 -0.18347892707E+02  0.19130985178E+03  0.42078395048E+03  0.00000000000E+00 0.  1.
<mgrwt>
<rscale>  0 0.11067167E+04</rscale>
<asrwt>0</asrwt>
<pdfrwt beam="1">  1        1 0.13264791E+00 0.11067167E+04</pdfrwt>
<pdfrwt beam="2">  1       -1 0.54636871E-01 0.11067167E+04</pdfrwt>
<totfact> 0.65924461E+01</totfact>
</mgrwt>
</event>
<event>
 6    1  0.1885829E-005  0.1397578E+04  0.7818608E-02  0.8955574E-01
          1   -1    0    0  501    0  0.00000000000E+00  0.00000000000E+00  0.15437754718E+04  0.15437754718E+04  0.00000000000E+00 0. -1.
         -1   -1    0    0    0  501 -0.00000000000E+00 -0.00000000000E+00 -0.31630634542E+03  0.31630634542E+03  0.00000000000E+00 0.  1.
         23    2    1    2    0    0  0.27840211062E+03 -0.17306809271E+03  0.14333060247E+04  0.14730041395E+04  0.88964793891E+02 0.  0.
         11    1    3    3    0    0  0.93894033663E+02 -0.79554012429E+02  0.71474114835E+03  0.72525846399E+03  0.00000000000E+00 0. -1.
        -11    1    3    3    0    0  0.18450807695E+03 -0.93514080280E+02  0.71856487633E+03  0.74774567546E+03  0.00000000000E+00 0.  1.
         22    1    1    2    0    0 -0.27840211062E+03  0.17306809271E+03 -0.20583689831E+03  0.38707767775E+03  0.00000000000E+00 0.  1.
<mgrwt>
<rscale>  0 0.13975779E+04</rscale>
<asrwt>0</asrwt>
<pdfrwt beam="1">  1        1 0.23750392E+00 0.13975779E+04</pdfrwt>
<pdfrwt beam="2">  1       -1 0.48662515E-01 0.13975779E+04</pdfrwt>
<totfact> 0.25143932E+01</totfact>
</mgrwt>
</event>
<event>
 6    1  0.1885829E-005  0.1539368E+04  0.7818608E-02  0.8858688E-01
         -2   -1    0    0    0  501 -0.00000000000E+00  0.00000000000E+00  0.39801713521E+03  0.39801713521E+03  0.00000000000E+00 0.  1.
          2   -1    0    0  501    0  0.00000000000E+00 -0.00000000000E+00 -0.14884120636E+04  0.14884120636E+04  0.00000000000E+00 0. -1.
         23    2    1    2    0    0  0.48275664438E+03  0.47720198829E+03 -0.98476127325E+03  0.11994545381E+04  0.90336639057E+02 0.  0.
         13    1    3    3    0    0  0.35299775931E+03  0.32103036543E+03 -0.62455085722E+03  0.78595908727E+03  0.00000000000E+00 0. -1.
        -13    1    3    3    0    0  0.12975888507E+03  0.15617162285E+03 -0.36021041604E+03  0.41349545083E+03  0.00000000000E+00 0.  1.
         22    1    1    2    0    0 -0.48275664438E+03 -0.47720198829E+03 -0.10563365509E+03  0.68697466067E+03  0.00000000000E+00 0.  1.
<mgrwt>
<rscale>  0 0.15393681E+04</rscale>
<asrwt>0</asrwt>
<pdfrwt beam="1">  1        2 0.22898647E+00 0.15393681E+04</pdfrwt>
<pdfrwt beam="2">  1       -2 0.61233405E-01 0.15393681E+04</pdfrwt>
<totfact> 0.30790510E+01</totfact>
</mgrwt>
</event>
<event>
 6    1  0.1885829E-005  0.1752714E+04  0.7818608E-02  0.8731858E-01
         -2   -1    0    0    0  501 -0.00000000000E+00  0.00000000000E+00  0.24219450822E+03  0.24219450822E+03  0.00000000000E+00 0.  1.
          2   -1    0    0  501    0  0.00000000000E+00 -0.00000000000E+00 -0.31710123208E+04  0.31710123208E+04  0.00000000000E+00 0. -1.
         23    2    1    2    0    0  0.38850177465E+03 -0.40432242973E+03 -0.16266256413E+03  0.59079206245E+03  0.90365342897E+02 0.  0.
         13    1    3    3    0    0  0.53169570993E+02 -0.17800746001E+02 -0.11688721757E+02  0.57275614829E+02  0.00000000000E+00 0. -1.
        -13    1    3    3    0    0  0.33533220366E+03 -0.38652168373E+03 -0.15097384238E+03  0.53351644762E+03  0.00000000000E+00 0.  1.
         22    1    1    2    0    0 -0.38850177465E+03  0.40432242973E+03 -0.27661552485E+04  0.28224147666E+04  0.00000000000E+00 0. -1.
<mgrwt>
<rscale>  0 0.17527142E+04</rscale>
<asrwt>0</asrwt>
<pdfrwt beam="1">  1        2 0.48784804E+00 0.17527142E+04</pdfrwt>
<pdfrwt beam="2">  1       -2 0.37260695E-01 0.17527142E+04</pdfrwt>
<totfact> 0.87654147E+00</totfact>
</mgrwt>
</event>
<event>
 6    1  0.1885829E-005  0.5206401E+04  0.7818608E-02  0.7797433E-01
         -2   -1    0    0    0  501 -0.00000000000E+00  0.00000000000E+00  0.24952820440E+04  0.24952820440E+04  0.00000000000E+00 0.  1.
          2   -1    0    0  501    0  0.00000000000E+00 -0.00000000000E+00 -0.27157864644E+04  0.27157864644E+04  0.00000000000E+00 0. -1.
         23    2    1    2    0    0 -0.22804136873E+04 -0.96023532182E+03  0.69670502042E+03  0.25722029156E+04  0.92149309088E+02 0.  0.
         11    1    3    3    0    0 -0.44970055882E+03 -0.22562100754E+03  0.12497135208E+03  0.51841418816E+03  0.00000000000E+00 0. -1.
        -11    1    3    3    0    0 -0.18307131285E+04 -0.73461431428E+03  0.57173366835E+03  0.20537887275E+04  0.00000000000E+00 0.  1.
         22    1    1    2    0    0  0.22804136873E+04  0.96023532182E+03 -0.91720944085E+03  0.26388655928E+04  0.00000000000E+00 0. -1.
<mgrwt>
<rscale>  0 0.52064011E+04</rscale>
<asrwt>0</asrwt>
<pdfrwt beam="1">  1        2 0.41781330E+00 0.52064011E+04</pdfrwt>
<pdfrwt beam="2">  1       -2 0.38388955E+00 0.52064011E+04</pdfrwt>
<totfact> 0.17593003E-02</totfact>
</mgrwt>
</event>
<event>
 6    1  0.1885829E-005  0.3480671E+04  0.7818608E-02  0.8118386E-01
          1   -1    0    0  501    0  0.00000000000E+00  0.00000000000E+00  0.19286560521E+04  0.19286560521E+04  0.00000000000E+00 0. -1.
         -1   -1    0    0    0  501 -0.00000000000E+00 -0.00000000000E+00 -0.15704028054E+04  0.15704028054E+04  0.00000000000E+00 0.  1.
         23    2    1    2    0    0  0.23317421328E+03 -0.80640579394E+03 -0.13518660398E+04  0.15940211959E+04  0.93280573076E+02 0.  0.
         13    1    3    3    0    0  0.68519223913E+02 -0.11499155008E+03 -0.21415519664E+03  0.25254779525E+03  0.00000000000E+00 0.  1.
        -13    1    3    3    0    0  0.16465498936E+03 -0.69141424386E+03 -0.11377108431E+04  0.13414734007E+04  0.00000000000E+00 0. -1.
         22    1    1    2    0    0 -0.23317421328E+03  0.80640579394E+03  0.17101192865E+04  0.19050376616E+04  0.00000000000E+00 0. -1.
<mgrwt>
<rscale>  0 0.34806706E+04</rscale>
<asrwt>0</asrwt>
<pdfrwt beam="1">  1        1 0.29671631E+00 0.34806706E+04</pdfrwt>
<pdfrwt beam="2">  1       -1 0.24160043E+00 0.34806706E+04</pdfrwt>
<totfact> 0.21544876E-01</totfact>
</mgrwt>
</event>
<event>
 6    1  0.1885829E-005  0.2696774E+04  0.7818608E-02  0.8336053E-01
         -1   -1    0    0    0  501 -0.00000000000E+00  0.00000000000E+00  0.11096483956E+04  0.11096483956E+04  0.00000000000E+00 0. -1.
          1   -1    0    0  501    0  0.00000000000E+00 -0.00000000000E+00 -0.16384893965E+04  0.16384893965E+04  0.00000000000E+00 0.  1.
         23    2    1    2    0    0  0.19301094199E+02 -0.59676151354E+03  0.96536912748E+03  0.11390508634E+04  0.94881403972E+02 0.  0.
         11    1    3    3    0    0 -0.57449296251E+01 -0.43338726901E+03  0.62381446794E+03  0.75960648995E+03  0.00000000000E+00 0.  1.
        -11    1    3    3    0    0  0.25046023824E+02 -0.16337424453E+03  0.34155465954E+03  0.37944437345E+03  0.00000000000E+00 0. -1.
         22    1    1    2    0    0 -0.19301094199E+02  0.59676151354E+03 -0.14942101284E+04  0.16090869287E+04  0.00000000000E+00 0.  1.
<mgrwt>
<rscale>  0 0.26967737E+04</rscale>
<asrwt>0</asrwt>
<pdfrwt beam="1">  1        1 0.25207529E+00 0.26967737E+04</pdfrwt>
<pdfrwt beam="2">  1       -1 0.17071514E+00 0.26967737E+04</pdfrwt>
<totfact> 0.11149224E+00</totfact>
</mgrwt>
</event>
<event>
 6    1  0.1885829E-005  0.1022254E+04  0.7818608E-02  0.9284469E-01
          1   -1    0    0  501    0  0.00000000000E+00  0.00000000000E+00  0.18309324662E+04  0.18309324662E+04  0.00000000000E+00 0. -1.
         -1   -1    0    0    0  501 -0.00000000000E+00 -0.00000000000E+00 -0.14268718867E+03  0.14268718867E+03  0.00000000000E+00 0.  1.
         23    2    1    2    0    0  0.18233226058E+03 -0.71748499186E+02  0.17537627487E+04  0.17670151065E+04  0.90915935784E+02 0.  0.
         13    1    3    3    0    0  0.63312619053E+02 -0.28324227055E+02  0.30806184047E+03  0.31577341105E+03  0.00000000000E+00 0. -1.
        -13    1    3    3    0    0  0.11901964153E+03 -0.43424272131E+02  0.14457009083E+04  0.14512416954E+04  0.00000000000E+00 0.  1.
         22    1    1    2    0    0 -0.18233226058E+03  0.71748499186E+02 -0.65517471183E+02  0.20660454839E+03  0.00000000000E+00 0.  1.
<mgrwt>
<rscale>  0 0.10222536E+04</rscale>
<asrwt>0</asrwt>
<pdfrwt beam="1">  1        1 0.28168190E+00 0.10222536E+04</pdfrwt>
<pdfrwt beam="2">  1       -1 0.21951876E-01 0.10222536E+04</pdfrwt>
<totfact> 0.68119412E+01</totfact>
</mgrwt>
</event>
<event>
 6    1  0.1885829E-005  0.1764221E+04  0.7818608E-02  0.8725561E-01
          2   -1    0    0  501    0  0.00000000000E+00  0.00000000000E+00  0.75953996474E+03  0.75953996474E+03  0.00000000000E+00 0.  1.
         -2   -1    0    0    0  501 -0.00000000000E+00 -0.00000000000E+00 -0.10244611389E+04  0.10244611389E+04  0.00000000000E+00 0. -1.
         23    2    1    2    0    0  0.28563973745E+03 -0.73433264039E+03 -0.52843727160E+03  0.95317307097E+03  0.91969923681E+02 0.  0.
         13    1    3    3    0    0  0.87431787333E+02 -0.34731266667E+03 -0.25191867452E+03  0.43787375400E+03  0.00000000000E+00 0. -1.
        -13    1    3    3    0    0  0.19820795012E+03 -0.38701997372E+03 -0.27651859708E+03  0.51529931697E+03  0.00000000000E+00 0.  1.
         22    1    1    2    0    0 -0.28563973745E+03  0.73433264039E+03  0.26351609739E+03  0.83082803271E+03  0.00000000000E+00 0.  1.
<mgrwt>
<rscale>  0 0.17642213E+04</rscale>
<asrwt>0</asrwt>
<pdfrwt beam="1">  1        2 0.11685230E+00 0.17642213E+04</pdfrwt>
<pdfrwt beam="2">  1       -2 0.15760940E+00 0.17642213E+04</pdfrwt>
<totfact> 0.91596714E+00</totfact>
</mgrwt>
</event>
<event>
 6    1  0.1885829E-005  0.2798613E+04  0.7818608E-02  0.8303699E-01
          2   -1    0    0  501    0  0.00000000000E+00  0.00000000000E+00  0.10909789472E+04  0.10909789472E+04  0.00000000000E+00 0. -1.
         -2   -1    0    0    0  501 -0.00000000000E+00 -0.00000000000E+00 -0.17947715788E+04  0.17947715788E+04  0.00000000000E+00 0.  1.
         23    2    1    2    0    0  0.61311702727E+03 -0.82921471703E+03  0.62082133685E+03  0.12070272904E+04  0.89365605932E+02 0.  0.
         13    1    3    3    0    0  0.59262193653E+03 -0.76822771011E+03  0.57243014507E+03  0.11265215689E+04  0.00000000000E+00 0.  1.
        -13    1    3    3    0    0  0.20495090733E+02 -0.60987006929E+02  0.48391191774E+02  0.80505721534E+02  0.00000000000E+00 0. -1.
         22    1    1    2    0    0 -0.61311702727E+03  0.82921471703E+03 -0.13246139685E+04  0.16787232355E+04  0.00000000000E+00 0.  1.
<mgrwt>
<rscale>  0 0.27986125E+04</rscale>
<asrwt>0</asrwt>
<pdfrwt beam="1">  1        2 0.16784291E+00 0.27986125E+04</pdfrwt>
<pdfrwt beam="2">  1       -2 0.27611870E+00 0.27986125E+04</pdfrwt>
<totfact> 0.85406105E-01</totfact>
</mgrwt>
</event>
<event>
 6    1  0.1885829E-005  0.5553676E+04  0.7818608E-02  0.7748346E-01
         -1   -1    0    0    0  501 -0.00000000000E+00  0.00000000000E+00  0.41976918971E+04  0.41976918971E+04  0.00000000000E+00 0.  1.
          1   -1    0    0  501    0  0.00000000000E+00 -0.00000000000E+00 -0.18369214131E+04  0.18369214131E+04  0.00000000000E+00 0. -1.
         23    2    1    2    0    0 -0.25468184945E+04  0.63496448798E+03  0.19836257439E+03  0.26338086537E+04  0.90199603974E+02 0.  0.
         13    1    3    3    0    0 -0.11788340240E+04  0.31271477887E+03  0.13340182417E+03  0.12268806934E+04  0.00000000000E+00 0. -1.
        -13    1    3    3    0    0 -0.13679844704E+04  0.32224970911E+03  0.64960750225E+02  0.14069279603E+04  0.00000000000E+00 0.  1.
         22    1    1    2    0    0  0.25468184945E+04 -0.63496448798E+03  0.21624079096E+04  0.34008046566E+04  0.00000000000E+00 0.  1.
<mgrwt>
<rscale>  0 0.55536763E+04</rscale>
<asrwt>0</asrwt>
<pdfrwt beam="1">  1        1 0.28260330E+00 0.55536763E+04</pdfrwt>
<pdfrwt beam="2">  1       -1 0.64579875E+00 0.55536763E+04</pdfrwt>
<totfact> 0.81689865E-04</totfact>
</mgrwt>
</event>
<event>
 6    1  0.1885829E-005  0.1919393E+04  0.7818608E-02  0.8645263E-01
         -2   -1    0    0    0  501 -0.00000000000E+00  0.00000000000E+00  0.81850925983E+03  0.81850925983E+03  0.00000000000E+00 0.  1.
          2   -1    0    0  501    0  0.00000000000E+00 -0.00000000000E+00 -0.11252376520E+04  0.11252376520E+04  0.00000000000E+00 0. -1.
         23    2    1    2    0    0  0.94740111921E+03 -0.13134461283E+03 -0.99257243733E+02  0.96504135581E+03  0.81440346273E+02 0.  0.
         13    1    3    3    0    0  0.54666093184E+03 -0.11013978166E+03 -0.36233682612E+02  0.55882181924E+03  0.00000000000E+00 0.  1.
        -13    1    3    3    0    0  0.40074018737E+03 -0.21204831167E+02 -0.63023561120E+02  0.40621953658E+03  0.00000000000E+00 0. -1.
         22    1    1    2    0    0 -0.94740111921E+03  0.13134461283E+03 -0.20747114846E+03  0.97870555605E+03  0.00000000000E+00 0. -1.
<mgrwt>
<rscale>  0 0.19193931E+04</rscale>
<asrwt>0</asrwt>
<pdfrwt beam="1">  1        2 0.17311348E+00 0.19193931E+04</pdfrwt>
<pdfrwt beam="2">  1       -2 0.12592450E+00 0.19193931E+04</pdfrwt>
<totfact> 0.92531853E+00</totfact>
</mgrwt>
</event>
<event>
 6    1  0.1885829E-005  0.1680177E+04  0.7818608E-02  0.8772751E-01
          2   -1    0    0  501    0  0.00000000000E+00  0.00000000000E+00  0.75052406879E+03  0.75052406879E+03  0.00000000000E+00 0. -1.
         -2   -1    0    0    0  501 -0.00000000000E+00 -0.00000000000E+00 -0.94034161456E+03  0.94034161456E+03  0.00000000000E+00 0.  1.
         23    2    1    2    0    0  0.74197937913E+03  0.15708627460E+03  0.26287335559E+03  0.80761116235E+03  0.89016244302E+02 0.  0.
         13    1    3    3    0    0  0.31531764842E+03  0.75257008835E+02  0.66842736597E+02  0.33099363774E+03  0.00000000000E+00 0.  1.
        -13    1    3    3    0    0  0.42666173070E+03  0.81829265761E+02  0.19603061899E+03  0.47661752461E+03  0.00000000000E+00 0. -1.
         22    1    1    2    0    0 -0.74197937913E+03 -0.15708627460E+03 -0.45269090136E+03  0.88325452101E+03  0.00000000000E+00 0.  1.
<mgrwt>
<rscale>  0 0.16801774E+04</rscale>
<asrwt>0</asrwt>
<pdfrwt beam="1">  1        2 0.11546524E+00 0.16801774E+04</pdfrwt>
<pdfrwt beam="2">  1       -2 0.14466794E+00 0.16801774E+04</pdfrwt>
<totfact> 0.11765718E+01</totfact>
</mgrwt>
</event>
<event>
 6    1  0.1885829E-005  0.9358196E+03  0.7818608E-02  0.9381881E-01
          2   -1    0    0  501    0  0.00000000000E+00  0.00000000000E+00  0.51846647471E+03  0.51846647471E+03  0.00000000000E+00 0. -1.
         -2   -1    0    0    0  501 -0.00000000000E+00 -0.00000000000E+00 -0.42228302390E+03  0.42228302390E+03  0.00000000000E+00 0.  1.
         23    2    1    2    0    0 -0.19931450826E+01  0.12452033030E+03  0.49745079503E+03  0.52060099294E+03  0.89770903365E+02 0.  0.
         13    1    3    3    0    0  0.27560636799E+02  0.92851267049E+02  0.22843278469E+03  0.24811788250E+03  0.00000000000E+00 0. -1.
        -13    1    3    3    0    0 -0.29553781881E+02  0.31669063248E+02  0.26901801034E+03  0.27248311044E+03  0.00000000000E+00 0.  1.
         22    1    1    2    0    0  0.19931450826E+01 -0.12452033030E+03 -0.40126734422E+03  0.42014850567E+03  0.00000000000E+00 0.  1.
<mgrwt>
<rscale>  0 0.93581962E+03</rscale>
<asrwt>0</asrwt>
<pdfrwt beam="1">  1        2 0.79764073E-01 0.93581962E+03</pdfrwt>
<pdfrwt beam="2">  1       -2 0.64966619E-01 0.93581962E+03</pdfrwt>
<totfact> 0.12930397E+02</totfact>
</mgrwt>
</event>
<event>
 6    1  0.1885829E-005  0.1932256E+04  0.7818608E-02  0.8638965E-01
          2   -1    0    0  501    0  0.00000000000E+00  0.00000000000E+00  0.19516234939E+04  0.19516234939E+04  0.00000000000E+00 0. -1.
         -2   -1    0    0    0  501 -0.00000000000E+00 -0.00000000000E+00 -0.47827011040E+03  0.47827011040E+03  0.00000000000E+00 0.  1.
         23    2    1    2    0    0 -0.89509960987E+03 -0.34717025413E+03  0.62864307658E+03  0.11511184092E+04  0.90282763387E+02 0.  0.
         11    1    3    3    0    0 -0.54411974145E+03 -0.18465001737E+03  0.41929490563E+03  0.71131578068E+03  0.00000000000E+00 0.  1.
        -11    1    3    3    0    0 -0.35097986841E+03 -0.16252023676E+03  0.20934817096E+03  0.43980262854E+03  0.00000000000E+00 0. -1.
         22    1    1    2    0    0  0.89509960987E+03  0.34717025413E+03  0.84471030691E+03  0.12787751951E+04  0.00000000000E+00 0.  1.
<mgrwt>
<rscale>  0 0.19322559E+04</rscale>
<asrwt>0</asrwt>
<pdfrwt beam="1">  1        2 0.30024976E+00 0.19322559E+04</pdfrwt>
<pdfrwt beam="2">  1       -2 0.73580018E-01 0.19322559E+04</pdfrwt>
<totfact> 0.11060604E+01</totfact>
</mgrwt>
</event>
<event>
 6    1  0.1885829E-005  0.1149537E+04  0.7818608E-02  0.9158211E-01
          2   -1    0    0  501    0  0.00000000000E+00  0.00000000000E+00  0.93023399170E+03  0.93023399170E+03  0.00000000000E+00 0. -1.
         -2   -1    0    0    0  501 -0.00000000000E+00 -0.00000000000E+00 -0.35513496087E+03  0.35513496087E+03  0.00000000000E+00 0.  1.
         23    2    1    2    0    0 -0.26921275832E+03  0.44858517447E+03  0.54500772729E+03  0.76133684043E+03  0.94319636376E+02 0.  0.
         13    1    3    3    0    0 -0.10507096130E+03  0.15631944238E+03  0.26178340923E+03  0.32249996639E+03  0.00000000000E+00 0. -1.
        -13    1    3    3    0    0 -0.16414179702E+03  0.29226573209E+03  0.28322431806E+03  0.43883687404E+03  0.00000000000E+00 0.  1.
         22    1    1    2    0    0  0.26921275832E+03 -0.44858517447E+03  0.30091303547E+02  0.52403211213E+03  0.00000000000E+00 0. -1.
<mgrwt>
<rscale>  0 0.11495366E+04</rscale>
<asrwt>0</asrwt>
<pdfrwt beam="1">  1        2 0.14311292E+00 0.11495366E+04</pdfrwt>
<pdfrwt beam="2">  1       -2 0.54636148E-01 0.11495366E+04</pdfrwt>
<totfact> 0.87316115E+01</totfact>
</mgrwt>
</event>
<event>
 6    1  0.1885829E-005  0.1032278E+04  0.7818608E-02  0.9273835E-01
         -2   -1    0    0    0  501 -0.00000000000E+00  0.00000000000E+00  0.60016712491E+03  0.60016712491E+03  0.00000000000E+00 0.  1.
          2   -1    0    0  501    0  0.00000000000E+00 -0.00000000000E+00 -0.44387548889E+03  0.44387548889E+03  0.00000000000E+00 0. -1.
         23    2    1    2    0    0  0.10299414004E+03  0.21928740968E+03  0.53501953718E+03  0.59445437546E+03  0.91844098436E+02 0.  0.
         13    1    3    3    0    0  0.72492186309E+02  0.89066363251E+02  0.16520593277E+03  0.20119874344E+03  0.00000000000E+00 0. -1.
        -13    1    3    3    0    0  0.30501953735E+02  0.13022104643E+03  0.36981360440E+03  0.39325563202E+03  0.00000000000E+00 0.  1.
         22    1    1    2    0    0 -0.10299414004E+03 -0.21928740968E+03 -0.37872790116E+03  0.44958823833E+03  0.00000000000E+00 0. -1.
<mgrwt>
<rscale>  0 0.10322780E+04</rscale>
<asrwt>0</asrwt>
<pdfrwt beam="1">  1        2 0.68288537E-01 0.10322780E+04</pdfrwt>
<pdfrwt beam="2">  1       -2 0.92333404E-01 0.10322780E+04</pdfrwt>
<totfact> 0.70162703E+01</totfact>
</mgrwt>
</event>
<event>
 6    1  0.2070403E-005  0.4484026E+04  0.7818608E-02  0.7913439E-01
          2   -1    0    0  501    0  0.00000000000E+00  0.00000000000E+00  0.26310309499E+04  0.26310309499E+04  0.00000000000E+00 0. -1.
         -2   -1    0    0    0  501 -0.00000000000E+00 -0.00000000000E+00 -0.19105142325E+04  0.19105142325E+04  0.00000000000E+00 0.  1.
         23    2    1    2    0    0  0.72009405552E+03  0.96404831329E+03  0.22753282860E+04  0.25754923823E+04  0.90097742488E+02 0.  0.
         11    1    3    3    0    0  0.33521529236E+03  0.45201334849E+03  0.96864758867E+03  0.11202515389E+04  0.00000000000E+00 0.  1.
        -11    1    3    3    0    0  0.38487876316E+03  0.51203496480E+03  0.13066806973E+04  0.14552408434E+04  0.00000000000E+00 0. -1.
         22    1    1    2    0    0 -0.72009405552E+03 -0.96404831329E+03 -0.15548115686E+04  0.19660528001E+04  0.00000000000E+00 0.  1.
<mgrwt>
<rscale>  0 0.44840259E+04</rscale>
<asrwt>0</asrwt>
<pdfrwt beam="1">  1        2 0.40477399E+00 0.44840259E+04</pdfrwt>
<pdfrwt beam="2">  1       -2 0.29392527E+00 0.44840259E+04</pdfrwt>
<totfact> 0.76641621E-02</totfact>
</mgrwt>
</event>
<event>
 6    1  0.1885829E-005  0.4565900E+04  0.7818608E-02  0.7899200E-01
          1   -1    0    0  501    0  0.00000000000E+00  0.00000000000E+00  0.30488245949E+04  0.30488245949E+04  0.00000000000E+00 0. -1.
         -1   -1    0    0    0  501 -0.00000000000E+00 -0.00000000000E+00 -0.17094657617E+04  0.17094657617E+04  0.00000000000E+00 0.  1.
         23    2    1    2    0    0  0.71943046834E+03 -0.35899045291E+03 -0.15557600349E+04  0.17535994233E+04  0.90924733945E+02 0.  0.
         11    1    3    3    0    0  0.48045424433E+03 -0.20218876605E+03 -0.10634428594E+04  0.11843256703E+04  0.00000000000E+00 0.  1.
        -11    1    3    3    0    0  0.23897622401E+03 -0.15680168686E+03 -0.49231717545E+03  0.56927375303E+03  0.00000000000E+00 0. -1.
         22    1    1    2    0    0 -0.71943046834E+03  0.35899045291E+03  0.28951188681E+04  0.30046909333E+04  0.00000000000E+00 0. -1.
<mgrwt>
<rscale>  0 0.45659002E+04</rscale>
<asrwt>0</asrwt>
<pdfrwt beam="1">  1        1 0.46904994E+00 0.45659002E+04</pdfrwt>
<pdfrwt beam="2">  1       -1 0.26299473E+00 0.45659002E+04</pdfrwt>
<totfact> 0.23598407E-02</totfact>
</mgrwt>
</event>
<event>
 6    1  0.1885829E-005  0.3678696E+04  0.7818608E-02  0.8072700E-01
          2   -1    0    0  501    0  0.00000000000E+00  0.00000000000E+00  0.18350223143E+04  0.18350223143E+04  0.00000000000E+00 0. -1.
         -2   -1    0    0    0  501 -0.00000000000E+00 -0.00000000000E+00 -0.18436838206E+04  0.18436838206E+04  0.00000000000E+00 0.  1.
         23    2    1    2    0    0  0.81503089666E+02  0.14466422821E+04  0.11269158359E+04  0.18377953424E+04  0.90198522048E+02 0.  0.
         11    1    3    3    0    0  0.96199145739E+02  0.96056470161E+03  0.75800866835E+03  0.12274021195E+04  0.00000000000E+00 0. -1.
        -11    1    3    3    0    0 -0.14696056073E+02  0.48607758045E+03  0.36890716756E+03  0.61039322290E+03  0.00000000000E+00 0.  1.
         22    1    1    2    0    0 -0.81503089666E+02 -0.14466422821E+04 -0.11355773422E+04  0.18409107925E+04  0.00000000000E+00 0.  1.
<mgrwt>
<rscale>  0 0.36786959E+04</rscale>
<asrwt>0</asrwt>
<pdfrwt beam="1">  1        2 0.28231113E+00 0.36786959E+04</pdfrwt>
<pdfrwt beam="2">  1       -2 0.28364366E+00 0.36786959E+04</pdfrwt>
<totfact> 0.26735022E-01</totfact>
</mgrwt>
</event>
<event>
 6    1  0.1885829E-005  0.1013287E+04  0.7818608E-02  0.9294091E-01
         -2   -1    0    0    0  501 -0.00000000000E+00  0.00000000000E+00  0.57065380682E+02  0.57065380682E+02  0.00000000000E+00 0.  1.
          2   -1    0    0  501    0  0.00000000000E+00 -0.00000000000E+00 -0.44981342277E+04  0.44981342277E+04  0.00000000000E+00 0. -1.
         23    2    1    2    0    0  0.39764016926E+03 -0.12752502986E+03 -0.34955545118E+04  0.35215760330E+04  0.90642561142E+02 0.  0.
         13    1    3    3    0    0  0.30711980082E+02 -0.19703015802E+02 -0.56424053531E+03  0.56541915093E+03  0.00000000000E+00 0. -1.
        -13    1    3    3    0    0  0.36692818918E+03 -0.10782201406E+03 -0.29313139765E+04  0.29561568821E+04  0.00000000000E+00 0.  1.
         22    1    1    2    0    0 -0.39764016926E+03  0.12752502986E+03 -0.94551433520E+03  0.10336235754E+04  0.00000000000E+00 0.  1.
<mgrwt>
<rscale>  0 0.10132872E+04</rscale>
<asrwt>0</asrwt>
<pdfrwt beam="1">  1        2 0.69202046E+00 0.10132872E+04</pdfrwt>
<pdfrwt beam="2">  1       -2 0.87792917E-02 0.10132872E+04</pdfrwt>
<totfact> 0.11313720E+01</totfact>
</mgrwt>
</event>
<event>
 6    1  0.1885829E-005  0.9609657E+03  0.7818608E-02  0.9352424E-01
          4   -1    0    0  501    0  0.00000000000E+00  0.00000000000E+00  0.37979296171E+03  0.37979296171E+03  0.00000000000E+00 0. -1.
         -4   -1    0    0    0  501 -0.00000000000E+00 -0.00000000000E+00 -0.60786740257E+03  0.60786740257E+03  0.00000000000E+00 0.  1.
         23    2    1    2    0    0 -0.30792030896E+03  0.30702134761E+03  0.85991506075E+02  0.45127016714E+03  0.84694746442E+02 0.  0.
         13    1    3    3    0    0 -0.23912675338E+03  0.18784313271E+03  0.43037115834E+02  0.30711372491E+03  0.00000000000E+00 0.  1.
        -13    1    3    3    0    0 -0.68793555587E+02  0.11917821490E+03  0.42954390241E+02  0.14415644223E+03  0.00000000000E+00 0. -1.
         22    1    1    2    0    0  0.30792030896E+03 -0.30702134761E+03 -0.31406594693E+03  0.53639019713E+03  0.00000000000E+00 0.  1.
<mgrwt>
<rscale>  0 0.96096568E+03</rscale>
<asrwt>0</asrwt>
<pdfrwt beam="1">  1        4 0.58429687E-01 0.96096568E+03</pdfrwt>
<pdfrwt beam="2">  1       -4 0.93518061E-01 0.96096568E+03</pdfrwt>
<totfact> 0.53331520E+00</totfact>
</mgrwt>
</event>
<event>
 6    1  0.1885829E-005  0.2216311E+04  0.7818608E-02  0.8511670E-01
          2   -1    0    0  501    0  0.00000000000E+00  0.00000000000E+00  0.17218854707E+04  0.17218854707E+04  0.00000000000E+00 0. -1.
         -2   -1    0    0    0  501 -0.00000000000E+00 -0.00000000000E+00 -0.71317692755E+03  0.71317692755E+03  0.00000000000E+00 0.  1.
         23    2    1    2    0    0  0.93029236876E+03 -0.59123742505E+03  0.60813230819E+03  0.12622593866E+04  0.92023206851E+02 0.  0.
         13    1    3    3    0    0  0.70655632243E+03 -0.47951168545E+03  0.43699922600E+03  0.95922969969E+03  0.00000000000E+00 0.  1.
        -13    1    3    3    0    0  0.22373604633E+03 -0.11172573960E+03  0.17113308219E+03  0.30302968689E+03  0.00000000000E+00 0. -1.
         22    1    1    2    0    0 -0.93029236876E+03  0.59123742505E+03  0.40057623495E+03  0.11728030117E+04  0.00000000000E+00 0. -1.
<mgrwt>
<rscale>  0 0.22163113E+04</rscale>
<asrwt>0</asrwt>
<pdfrwt beam="1">  1        2 0.26490545E+00 0.22163113E+04</pdfrwt>
<pdfrwt beam="2">  1       -2 0.10971953E+00 0.22163113E+04</pdfrwt>
<totfact> 0.57548231E+00</totfact>
</mgrwt>
</event>
<event>
 6    1  0.1885829E-005  0.1641327E+04  0.7818608E-02  0.8795554E-01
          2   -1    0    0  501    0  0.00000000000E+00  0.00000000000E+00  0.11438077212E+04  0.11438077212E+04  0.00000000000E+00 0. -1.
         -2   -1    0    0    0  501 -0.00000000000E+00 -0.00000000000E+00 -0.58881293708E+03  0.58881293708E+03  0.00000000000E+00 0.  1.
         23    2    1    2    0    0  0.58281213259E+03  0.14329902864E+03  0.86531056967E+03  0.10569724655E+04  0.90685265853E+02 0.  0.
         11    1    3    3    0    0  0.56553528262E+03  0.12759210501E+03  0.80286311786E+03  0.99030252305E+03  0.00000000000E+00 0.  1.
        -11    1    3    3    0    0  0.17276849973E+02  0.15706923622E+02  0.62447451811E+02  0.66669942496E+02  0.00000000000E+00 0. -1.
         22    1    1    2    0    0 -0.58281213259E+03 -0.14329902864E+03 -0.31031578558E+03  0.67564819269E+03  0.00000000000E+00 0.  1.
<mgrwt>
<rscale>  0 0.16413272E+04</rscale>
<asrwt>0</asrwt>
<pdfrwt beam="1">  1        2 0.17597042E+00 0.16413272E+04</pdfrwt>
<pdfrwt beam="2">  1       -2 0.90586606E-01 0.16413272E+04</pdfrwt>
<totfact> 0.20383432E+01</totfact>
</mgrwt>
</event>
<event>
 6    1  0.1885829E-005  0.3414137E+04  0.7818608E-02  0.8134445E-01
         -1   -1    0    0    0  501 -0.00000000000E+00  0.00000000000E+00  0.81194289310E+03  0.81194289310E+03  0.00000000000E+00 0.  1.
          1   -1    0    0  501    0  0.00000000000E+00 -0.00000000000E+00 -0.35890233648E+04  0.35890233648E+04  0.00000000000E+00 0. -1.
         23    2    1    2    0    0  0.60881302393E+03  0.41624226378E+03 -0.33723027645E+04  0.34532318552E+04  0.92051018135E+02 0.  0.
         11    1    3    3    0    0  0.26849701465E+03  0.13815130288E+03 -0.12574025543E+04  0.12931502670E+04  0.00000000000E+00 0.  1.
        -11    1    3    3    0    0  0.34031600928E+03  0.27809096089E+03 -0.21149002102E+04  0.21600815882E+04  0.00000000000E+00 0. -1.
         22    1    1    2    0    0 -0.60881302393E+03 -0.41624226378E+03  0.59522229279E+03  0.94773440272E+03  0.00000000000E+00 0.  1.
<mgrwt>
<rscale>  0 0.34141365E+04</rscale>
<asrwt>0</asrwt>
<pdfrwt beam="1">  1        1 0.55215744E+00 0.34141365E+04</pdfrwt>
<pdfrwt beam="2">  1       -1 0.12491429E+00 0.34141365E+04</pdfrwt>
<totfact> 0.97631520E-02</totfact>
</mgrwt>
</event>
<event>
 6    1  0.1885829E-005  0.3508594E+04  0.7818608E-02  0.8111756E-01
         -2   -1    0    0    0  501 -0.00000000000E+00  0.00000000000E+00  0.14980435624E+04  0.14980435624E+04  0.00000000000E+00 0. -1.
          2   -1    0    0  501    0  0.00000000000E+00 -0.00000000000E+00 -0.20543850891E+04  0.20543850891E+04  0.00000000000E+00 0.  1.
         23    2    1    2    0    0 -0.51218319904E+03 -0.16731924512E+04 -0.16859472449E+03  0.17601529499E+04  0.88372042795E+02 0.  0.
         13    1    3    3    0    0 -0.26800511721E+03 -0.98423092572E+03 -0.12811196985E+03  0.10280807044E+04  0.00000000000E+00 0. -1.
        -13    1    3    3    0    0 -0.24417808183E+03 -0.68896152545E+03 -0.40482754649E+02  0.73207224549E+03  0.00000000000E+00 0.  1.
         22    1    1    2    0    0  0.51218319904E+03  0.16731924512E+04 -0.38774680222E+03  0.17922757016E+04  0.00000000000E+00 0.  1.
<mgrwt>
<rscale>  0 0.35085942E+04</rscale>
<asrwt>0</asrwt>
<pdfrwt beam="1">  1        2 0.31605924E+00 0.35085942E+04</pdfrwt>
<pdfrwt beam="2">  1       -2 0.23046824E+00 0.35085942E+04</pdfrwt>
<totfact> 0.43453135E-01</totfact>
</mgrwt>
</event>
<event>
 6    1  0.1885829E-005  0.1196008E+04  0.7818608E-02  0.9116358E-01
         -1   -1    0    0    0  501 -0.00000000000E+00  0.00000000000E+00  0.10893436650E+04  0.10893436650E+04  0.00000000000E+00 0.  1.
          1   -1    0    0  501    0  0.00000000000E+00 -0.00000000000E+00 -0.32827903468E+03  0.32827903468E+03  0.00000000000E+00 0. -1.
         23    2    1    2    0    0 -0.47907879142E+02 -0.49399495258E+03 -0.51527172916E+01  0.50470693038E+03  0.91522439988E+02 0.  0.
         11    1    3    3    0    0 -0.52412402461E+02 -0.16811585570E+03 -0.26588480885E+02  0.17809252703E+03  0.00000000000E+00 0. -1.
        -11    1    3    3    0    0  0.45045233184E+01 -0.32587909688E+03  0.21435763593E+02  0.32661440335E+03  0.00000000000E+00 0.  1.
         22    1    1    2    0    0  0.47907879142E+02  0.49399495258E+03  0.76621734765E+03  0.91291576933E+03  0.00000000000E+00 0.  1.
<mgrwt>
<rscale>  0 0.11960078E+04</rscale>
<asrwt>0</asrwt>
<pdfrwt beam="1">  1        1 0.50504467E-01 0.11960078E+04</pdfrwt>
<pdfrwt beam="2">  1       -1 0.16759133E+00 0.11960078E+04</pdfrwt>
<totfact> 0.19774527E+01</totfact>
</mgrwt>
</event>
<event>
 6    1  0.1885829E-005  0.6242299E+04  0.7818608E-02  0.7661065E-01
         -2   -1    0    0    0  501 -0.00000000000E+00  0.00000000000E+00  0.22270787267E+04  0.22270787267E+04  0.00000000000E+00 0. -1.
          2   -1    0    0  501    0  0.00000000000E+00 -0.00000000000E+00 -0.43741486687E+04  0.43741486687E+04  0.00000000000E+00 0.  1.
         23    2    1    2    0    0 -0.71852148003E+03 -0.13118692730E+04  0.18223447491E+04  0.23593496158E+04  0.91192755446E+02 0.  0.
         13    1    3    3    0    0 -0.14836709334E+03 -0.30273880874E+03  0.46715794996E+03  0.57610774246E+03  0.00000000000E+00 0. -1.
        -13    1    3    3    0    0 -0.57015438669E+03 -0.10091304642E+04  0.13551867991E+04  0.17832418734E+04  0.00000000000E+00 0.  1.
         22    1    1    2    0    0  0.71852148003E+03  0.13118692730E+04 -0.39694146911E+04  0.42418777796E+04  0.00000000000E+00 0.  1.
<mgrwt>
<rscale>  0 0.62422988E+04</rscale>
<asrwt>0</asrwt>
<pdfrwt beam="1">  1        2 0.67294594E+00 0.62422988E+04</pdfrwt>
<pdfrwt beam="2">  1       -2 0.34262750E+00 0.62422988E+04</pdfrwt>
<totfact> 0.18371002E-03</totfact>
</mgrwt>
</event>
<event>
 6    1  0.1885829E-005  0.5766371E+03  0.7818608E-02  0.9955098E-01
          2   -1    0    0  501    0  0.00000000000E+00  0.00000000000E+00  0.31304977730E+03  0.31304977730E+03  0.00000000000E+00 0. -1.
         -2   -1    0    0    0  501 -0.00000000000E+00 -0.00000000000E+00 -0.26554114082E+03  0.26554114082E+03  0.00000000000E+00 0.  1.
         23    2    1    2    0    0  0.27903485898E+03  0.33365987043E+02  0.35790913005E+02  0.29732405790E+03  0.90259981932E+02 0.  0.
         11    1    3    3    0    0  0.17793540096E+03  0.50528468624E+02 -0.95161779845E+01  0.18521525504E+03  0.00000000000E+00 0.  1.
        -11    1    3    3    0    0  0.10109945802E+03 -0.17162481582E+02  0.45307090989E+02  0.11210880287E+03  0.00000000000E+00 0. -1.
         22    1    1    2    0    0 -0.27903485898E+03 -0.33365987043E+02  0.11717723475E+02  0.28126686022E+03  0.00000000000E+00 0. -1.
<mgrwt>
<rscale>  0 0.57663713E+03</rscale>
<asrwt>0</asrwt>
<pdfrwt beam="1">  1        2 0.48161505E-01 0.57663713E+03</pdfrwt>
<pdfrwt beam="2">  1       -2 0.40852483E-01 0.57663713E+03</pdfrwt>
<totfact> 0.59827572E+02</totfact>
</mgrwt>
</event>
<event>
 6    1  0.1885829E-005  0.1561732E+04  0.7818608E-02  0.8844409E-01
          2   -1    0    0  501    0  0.00000000000E+00  0.00000000000E+00  0.50943219572E+03  0.50943219572E+03  0.00000000000E+00 0. -1.
         -2   -1    0    0    0  501 -0.00000000000E+00 -0.00000000000E+00 -0.11969236051E+04  0.11969236051E+04  0.00000000000E+00 0.  1.
         23    2    1    2    0    0  0.52111417473E+03 -0.53053750486E+03 -0.59599606724E+03  0.95708854224E+03  0.88188085042E+02 0.  0.
         11    1    3    3    0    0  0.29490616359E+03 -0.35903351592E+03 -0.38457789368E+03  0.60313751930E+03  0.00000000000E+00 0.  1.
        -11    1    3    3    0    0  0.22620801114E+03 -0.17150398893E+03 -0.21141817356E+03  0.35395102294E+03  0.00000000000E+00 0. -1.
         22    1    1    2    0    0 -0.52111417473E+03  0.53053750486E+03 -0.91495342162E+02  0.74926725860E+03  0.00000000000E+00 0.  1.
<mgrwt>
<rscale>  0 0.15617316E+04</rscale>
<asrwt>0</asrwt>
<pdfrwt beam="1">  1        2 0.78374185E-01 0.15617316E+04</pdfrwt>
<pdfrwt beam="2">  1       -2 0.18414209E+00 0.15617316E+04</pdfrwt>
<totfact> 0.98300287E+00</totfact>
</mgrwt>
</event>
<event>
 6    1  0.1885829E-005  0.2122195E+04  0.7818608E-02  0.8551529E-01
         -2   -1    0    0    0  501 -0.00000000000E+00  0.00000000000E+00  0.28489141180E+03  0.28489141180E+03  0.00000000000E+00 0. -1.
          2   -1    0    0  501    0  0.00000000000E+00 -0.00000000000E+00 -0.39521303189E+04  0.39521303189E+04  0.00000000000E+00 0.  1.
         23    2    1    2    0    0 -0.71400271048E+03  0.76436025216E+03 -0.15028499356E+04  0.18331444282E+04  0.88397397910E+02 0.  0.
         11    1    3    3    0    0 -0.53121088327E+03  0.57708804164E+03 -0.11904553679E+04  0.14256225283E+04  0.00000000000E+00 0.  1.
        -11    1    3    3    0    0 -0.18279182721E+03  0.18727221052E+03 -0.31239456770E+03  0.40752189985E+03  0.00000000000E+00 0. -1.
         22    1    1    2    0    0  0.71400271048E+03 -0.76436025216E+03 -0.21643889715E+04  0.24038773026E+04  0.00000000000E+00 0.  1.
<mgrwt>
<rscale>  0 0.21221951E+04</rscale>
<asrwt>0</asrwt>
<pdfrwt beam="1">  1        2 0.60802002E+00 0.21221951E+04</pdfrwt>
<pdfrwt beam="2">  1       -2 0.43829450E-01 0.21221951E+04</pdfrwt>
<totfact> 0.17111082E+00</totfact>
</mgrwt>
</event>
<event>
 6    1  0.1885829E-005  0.2569209E+04  0.7818608E-02  0.8378736E-01
          2   -1    0    0  501    0  0.00000000000E+00  0.00000000000E+00  0.22687141026E+04  0.22687141026E+04  0.00000000000E+00 0.  1.
         -2   -1    0    0    0  501 -0.00000000000E+00 -0.00000000000E+00 -0.72737637886E+03  0.72737637886E+03  0.00000000000E+00 0. -1.
         23    2    1    2    0    0 -0.54949432946E+03  0.93087710891E+03  0.15780750337E+04  0.19145056073E+04  0.80837482023E+02 0.  0.
         11    1    3    3    0    0 -0.29870775193E+03  0.56089296333E+03  0.97620894241E+03  0.11648223627E+04  0.00000000000E+00 0.  1.
        -11    1    3    3    0    0 -0.25078657752E+03  0.36998414557E+03  0.60186609129E+03  0.74968324463E+03  0.00000000000E+00 0. -1.
         22    1    1    2    0    0  0.54949432946E+03 -0.93087710891E+03 -0.36737309976E+02  0.10815848741E+04  0.00000000000E+00 0. -1.
<mgrwt>
<rscale>  0 0.25692093E+04</rscale>
<asrwt>0</asrwt>
<pdfrwt beam="1">  1        2 0.34903294E+00 0.25692093E+04</pdfrwt>
<pdfrwt beam="2">  1       -2 0.11190406E+00 0.25692093E+04</pdfrwt>
<totfact> 0.26389682E+00</totfact>
</mgrwt>
</event>
<event>
 6    1  0.1885829E-005  0.6739556E+03  0.7818608E-02  0.9762838E-01
         -2   -1    0    0    0  501 -0.00000000000E+00  0.00000000000E+00  0.80118365743E+02  0.80118365743E+02  0.00000000000E+00 0.  1.
          2   -1    0    0  501    0  0.00000000000E+00 -0.00000000000E+00 -0.14173286176E+04  0.14173286176E+04  0.00000000000E+00 0. -1.
         23    2    1    2    0    0 -0.25492602517E+03  0.65960498308E+02 -0.23526139669E+03  0.36447330975E+03  0.90303948453E+02 0.  0.
         11    1    3    3    0    0 -0.21000136601E+03  0.80996894805E+02 -0.21990255165E+03  0.31467157946E+03  0.00000000000E+00 0.  1.
        -11    1    3    3    0    0 -0.44924659152E+02 -0.15036396497E+02 -0.15358845039E+02  0.49801730296E+02  0.00000000000E+00 0. -1.
         22    1    1    2    0    0  0.25492602517E+03 -0.65960498308E+02 -0.11019488552E+04  0.11329736736E+04  0.00000000000E+00 0. -1.
<mgrwt>
<rscale>  0 0.67395564E+03</rscale>
<asrwt>0</asrwt>
<pdfrwt beam="1">  1        2 0.21805055E+00 0.67395564E+03</pdfrwt>
<pdfrwt beam="2">  1       -2 0.12325903E-01 0.67395564E+03</pdfrwt>
<totfact> 0.69844856E+02</totfact>
</mgrwt>
</event>
<event>
 6    1  0.1885829E-005  0.8848740E+03  0.7818608E-02  0.9444690E-01
         -2   -1    0    0    0  501 -0.00000000000E+00  0.00000000000E+00  0.22992062230E+03  0.22992062230E+03  0.00000000000E+00 0.  1.
          2   -1    0    0  501    0  0.00000000000E+00 -0.00000000000E+00 -0.85138299990E+03  0.85138299990E+03  0.00000000000E+00 0. -1.
         23    2    1    2    0    0 -0.35437048595E+03  0.25358409653E+03 -0.37472178206E+03  0.58053994858E+03  0.82017575018E+02 0.  0.
         11    1    3    3    0    0 -0.22199195138E+03  0.11154943145E+03 -0.19290030372E+03  0.31453812060E+03  0.00000000000E+00 0. -1.
        -11    1    3    3    0    0 -0.13237853457E+03  0.14203466508E+03 -0.18182147834E+03  0.26600182797E+03  0.00000000000E+00 0.  1.
         22    1    1    2    0    0  0.35437048595E+03 -0.25358409653E+03 -0.24674059554E+03  0.50076367362E+03  0.00000000000E+00 0.  1.
<mgrwt>
<rscale>  0 0.88487402E+03</rscale>
<asrwt>0</asrwt>
<pdfrwt beam="1">  1        2 0.13098200E+00 0.88487402E+03</pdfrwt>
<pdfrwt beam="2">  1       -2 0.35372403E-01 0.88487402E+03</pdfrwt>
<totfact> 0.23827448E+02</totfact>
</mgrwt>
</event>
<event>
 6    1  0.1885829E-005  0.3874742E+04  0.7818608E-02  0.8030303E-01
          2   -1    0    0  501    0  0.00000000000E+00  0.00000000000E+00  0.21239578952E+04  0.21239578952E+04  0.00000000000E+00 0. -1.
         -2   -1    0    0    0  501 -0.00000000000E+00 -0.00000000000E+00 -0.17671755614E+04  0.17671755614E+04  0.00000000000E+00 0.  1.
         23    2    1    2    0    0 -0.51652969608E+03 -0.13104503195E+04 -0.11557845564E+04  0.18242658837E+04  0.89582962030E+02 0.  0.
         13    1    3    3    0    0 -0.42136046733E+03 -0.98911235006E+03 -0.84909005695E+03  0.13699787624E+04  0.00000000000E+00 0.  1.
        -13    1    3    3    0    0 -0.95169228748E+02 -0.32133796939E+03 -0.30669449940E+03  0.45428712136E+03  0.00000000000E+00 0. -1.
         22    1    1    2    0    0  0.51652969608E+03  0.13104503195E+04  0.15125668902E+04  0.20668675729E+04  0.00000000000E+00 0. -1.
<mgrwt>
<rscale>  0 0.38747420E+04</rscale>
<asrwt>0</asrwt>
<pdfrwt beam="1">  1        2 0.32676275E+00 0.38747420E+04</pdfrwt>
<pdfrwt beam="2">  1       -2 0.27187316E+00 0.38747420E+04</pdfrwt>
<totfact> 0.21434682E-01</totfact>
</mgrwt>
</event>
<event>
 6    1  0.1885829E-005  0.1837922E+04  0.7818608E-02  0.8686389E-01
         -2   -1    0    0    0  501 -0.00000000000E+00  0.00000000000E+00  0.78409018539E+03  0.78409018539E+03  0.00000000000E+00 0.  1.
          2   -1    0    0  501    0  0.00000000000E+00 -0.00000000000E+00 -0.10770304718E+04  0.10770304718E+04  0.00000000000E+00 0. -1.
         23    2    1    2    0    0 -0.20915823901E+03 -0.83468032606E+03 -0.46617519245E+03  0.98336855757E+03  0.96208078100E+02 0.  0.
         13    1    3    3    0    0 -0.80902592012E+02 -0.48375243168E+03 -0.23354131062E+03  0.54323400880E+03  0.00000000000E+00 0. -1.
        -13    1    3    3    0    0 -0.12825564700E+03 -0.35092789439E+03 -0.23263388183E+03  0.44013454877E+03  0.00000000000E+00 0.  1.
         22    1    1    2    0    0  0.20915823901E+03  0.83468032606E+03  0.17323490607E+03  0.87775209959E+03  0.00000000000E+00 0.  1.
<mgrwt>
<rscale>  0 0.18379217E+04</rscale>
<asrwt>0</asrwt>
<pdfrwt beam="1">  1        2 0.16569699E+00 0.18379217E+04</pdfrwt>
<pdfrwt beam="2">  1       -2 0.12062926E+00 0.18379217E+04</pdfrwt>
<totfact> 0.11107380E+01</totfact>
</mgrwt>
</event>
<event>
 6    1  0.1885829E-005  0.2436622E+04  0.7818608E-02  0.8425919E-01
         -2   -1    0    0    0  501 -0.00000000000E+00  0.00000000000E+00  0.47949215567E+03  0.47949215567E+03  0.00000000000E+00 0. -1.
          2   -1    0    0  501    0  0.00000000000E+00 -0.00000000000E+00 -0.30955296713E+04  0.30955296713E+04  0.00000000000E+00 0.  1.
         23    2    1    2    0    0 -0.95380835120E+03 -0.65004990221E+03 -0.18742072475E+04  0.22029331298E+04  0.89142142705E+02 0.  0.
         11    1    3    3    0    0 -0.23870491124E+03 -0.19415672666E+03 -0.44410289352E+03  0.54028163877E+03  0.00000000000E+00 0. -1.
        -11    1    3    3    0    0 -0.71510343996E+03 -0.45589317554E+03 -0.14301043540E+04  0.16626514910E+04  0.00000000000E+00 0.  1.
         22    1    1    2    0    0  0.95380835120E+03  0.65004990221E+03 -0.74183026813E+03  0.13720886972E+04  0.00000000000E+00 0. -1.
<mgrwt>
<rscale>  0 0.24366224E+04</rscale>
<asrwt>0</asrwt>
<pdfrwt beam="1">  1        2 0.47623534E+00 0.24366224E+04</pdfrwt>
<pdfrwt beam="2">  1       -2 0.73768023E-01 0.24366224E+04</pdfrwt>
<totfact> 0.22508197E+00</totfact>
</mgrwt>
</event>
<event>
 6    1  0.1885829E-005  0.4505332E+04  0.7818608E-02  0.7909704E-01
          2   -1    0    0  501    0  0.00000000000E+00  0.00000000000E+00  0.14538437156E+04  0.14538437156E+04  0.00000000000E+00 0. -1.
         -2   -1    0    0    0  501 -0.00000000000E+00 -0.00000000000E+00 -0.34904060145E+04  0.34904060145E+04  0.00000000000E+00 0.  1.
         23    2    1    2    0    0 -0.12862176645E+04  0.17685215853E+04 -0.16079870502E+04  0.27158643905E+04  0.90953591486E+02 0.  0.
         13    1    3    3    0    0 -0.68023153441E+03  0.86076151090E+03 -0.79108654155E+03  0.13525691240E+04  0.00000000000E+00 0.  1.
        -13    1    3    3    0    0 -0.60598613006E+03  0.90776007442E+03 -0.81690050863E+03  0.13632952665E+04  0.00000000000E+00 0. -1.
         22    1    1    2    0    0  0.12862176645E+04 -0.17685215853E+04 -0.42857524869E+03  0.22283853396E+04  0.00000000000E+00 0. -1.
<mgrwt>
<rscale>  0 0.45053323E+04</rscale>
<asrwt>0</asrwt>
<pdfrwt beam="1">  1        2 0.22366826E+00 0.45053323E+04</pdfrwt>
<pdfrwt beam="2">  1       -2 0.53698554E+00 0.45053323E+04</pdfrwt>
<totfact> 0.10276619E-02</totfact>
</mgrwt>
</event>
<event>
 6    1  0.1885829E-005  0.1349746E+04  0.7818608E-02  0.8991020E-01
         -1   -1    0    0    0  501 -0.00000000000E+00  0.00000000000E+00  0.89441421921E+03  0.89441421921E+03  0.00000000000E+00 0.  1.
          1   -1    0    0  501    0  0.00000000000E+00 -0.00000000000E+00 -0.50922007858E+03  0.50922007858E+03  0.00000000000E+00 0. -1.
         23    2    1    2    0    0  0.42517690099E+03  0.44511071798E+03  0.47328587114E+03  0.78181511073E+03  0.91303905483E+02 0.  0.
         11    1    3    3    0    0  0.24948821989E+03  0.21352935238E+03  0.29049472906E+03  0.43843624828E+03  0.00000000000E+00 0. -1.
        -11    1    3    3    0    0  0.17568868110E+03  0.23158136560E+03  0.18279114208E+03  0.34337886245E+03  0.00000000000E+00 0.  1.
         22    1    1    2    0    0 -0.42517690099E+03 -0.44511071798E+03 -0.88091730506E+02  0.62181918705E+03  0.00000000000E+00 0. -1.
<mgrwt>
<rscale>  0 0.13497462E+04</rscale>
<asrwt>0</asrwt>
<pdfrwt beam="1">  1        1 0.78341551E-01 0.13497462E+04</pdfrwt>
<pdfrwt beam="2">  1       -1 0.13760219E+00 0.13497462E+04</pdfrwt>
<totfact> 0.18551482E+01</totfact>
</mgrwt>
</event>
<event>
 6    1  0.1885829E-005  0.1546088E+04  0.7818608E-02  0.8854370E-01
         -2   -1    0    0    0  501 -0.00000000000E+00  0.00000000000E+00  0.35067745720E+03  0.35067745720E+03  0.00000000000E+00 0.  1.
          2   -1    0    0  501    0  0.00000000000E+00 -0.00000000000E+00 -0.17041221140E+04  0.17041221140E+04  0.00000000000E+00 0. -1.
         23    2    1    2    0    0  0.37723623757E+03 -0.52865092397E+03 -0.12297854812E+04  0.13936864417E+04  0.90612303024E+02 0.  0.
         13    1    3    3    0    0  0.17070797596E+03 -0.26994697914E+03 -0.51557595777E+03  0.60649085140E+03  0.00000000000E+00 0.  1.
        -13    1    3    3    0    0  0.20652826161E+03 -0.25870394483E+03 -0.71420952346E+03  0.78719559025E+03  0.00000000000E+00 0. -1.
         22    1    1    2    0    0 -0.37723623757E+03  0.52865092397E+03 -0.12365917557E+03  0.66111312954E+03  0.00000000000E+00 0. -1.
<mgrwt>
<rscale>  0 0.15460882E+04</rscale>
<asrwt>0</asrwt>
<pdfrwt beam="1">  1        2 0.26217263E+00 0.15460882E+04</pdfrwt>
<pdfrwt beam="2">  1       -2 0.53950378E-01 0.15460882E+04</pdfrwt>
<totfact> 0.30391363E+01</totfact>
</mgrwt>
</event>
<event>
 6    1  0.1885829E-005  0.1796119E+04  0.7818608E-02  0.8708366E-01
          1   -1    0    0  501    0  0.00000000000E+00  0.00000000000E+00  0.72699011000E+03  0.72699011000E+03  0.00000000000E+00 0. -1.
         -1   -1    0    0    0  501 -0.00000000000E+00 -0.00000000000E+00 -0.11093831851E+04  0.11093831851E+04  0.00000000000E+00 0.  1.
         23    2    1    2    0    0  0.36324752010E+03  0.24939048416E+03  0.60554071058E+03  0.75463509234E+03  0.93006429808E+02 0.  0.
         11    1    3    3    0    0  0.15834535787E+03  0.15824674465E+03  0.33978946283E+03  0.40690559544E+03  0.00000000000E+00 0.  1.
        -11    1    3    3    0    0  0.20490216223E+03  0.91143739511E+02  0.26575124774E+03  0.34772949690E+03  0.00000000000E+00 0. -1.
         22    1    1    2    0    0 -0.36324752010E+03 -0.24939048416E+03 -0.98793378571E+03  0.10817382028E+04  0.00000000000E+00 0.  1.
<mgrwt>
<rscale>  0 0.17961187E+04</rscale>
<asrwt>0</asrwt>
<pdfrwt beam="1">  1        1 0.11184463E+00 0.17961187E+04</pdfrwt>
<pdfrwt beam="2">  1       -1 0.17067434E+00 0.17961187E+04</pdfrwt>
<totfact> 0.59029891E+00</totfact>
</mgrwt>
</event>
<event>
 6    1  0.1885829E-005  0.3899667E+04  0.7818608E-02  0.8025098E-01
         -2   -1    0    0    0  501 -0.00000000000E+00  0.00000000000E+00  0.21599142667E+04  0.21599142667E+04  0.00000000000E+00 0.  1.
          2   -1    0    0  501    0  0.00000000000E+00 -0.00000000000E+00 -0.17601860333E+04  0.17601860333E+04  0.00000000000E+00 0. -1.
         23    2    1    2    0    0 -0.71488543905E+03  0.39176100410E+03  0.19793157348E+04  0.21425642103E+04  0.91393337759E+02 0.  0.
         11    1    3    3    0    0 -0.44231366767E+03  0.29122375371E+03  0.12554182305E+04  0.13625445273E+04  0.00000000000E+00 0. -1.
        -11    1    3    3    0    0 -0.27257177138E+03  0.10053725039E+03  0.72389750427E+03  0.78001968306E+03  0.00000000000E+00 0.  1.
         22    1    1    2    0    0  0.71488543905E+03 -0.39176100410E+03 -0.15795875014E+04  0.17775360896E+04  0.00000000000E+00 0. -1.
<mgrwt>
<rscale>  0 0.38996671E+04</rscale>
<asrwt>0</asrwt>
<pdfrwt beam="1">  1        2 0.27079785E+00 0.38996671E+04</pdfrwt>
<pdfrwt beam="2">  1       -2 0.33229450E+00 0.38996671E+04</pdfrwt>
<totfact> 0.14502239E-01</totfact>
</mgrwt>
</event>
<event>
 6    1  0.1885829E-005  0.3304963E+04  0.7818608E-02  0.8161634E-01
         -2   -1    0    0    0  501 -0.00000000000E+00  0.00000000000E+00  0.22679070491E+04  0.22679070491E+04  0.00000000000E+00 0.  1.
          2   -1    0    0  501    0  0.00000000000E+00 -0.00000000000E+00 -0.12040597489E+04  0.12040597489E+04  0.00000000000E+00 0. -1.
         23    2    1    2    0    0  0.41440095526E+03  0.14401632902E+04  0.12607446009E+04  0.19604883823E+04  0.90770557700E+02 0.  0.
         13    1    3    3    0    0  0.32722689256E+03  0.10764173482E+04  0.89884997133E+03  0.14400288253E+04  0.00000000000E+00 0. -1.
        -13    1    3    3    0    0  0.87174062700E+02  0.36374594196E+03  0.36189462959E+03  0.52045955695E+03  0.00000000000E+00 0.  1.
         22    1    1    2    0    0 -0.41440095526E+03 -0.14401632902E+04 -0.19689730073E+03  0.15114784157E+04  0.00000000000E+00 0. -1.
<mgrwt>
<rscale>  0 0.33049633E+04</rscale>
<asrwt>0</asrwt>
<pdfrwt beam="1">  1        2 0.18523996E+00 0.33049633E+04</pdfrwt>
<pdfrwt beam="2">  1       -2 0.34890877E+00 0.33049633E+04</pdfrwt>
<totfact> 0.24845483E-01</totfact>
</mgrwt>
</event>
<event>
 6    1  0.1885829E-005  0.1479820E+04  0.7818608E-02  0.8897984E-01
         -2   -1    0    0    0  501 -0.00000000000E+00  0.00000000000E+00  0.24002959492E+03  0.24002959492E+03  0.00000000000E+00 0.  1.
          2   -1    0    0  501    0  0.00000000000E+00 -0.00000000000E+00 -0.22808306457E+04  0.22808306457E+04  0.00000000000E+00 0. -1.
         23    2    1    2    0    0  0.50569444122E+03  0.43663510068E+03 -0.49083389721E+03  0.83302871579E+03  0.81497531582E+02 0.  0.
         13    1    3    3    0    0  0.17789747748E+03  0.20592200544E+03 -0.19163182949E+03  0.33282749720E+03  0.00000000000E+00 0.  1.
        -13    1    3    3    0    0  0.32779696374E+03  0.23071309525E+03 -0.29920206772E+03  0.50020121860E+03  0.00000000000E+00 0. -1.
         22    1    1    2    0    0 -0.50569444122E+03 -0.43663510068E+03 -0.15499671536E+04  0.16878315248E+04  0.00000000000E+00 0. -1.
<mgrwt>
<rscale>  0 0.14798201E+04</rscale>
<asrwt>0</asrwt>
<pdfrwt beam="1">  1        2 0.35089703E+00 0.14798201E+04</pdfrwt>
<pdfrwt beam="2">  1       -2 0.36927629E-01 0.14798201E+04</pdfrwt>
<totfact> 0.31130522E+01</totfact>
</mgrwt>
</event>
<event>
 6    1  0.1885829E-005  0.3392827E+04  0.7818608E-02  0.8139669E-01
          2   -1    0    0  501    0  0.00000000000E+00  0.00000000000E+00  0.24285313463E+04  0.24285313463E+04  0.00000000000E+00 0. -1.
         -2   -1    0    0    0  501 -0.00000000000E+00 -0.00000000000E+00 -0.11850034908E+04  0.11850034908E+04  0.00000000000E+00 0.  1.
         23    2    1    2    0    0 -0.60551024792E+03 -0.46821247652E+03  0.22331473547E+04  0.23624503728E+04  0.91427962814E+02 0.  0.
         11    1    3    3    0    0 -0.25904771881E+03 -0.22875343409E+03  0.11288695505E+04  0.11805847349E+04  0.00000000000E+00 0. -1.
        -11    1    3    3    0    0 -0.34646252911E+03 -0.23945904243E+03  0.11042778042E+04  0.11818656379E+04  0.00000000000E+00 0.  1.
         22    1    1    2    0    0  0.60551024792E+03  0.46821247652E+03 -0.98961949925E+03  0.12510844643E+04  0.00000000000E+00 0.  1.
<mgrwt>
<rscale>  0 0.33928266E+04</rscale>
<asrwt>0</asrwt>
<pdfrwt beam="1">  1        2 0.37362021E+00 0.33928266E+04</pdfrwt>
<pdfrwt beam="2">  1       -2 0.18230823E+00 0.33928266E+04</pdfrwt>
<totfact> 0.55466955E-01</totfact>
</mgrwt>
</event>
<event>
 6    1  0.1885829E-005  0.4138592E+04  0.7818608E-02  0.7977157E-01
          2   -1    0    0  501    0  0.00000000000E+00  0.00000000000E+00  0.23381379094E+04  0.23381379094E+04  0.00000000000E+00 0. -1.
         -2   -1    0    0    0  501 -0.00000000000E+00 -0.00000000000E+00 -0.18313656236E+04  0.18313656236E+04  0.00000000000E+00 0.  1.
         23    2    1    2    0    0  0.11857696392E+04 -0.18339593843E+03  0.19507485990E+04  0.22920714303E+04  0.92128376842E+02 0.  0.
         13    1    3    3    0    0  0.34073701507E+03 -0.74560509798E+02  0.63662756938E+03  0.72591710625E+03  0.00000000000E+00 0.  1.
        -13    1    3    3    0    0  0.84503262415E+03 -0.10883542863E+03  0.13141210296E+04  0.15661543241E+04  0.00000000000E+00 0. -1.
         22    1    1    2    0    0 -0.11857696392E+04  0.18339593843E+03 -0.14439763132E+04  0.18774321028E+04  0.00000000000E+00 0.  1.
<mgrwt>
<rscale>  0 0.41385917E+04</rscale>
<asrwt>0</asrwt>
<pdfrwt beam="1">  1        2 0.35971352E+00 0.41385917E+04</pdfrwt>
<pdfrwt beam="2">  1       -2 0.28174856E+00 0.41385917E+04</pdfrwt>
<totfact> 0.13825467E-01</totfact>
</mgrwt>
</event>
<event>
 6    1  0.1885829E-005  0.3533616E+04  0.7818608E-02  0.8105869E-01
         -2   -1    0    0    0  501 -0.00000000000E+00  0.00000000000E+00  0.12196725720E+04  0.12196725720E+04  0.00000000000E+00 0.  1.
          2   -1    0    0  501    0  0.00000000000E+00 -0.00000000000E+00 -0.25593839685E+04  0.25593839685E+04  0.00000000000E+00 0. -1.
         23    2    1    2    0    0  0.11686432478E+04  0.10018713236E+04 -0.15954049111E+04  0.22186551938E+04  0.87411950245E+02 0.  0.
         11    1    3    3    0    0  0.85976868949E+03  0.76366342034E+03 -0.12367749252E+04  0.16887854318E+04  0.00000000000E+00 0.  1.
        -11    1    3    3    0    0  0.30887455827E+03  0.23820790321E+03 -0.35862998594E+03  0.52986976203E+03  0.00000000000E+00 0. -1.
         22    1    1    2    0    0 -0.11686432478E+04 -0.10018713236E+04  0.25569351455E+03  0.15604013467E+04  0.00000000000E+00 0.  1.
<mgrwt>
<rscale>  0 0.35336160E+04</rscale>
<asrwt>0</asrwt>
<pdfrwt beam="1">  1        2 0.39375138E+00 0.35336160E+04</pdfrwt>
<pdfrwt beam="2">  1       -2 0.18764194E+00 0.35336160E+04</pdfrwt>
<totfact> 0.42347059E-01</totfact>
</mgrwt>
</event>
<event>
 6    1  0.1885829E-005  0.1001025E+04  0.7818608E-02  0.9307421E-01
         -2   -1    0    0    0  501 -0.00000000000E+00  0.00000000000E+00  0.57338018509E+03  0.57338018509E+03  0.00000000000E+00 0.  1.
          2   -1    0    0  501    0  0.00000000000E+00 -0.00000000000E+00 -0.43690515877E+03  0.43690515877E+03  0.00000000000E+00 0. -1.
         23    2    1    2    0    0 -0.28528176732E+03 -0.39583951607E+03 -0.23336914682E+02  0.49685135031E+03  0.90785700804E+02 0.  0.
         11    1    3    3    0    0 -0.21157240822E+03 -0.21832602551E+03 -0.10149270925E+02  0.30419096803E+03  0.00000000000E+00 0.  1.
        -11    1    3    3    0    0 -0.73709359099E+02 -0.17751349056E+03 -0.13187643757E+02  0.19266038228E+03  0.00000000000E+00 0. -1.
         22    1    1    2    0    0  0.28528176732E+03  0.39583951607E+03  0.15981194099E+03  0.51343399355E+03  0.00000000000E+00 0.  1.
<mgrwt>
<rscale>  0 0.10010250E+04</rscale>
<asrwt>0</asrwt>
<pdfrwt beam="1">  1        2 0.67216178E-01 0.10010250E+04</pdfrwt>
<pdfrwt beam="2">  1       -2 0.88212336E-01 0.10010250E+04</pdfrwt>
<totfact> 0.79534917E+01</totfact>
</mgrwt>
</event>
<event>
 6    1  0.1885829E-005  0.2188536E+04  0.7818608E-02  0.8523215E-01
          2   -1    0    0  501    0  0.00000000000E+00  0.00000000000E+00  0.17060056218E+04  0.17060056218E+04  0.00000000000E+00 0. -1.
         -2   -1    0    0    0  501 -0.00000000000E+00 -0.00000000000E+00 -0.70188655320E+03  0.70188655320E+03  0.00000000000E+00 0.  1.
         23    2    1    2    0    0  0.84609657417E+03  0.59607622174E+03  0.88724704873E+03  0.13663330821E+04  0.92046133873E+02 0.  0.
         13    1    3    3    0    0  0.26107333915E+03  0.17468897715E+03  0.32537119997E+03  0.45226313682E+03  0.00000000000E+00 0. -1.
        -13    1    3    3    0    0  0.58502323502E+03  0.42138724459E+03  0.56187584876E+03  0.91406994526E+03  0.00000000000E+00 0.  1.
         22    1    1    2    0    0 -0.84609657417E+03 -0.59607622174E+03  0.11687201983E+03  0.10415590929E+04  0.00000000000E+00 0. -1.
<mgrwt>
<rscale>  0 0.21885360E+04</rscale>
<asrwt>0</asrwt>
<pdfrwt beam="1">  1        2 0.26246240E+00 0.21885360E+04</pdfrwt>
<pdfrwt beam="2">  1       -2 0.10798255E+00 0.21885360E+04</pdfrwt>
<totfact> 0.61182067E+00</totfact>
</mgrwt>
</event>
<event>
 6    1  0.1885829E-005  0.1195660E+04  0.7818608E-02  0.9116664E-01
         -2   -1    0    0    0  501 -0.00000000000E+00  0.00000000000E+00  0.19802002547E+03  0.19802002547E+03  0.00000000000E+00 0. -1.
          2   -1    0    0  501    0  0.00000000000E+00 -0.00000000000E+00 -0.18048722324E+04  0.18048722324E+04  0.00000000000E+00 0.  1.
         23    2    1    2    0    0 -0.20289788758E+03  0.14551299125E+03 -0.17114345892E+04  0.17321912085E+04  0.95584758889E+02 0.  0.
         13    1    3    3    0    0 -0.26314236260E+02  0.67990474018E+02 -0.38960640734E+03  0.39636888908E+03  0.00000000000E+00 0.  1.
        -13    1    3    3    0    0 -0.17658365132E+03  0.77522517237E+02 -0.13218281819E+04  0.13358223194E+04  0.00000000000E+00 0. -1.
         22    1    1    2    0    0  0.20289788758E+03 -0.14551299125E+03  0.10458238236E+03  0.27070104933E+03  0.00000000000E+00 0. -1.
<mgrwt>
<rscale>  0 0.11956602E+04</rscale>
<asrwt>0</asrwt>
<pdfrwt beam="1">  1        2 0.27767265E+00 0.11956602E+04</pdfrwt>
<pdfrwt beam="2">  1       -2 0.30464619E-01 0.11956602E+04</pdfrwt>
<totfact> 0.84355572E+01</totfact>
</mgrwt>
</event>
<event>
 6    1  0.1885829E-005  0.2923383E+04  0.7818608E-02  0.8265954E-01
         -2   -1    0    0    0  501 -0.00000000000E+00  0.00000000000E+00  0.21177322376E+04  0.21177322376E+04  0.00000000000E+00 0.  1.
          2   -1    0    0  501    0  0.00000000000E+00 -0.00000000000E+00 -0.10088822391E+04  0.10088822391E+04  0.00000000000E+00 0. -1.
         23    2    1    2    0    0  0.22578924031E+03 -0.11605606303E+04  0.14715665312E+04  0.18899071383E+04  0.91428541323E+02 0.  0.
         13    1    3    3    0    0  0.18190198523E+03 -0.70163724802E+03  0.89959867912E+03  0.11552752674E+04  0.00000000000E+00 0.  1.
        -13    1    3    3    0    0  0.43887255084E+02 -0.45892338228E+03  0.57196785206E+03  0.73463187090E+03  0.00000000000E+00 0. -1.
         22    1    1    2    0    0 -0.22578924031E+03  0.11605606303E+04 -0.36271653267E+03  0.12367073383E+04  0.00000000000E+00 0. -1.
<mgrwt>
<rscale>  0 0.29233833E+04</rscale>
<asrwt>0</asrwt>
<pdfrwt beam="1">  1        2 0.15521265E+00 0.29233833E+04</pdfrwt>
<pdfrwt beam="2">  1       -2 0.32580496E+00 0.29233833E+04</pdfrwt>
<totfact> 0.47197253E-01</totfact>
</mgrwt>
</event>
<event>
 6    1  0.1885829E-005  0.3297990E+04  0.7818608E-02  0.8163407E-01
         -1   -1    0    0    0  501 -0.00000000000E+00  0.00000000000E+00  0.10735183133E+04  0.10735183133E+04  0.00000000000E+00 0.  1.
          1   -1    0    0  501    0  0.00000000000E+00 -0.00000000000E+00 -0.25329644780E+04  0.25329644780E+04  0.00000000000E+00 0. -1.
         23    2    1    2    0    0  0.22811518500E+03  0.65469096254E+02 -0.25133398364E+04  0.25261982864E+04  0.92075560247E+02 0.  0.
         13    1    3    3    0    0  0.17293612171E+03  0.31101710663E+02 -0.14034956572E+04  0.14144519357E+04  0.00000000000E+00 0. -1.
        -13    1    3    3    0    0  0.55179063291E+02  0.34367385591E+02 -0.11098441792E+04  0.11117463507E+04  0.00000000000E+00 0.  1.
         22    1    1    2    0    0 -0.22811518500E+03 -0.65469096254E+02  0.10538936717E+04  0.10802845049E+04  0.00000000000E+00 0.  1.
<mgrwt>
<rscale>  0 0.32979895E+04</rscale>
<asrwt>0</asrwt>
<pdfrwt beam="1">  1        1 0.38968684E+00 0.32979895E+04</pdfrwt>
<pdfrwt beam="2">  1       -1 0.16515667E+00 0.32979895E+04</pdfrwt>
<totfact> 0.28490467E-01</totfact>
</mgrwt>
</event>
<event>
 6    1  0.1885829E-005  0.2811279E+04  0.7818608E-02  0.8299775E-01
         -2   -1    0    0    0  501 -0.00000000000E+00  0.00000000000E+00  0.61827505740E+03  0.61827505740E+03  0.00000000000E+00 0.  1.
          2   -1    0    0  501    0  0.00000000000E+00 -0.00000000000E+00 -0.31957023788E+04  0.31957023788E+04  0.00000000000E+00 0. -1.
         23    2    1    2    0    0 -0.74204657592E+03  0.43481915766E+03  0.21572435371E+03  0.89141056770E+03  0.91514931674E+02 0.  0.
         13    1    3    3    0    0 -0.38048790004E+03  0.24433118469E+03  0.70169444724E+02  0.45759427538E+03  0.00000000000E+00 0. -1.
        -13    1    3    3    0    0 -0.36155867588E+03  0.19048797297E+03  0.14555490899E+03  0.43381629232E+03  0.00000000000E+00 0.  1.
         22    1    1    2    0    0  0.74204657592E+03 -0.43481915766E+03 -0.27931516751E+04  0.29225668685E+04  0.00000000000E+00 0. -1.
<mgrwt>
<rscale>  0 0.28112795E+04</rscale>
<asrwt>0</asrwt>
<pdfrwt beam="1">  1        2 0.49164652E+00 0.28112795E+04</pdfrwt>
<pdfrwt beam="2">  1       -2 0.95119239E-01 0.28112795E+04</pdfrwt>
<totfact> 0.10539847E+00</totfact>
</mgrwt>
</event>
<event>
 6    1  0.1885829E-005  0.1572934E+04  0.7818608E-02  0.8837350E-01
         -2   -1    0    0    0  501 -0.00000000000E+00  0.00000000000E+00  0.59063223327E+03  0.59063223327E+03  0.00000000000E+00 0.  1.
          2   -1    0    0  501    0  0.00000000000E+00 -0.00000000000E+00 -0.10472346000E+04  0.10472346000E+04  0.00000000000E+00 0. -1.
         23    2    1    2    0    0  0.33726335082E+03  0.51389741157E+03 -0.73572613923E+03  0.96277632243E+03  0.88363893388E+02 0.  0.
         11    1    3    3    0    0  0.15814658763E+03  0.31698176918E+03 -0.44035238924E+03  0.56515308712E+03  0.00000000000E+00 0. -1.
        -11    1    3    3    0    0  0.17911676318E+03  0.19691564239E+03 -0.29537374999E+03  0.39762323531E+03  0.00000000000E+00 0.  1.
         22    1    1    2    0    0 -0.33726335082E+03 -0.51389741157E+03  0.27912377251E+03  0.67509051083E+03  0.00000000000E+00 0.  1.
<mgrwt>
<rscale>  0 0.15729342E+04</rscale>
<asrwt>0</asrwt>
<pdfrwt beam="1">  1        2 0.16111301E+00 0.15729342E+04</pdfrwt>
<pdfrwt beam="2">  1       -2 0.90866498E-01 0.15729342E+04</pdfrwt>
<totfact> 0.23348785E+01</totfact>
</mgrwt>
</event>
<event>
 6    1  0.1885829E-005  0.2303458E+04  0.7818608E-02  0.8476559E-01
          2   -1    0    0  501    0  0.00000000000E+00  0.00000000000E+00  0.21450394186E+04  0.21450394186E+04  0.00000000000E+00 0. -1.
         -2   -1    0    0    0  501 -0.00000000000E+00 -0.00000000000E+00 -0.61839431009E+03  0.61839431009E+03  0.00000000000E+00 0.  1.
         23    2    1    2    0    0  0.64248523949E+03 -0.76656786422E+03  0.14451488313E+04  0.17599123205E+04  0.91775039815E+02 0.  0.
         13    1    3    3    0    0  0.10404605453E+03 -0.13597622530E+03  0.31036849982E+03  0.35446258052E+03  0.00000000000E+00 0.  1.
        -13    1    3    3    0    0  0.53843918496E+03 -0.63059163892E+03  0.11347803314E+04  0.14054497400E+04  0.00000000000E+00 0. -1.
         22    1    1    2    0    0 -0.64248523949E+03  0.76656786422E+03  0.81496277230E+02  0.10035214082E+04  0.00000000000E+00 0.  1.
<mgrwt>
<rscale>  0 0.23034584E+04</rscale>
<asrwt>0</asrwt>
<pdfrwt beam="1">  1        2 0.33000606E+00 0.23034584E+04</pdfrwt>
<pdfrwt beam="2">  1       -2 0.95137587E-01 0.23034584E+04</pdfrwt>
<totfact> 0.46671081E+00</totfact>
</mgrwt>
</event>
<event>
 6    1  0.1885829E-005  0.2069520E+04  0.7818608E-02  0.8574790E-01
          2   -1    0    0  501    0  0.00000000000E+00  0.00000000000E+00  0.47488660573E+03  0.47488660573E+03  0.00000000000E+00 0. -1.
         -2   -1    0    0    0  501 -0.00000000000E+00 -0.00000000000E+00 -0.22547029016E+04  0.22547029016E+04  0.00000000000E+00 0.  1.
         23    2    1    2    0    0  0.77339903545E+03 -0.13170390424E+03 -0.17772650023E+04  0.19450523855E+04  0.95215058505E+02 0.  0.
         11    1    3    3    0    0  0.22571855949E+03 -0.33174010211E+01 -0.44805070470E+03  0.50170639545E+03  0.00000000000E+00 0. -1.
        -11    1    3    3    0    0  0.54768047596E+03 -0.12838650322E+03 -0.13292142976E+04  0.14433459900E+04  0.00000000000E+00 0.  1.
         22    1    1    2    0    0 -0.77339903545E+03  0.13170390424E+03 -0.25512935252E+01  0.78453712183E+03  0.00000000000E+00 0. -1.
<mgrwt>
<rscale>  0 0.20695200E+04</rscale>
<asrwt>0</asrwt>
<pdfrwt beam="1">  1        2 0.73059478E-01 0.20695200E+04</pdfrwt>
<pdfrwt beam="2">  1       -2 0.34687737E+00 0.20695200E+04</pdfrwt>
<totfact> 0.98509083E-01</totfact>
</mgrwt>
</event>
<event>
 6    1  0.1885829E-005  0.3067956E+04  0.7818608E-02  0.8224588E-01
          2   -1    0    0  501    0  0.00000000000E+00  0.00000000000E+00  0.27765408562E+04  0.27765408562E+04  0.00000000000E+00 0. -1.
         -2   -1    0    0    0  501 -0.00000000000E+00 -0.00000000000E+00 -0.84748897723E+03  0.84748897723E+03  0.00000000000E+00 0.  1.
         23    2    1    2    0    0  0.11711087064E+04  0.28803275956E+03 -0.15136976081E+03  0.12193234746E+04  0.96842442187E+02 0.  0.
         13    1    3    3    0    0  0.14991225857E+03  0.40189114921E+02 -0.52482161486E+02  0.16383902924E+03  0.00000000000E+00 0.  1.
        -13    1    3    3    0    0  0.10211964478E+04  0.24784364464E+03 -0.98887599324E+02  0.10554844454E+04  0.00000000000E+00 0. -1.
         22    1    1    2    0    0 -0.11711087064E+04 -0.28803275956E+03  0.20804216398E+04  0.24047063588E+04  0.00000000000E+00 0. -1.
<mgrwt>
<rscale>  0 0.30679555E+04</rscale>
<asrwt>0</asrwt>
<pdfrwt beam="1">  1        2 0.42716013E+00 0.30679555E+04</pdfrwt>
<pdfrwt beam="2">  1       -2 0.13038292E+00 0.30679555E+04</pdfrwt>
<totfact> 0.87632360E-01</totfact>
</mgrwt>
</event>
<event>
 6    1  0.1885829E-005  0.6579650E+04  0.7818608E-02  0.7622411E-01
         -2   -1    0    0    0  501 -0.00000000000E+00  0.00000000000E+00  0.36917607080E+04  0.36917607080E+04  0.00000000000E+00 0.  1.
          2   -1    0    0  501    0  0.00000000000E+00 -0.00000000000E+00 -0.29316491316E+04  0.29316491316E+04  0.00000000000E+00 0. -1.
         23    2    1    2    0    0 -0.12813728956E+04  0.13328915860E+04 -0.23583497236E+04  0.29980384990E+04  0.88909757516E+02 0.  0.
         13    1    3    3    0    0 -0.94735412556E+03  0.93313601906E+03 -0.17216020888E+04  0.21753474255E+04  0.00000000000E+00 0. -1.
        -13    1    3    3    0    0 -0.33401877007E+03  0.39975556693E+03 -0.63674763475E+03  0.82269107350E+03  0.00000000000E+00 0.  1.
         22    1    1    2    0    0  0.12813728956E+04 -0.13328915860E+04  0.31184613000E+04  0.36253713406E+04  0.00000000000E+00 0.  1.
<mgrwt>
<rscale>  0 0.65796496E+04</rscale>
<asrwt>0</asrwt>
<pdfrwt beam="1">  1        2 0.45102294E+00 0.65796496E+04</pdfrwt>
<pdfrwt beam="2">  1       -2 0.56796319E+00 0.65796496E+04</pdfrwt>
<totfact> 0.88212505E-04</totfact>
</mgrwt>
</event>
<event>
 6    1  0.1885829E-005  0.8727323E+03  0.7818608E-02  0.9460324E-01
         -2   -1    0    0    0  501 -0.00000000000E+00  0.00000000000E+00  0.89042789562E+02  0.89042789562E+02  0.00000000000E+00 0.  1.
          2   -1    0    0  501    0  0.00000000000E+00 -0.00000000000E+00 -0.21384710550E+04  0.21384710550E+04  0.00000000000E+00 0. -1.
         23    2    1    2    0    0 -0.33128060486E+03 -0.20849045312E+02 -0.17394855234E+04  0.17733706676E+04  0.94085688107E+02 0.  0.
         11    1    3    3    0    0 -0.33509688701E+02  0.60461380912E+01 -0.37343115850E+03  0.37498037970E+03  0.00000000000E+00 0. -1.
        -11    1    3    3    0    0 -0.29777091616E+03 -0.26895183404E+02 -0.13660543649E+04  0.13983902879E+04  0.00000000000E+00 0.  1.
         22    1    1    2    0    0  0.33128060486E+03  0.20849045312E+02 -0.30994274204E+03  0.45414317697E+03  0.00000000000E+00 0.  1.
<mgrwt>
<rscale>  0 0.87273233E+03</rscale>
<asrwt>0</asrwt>
<pdfrwt beam="1">  1        2 0.32899555E+00 0.87273233E+03</pdfrwt>
<pdfrwt beam="2">  1       -2 0.13698890E-01 0.87273233E+03</pdfrwt>
<totfact> 0.23211609E+02</totfact>
</mgrwt>
</event>
<event>
 6    1  0.2149501E-005  0.1721375E+04  0.7818608E-02  0.8749267E-01
          2   -1    0    0  501    0  0.00000000000E+00  0.00000000000E+00  0.13841763864E+04  0.13841763864E+04  0.00000000000E+00 0. -1.
         -2   -1    0    0    0  501 -0.00000000000E+00 -0.00000000000E+00 -0.53517950598E+03  0.53517950598E+03  0.00000000000E+00 0.  1.
         23    2    1    2    0    0 -0.32136575884E+02  0.26446005876E+03  0.13354955973E+04  0.13646912335E+04  0.88666737657E+02 0.  0.
         13    1    3    3    0    0 -0.49470505093E+02  0.17343994913E+03  0.71921561858E+03  0.74148489724E+03  0.00000000000E+00 0.  1.
        -13    1    3    3    0    0  0.17333929209E+02  0.91020109621E+02  0.61627997871E+03  0.62320633631E+03  0.00000000000E+00 0. -1.
         22    1    1    2    0    0  0.32136575884E+02 -0.26446005876E+03 -0.48649871689E+03  0.55466465880E+03  0.00000000000E+00 0.  1.
<mgrwt>
<rscale>  0 0.17213748E+04</rscale>
<asrwt>0</asrwt>
<pdfrwt beam="1">  1        2 0.21295021E+00 0.17213748E+04</pdfrwt>
<pdfrwt beam="2">  1       -2 0.82335309E-01 0.17213748E+04</pdfrwt>
<totfact> 0.18183409E+01</totfact>
</mgrwt>
</event>
<event>
 6    1  0.1885829E-005  0.3415709E+04  0.7818608E-02  0.8134062E-01
          2   -1    0    0  501    0  0.00000000000E+00  0.00000000000E+00  0.18727161956E+04  0.18727161956E+04  0.00000000000E+00 0. -1.
         -2   -1    0    0    0  501 -0.00000000000E+00 -0.00000000000E+00 -0.15575063205E+04  0.15575063205E+04  0.00000000000E+00 0.  1.
         23    2    1    2    0    0 -0.14151383942E+04  0.56759777447E+03 -0.61218612820E+03  0.16456084807E+04  0.92040795060E+02 0.  0.
         13    1    3    3    0    0 -0.34374816831E+03  0.17379515782E+03 -0.13087897238E+03  0.40681305966E+03  0.00000000000E+00 0.  1.
        -13    1    3    3    0    0 -0.10713902259E+04  0.39380261665E+03 -0.48130715582E+03  0.12387954211E+04  0.00000000000E+00 0. -1.
         22    1    1    2    0    0  0.14151383942E+04 -0.56759777447E+03  0.92739600325E+03  0.17846140353E+04  0.00000000000E+00 0. -1.
<mgrwt>
<rscale>  0 0.34157092E+04</rscale>
<asrwt>0</asrwt>
<pdfrwt beam="1">  1        2 0.28811018E+00 0.34157092E+04</pdfrwt>
<pdfrwt beam="2">  1       -2 0.23961636E+00 0.34157092E+04</pdfrwt>
<totfact> 0.48458440E-01</totfact>
</mgrwt>
</event>
<event>
 6    1  0.1885829E-005  0.1446662E+04  0.7818608E-02  0.8920718E-01
         -2   -1    0    0    0  501 -0.00000000000E+00  0.00000000000E+00  0.18133345720E+04  0.18133345720E+04  0.00000000000E+00 0. -1.
          2   -1    0    0  501    0  0.00000000000E+00 -0.00000000000E+00 -0.28853333709E+03  0.28853333709E+03  0.00000000000E+00 0.  1.
         23    2    1    2    0    0  0.20409460871E+03  0.33213900074E+03 -0.11499535278E+03  0.41636983016E+03  0.90382405296E+02 0.  0.
         13    1    3    3    0    0  0.12734127994E+03  0.27579301547E+03 -0.10105130259E+03  0.32013896157E+03  0.00000000000E+00 0.  1.
        -13    1    3    3    0    0  0.76753328771E+02  0.56345985266E+02 -0.13944050183E+02  0.96230868585E+02  0.00000000000E+00 0. -1.
         22    1    1    2    0    0 -0.20409460871E+03 -0.33213900074E+03  0.16397965877E+04  0.16854980789E+04  0.00000000000E+00 0. -1.
<mgrwt>
<rscale>  0 0.14466616E+04</rscale>
<asrwt>0</asrwt>
<pdfrwt beam="1">  1        2 0.44389745E-01 0.14466616E+04</pdfrwt>
<pdfrwt beam="2">  1       -2 0.27897454E+00 0.14466616E+04</pdfrwt>
<totfact> 0.47652545E+00</totfact>
</mgrwt>
</event>
<event>
 6    1  0.1885829E-005  0.2373020E+04  0.7818608E-02  0.8449674E-01
         -2   -1    0    0    0  501 -0.00000000000E+00  0.00000000000E+00  0.76046060552E+03  0.76046060552E+03  0.00000000000E+00 0.  1.
          2   -1    0    0  501    0  0.00000000000E+00 -0.00000000000E+00 -0.18512542017E+04  0.18512542017E+04  0.00000000000E+00 0. -1.
         23    2    1    2    0    0 -0.51593898934E+03  0.72802991994E+03  0.31155303061E+03  0.94954854997E+03  0.91414182783E+02 0.  0.
         13    1    3    3    0    0 -0.31382884245E+03  0.44874053394E+03  0.14382808691E+03  0.56616528306E+03  0.00000000000E+00 0.  1.
        -13    1    3    3    0    0 -0.20211014689E+03  0.27928938600E+03  0.16772494370E+03  0.38338326691E+03  0.00000000000E+00 0. -1.
         22    1    1    2    0    0  0.51593898934E+03 -0.72802991994E+03 -0.14023466268E+04  0.16621662573E+04  0.00000000000E+00 0. -1.
<mgrwt>
<rscale>  0 0.23730199E+04</rscale>
<asrwt>0</asrwt>
<pdfrwt beam="1">  1        2 0.28480834E+00 0.23730199E+04</pdfrwt>
<pdfrwt beam="2">  1       -2 0.11699394E+00 0.23730199E+04</pdfrwt>
<totfact> 0.41178410E+00</totfact>
</mgrwt>
</event>
<event>
 6    1  0.1885829E-005  0.3922129E+04  0.7818608E-02  0.8020443E-01
         -2   -1    0    0    0  501 -0.00000000000E+00  0.00000000000E+00  0.16137136273E+04  0.16137136273E+04  0.00000000000E+00 0.  1.
          2   -1    0    0  501    0  0.00000000000E+00 -0.00000000000E+00 -0.23831818704E+04  0.23831818704E+04  0.00000000000E+00 0. -1.
         23    2    1    2    0    0  0.24297522702E+03  0.53307723134E+03 -0.22910083703E+04  0.23664683592E+04  0.90801139039E+02 0.  0.
         11    1    3    3    0    0  0.22342868642E+03  0.41624454959E+03 -0.19042904615E+04  0.19620147973E+04  0.00000000000E+00 0. -1.
        -11    1    3    3    0    0  0.19546540599E+02  0.11683268175E+03 -0.38671790876E+03  0.40445356190E+03  0.00000000000E+00 0.  1.
         22    1    1    2    0    0 -0.24297522702E+03 -0.53307723134E+03  0.15215401272E+04  0.16304271386E+04  0.00000000000E+00 0.  1.
<mgrwt>
<rscale>  0 0.39221285E+04</rscale>
<asrwt>0</asrwt>
<pdfrwt beam="1">  1        2 0.36664336E+00 0.39221285E+04</pdfrwt>
<pdfrwt beam="2">  1       -2 0.24826364E+00 0.39221285E+04</pdfrwt>
<totfact> 0.21253640E-01</totfact>
</mgrwt>
</event>
<event>
 6    1  0.1885829E-005  0.2364228E+04  0.7818608E-02  0.8453019E-01
          2   -1    0    0  501    0  0.00000000000E+00  0.00000000000E+00  0.18190912043E+04  0.18190912043E+04  0.00000000000E+00 0. -1.
         -2   -1    0    0    0  501 -0.00000000000E+00 -0.00000000000E+00 -0.76818200212E+03  0.76818200212E+03  0.00000000000E+00 0.  1.
         23    2    1    2    0    0  0.25903192456E+03  0.51458926534E+03 -0.60180421697E+03  0.83702713921E+03  0.80910235861E+02 0.  0.
         13    1    3    3    0    0  0.17905265089E+03  0.28080689523E+03 -0.31416128502E+03  0.45783149433E+03  0.00000000000E+00 0. -1.
        -13    1    3    3    0    0  0.79979273664E+02  0.23378237012E+03 -0.28764293195E+03  0.37919564487E+03  0.00000000000E+00 0.  1.
         22    1    1    2    0    0 -0.25903192456E+03 -0.51458926534E+03  0.16527134192E+04  0.17502460672E+04  0.00000000000E+00 0. -1.
<mgrwt>
<rscale>  0 0.23642277E+04</rscale>
<asrwt>0</asrwt>
<pdfrwt beam="1">  1        2 0.27986018E+00 0.23642277E+04</pdfrwt>
<pdfrwt beam="2">  1       -2 0.11818185E+00 0.23642277E+04</pdfrwt>
<totfact> 0.41886273E+00</totfact>
</mgrwt>
</event>
<event>
 6    1  0.1885829E-005  0.1067303E+04  0.7818608E-02  0.9237660E-01
          2   -1    0    0  501    0  0.00000000000E+00  0.00000000000E+00  0.30626634574E+04  0.30626634574E+04  0.00000000000E+00 0. -1.
         -2   -1    0    0    0  501 -0.00000000000E+00 -0.00000000000E+00 -0.92985653710E+02  0.92985653710E+02  0.00000000000E+00 0.  1.
         23    2    1    2    0    0  0.41657144621E+03 -0.23196604298E+03  0.21788069344E+04  0.22321683334E+04  0.89642603734E+02 0.  0.
         13    1    3    3    0    0  0.49087615909E+02 -0.44022482722E+02  0.44797656616E+03  0.45280302212E+03  0.00000000000E+00 0.  1.
        -13    1    3    3    0    0  0.36748383030E+03 -0.18794356026E+03  0.17308303682E+04  0.17793653113E+04  0.00000000000E+00 0. -1.
         22    1    1    2    0    0 -0.41657144621E+03  0.23196604298E+03  0.79087086932E+03  0.92348077773E+03  0.00000000000E+00 0.  1.
<mgrwt>
<rscale>  0 0.10673027E+04</rscale>
<asrwt>0</asrwt>
<pdfrwt beam="1">  1        2 0.47117891E+00 0.10673027E+04</pdfrwt>
<pdfrwt beam="2">  1       -2 0.14305488E-01 0.10673027E+04</pdfrwt>
<totfact> 0.61492438E+01</totfact>
</mgrwt>
</event>
<event>
 6    1  0.1885829E-005  0.1186969E+04  0.7818608E-02  0.9124340E-01
          1   -1    0    0  501    0  0.00000000000E+00  0.00000000000E+00  0.13158661527E+04  0.13158661527E+04  0.00000000000E+00 0. -1.
         -1   -1    0    0    0  501 -0.00000000000E+00 -0.00000000000E+00 -0.26767453171E+03  0.26767453171E+03  0.00000000000E+00 0.  1.
         23    2    1    2    0    0 -0.16978274003E+03 -0.55799042277E+03  0.41125430430E+03  0.71990381853E+03  0.94614557078E+02 0.  0.
         13    1    3    3    0    0 -0.11859523865E+03 -0.29488793549E+03  0.26935453929E+03  0.41662404271E+03  0.00000000000E+00 0. -1.
        -13    1    3    3    0    0 -0.51187501384E+02 -0.26310248728E+03  0.14189976500E+03  0.30327977581E+03  0.00000000000E+00 0.  1.
         22    1    1    2    0    0  0.16978274003E+03  0.55799042277E+03  0.63693731669E+03  0.86363686588E+03  0.00000000000E+00 0. -1.
<mgrwt>
<rscale>  0 0.11869690E+04</rscale>
<asrwt>0</asrwt>
<pdfrwt beam="1">  1        1 0.20244094E+00 0.11869690E+04</pdfrwt>
<pdfrwt beam="2">  1       -1 0.41180698E-01 0.11869690E+04</pdfrwt>
<totfact> 0.50382978E+01</totfact>
</mgrwt>
</event>
<event>
 6    1  0.1885829E-005  0.3859143E+04  0.7818608E-02  0.8033581E-01
         -2   -1    0    0    0  501 -0.00000000000E+00  0.00000000000E+00  0.21539682177E+04  0.21539682177E+04  0.00000000000E+00 0.  1.
          2   -1    0    0  501    0  0.00000000000E+00 -0.00000000000E+00 -0.17285523283E+04  0.17285523283E+04  0.00000000000E+00 0. -1.
         23    2    1    2    0    0 -0.26546214321E+03  0.74382770358E+03  0.19826568875E+04  0.21364537294E+04  0.98774503191E+02 0.  0.
         13    1    3    3    0    0 -0.22215436443E+03  0.49273423042E+03  0.13071971063E+04  0.14145330884E+04  0.00000000000E+00 0.  1.
        -13    1    3    3    0    0 -0.43307778776E+02  0.25109347316E+03  0.67545978122E+03  0.72192064108E+03  0.00000000000E+00 0. -1.
         22    1    1    2    0    0  0.26546214321E+03 -0.74382770358E+03 -0.15572409981E+04  0.17460668166E+04  0.00000000000E+00 0. -1.
<mgrwt>
<rscale>  0 0.38591433E+04</rscale>
<asrwt>0</asrwt>
<pdfrwt beam="1">  1        2 0.26593113E+00 0.38591433E+04</pdfrwt>
<pdfrwt beam="2">  1       -2 0.33137973E+00 0.38591433E+04</pdfrwt>
<totfact> 0.15351471E-01</totfact>
</mgrwt>
</event>
<event>
 6    1  0.1885829E-005  0.2015747E+04  0.7818608E-02  0.8599294E-01
         -2   -1    0    0    0  501 -0.00000000000E+00  0.00000000000E+00  0.58345176088E+03  0.58345176088E+03  0.00000000000E+00 0.  1.
          2   -1    0    0  501    0  0.00000000000E+00 -0.00000000000E+00 -0.17410329885E+04  0.17410329885E+04  0.00000000000E+00 0. -1.
         23    2    1    2    0    0 -0.47755308297E+03 -0.43987767089E+02  0.43953612093E+03  0.65691894986E+03  0.91425567358E+02 0.  0.
         11    1    3    3    0    0 -0.24805681895E+03 -0.54559713992E+02  0.18621371298E+03  0.31493569934E+03  0.00000000000E+00 0.  1.
        -11    1    3    3    0    0 -0.22949626402E+03  0.10571946904E+02  0.25332240795E+03  0.34198325052E+03  0.00000000000E+00 0. -1.
         22    1    1    2    0    0  0.47755308297E+03  0.43987767089E+02 -0.15971173485E+04  0.16675657995E+04  0.00000000000E+00 0. -1.
<mgrwt>
<rscale>  0 0.20157468E+04</rscale>
<asrwt>0</asrwt>
<pdfrwt beam="1">  1        2 0.26785123E+00 0.20157468E+04</pdfrwt>
<pdfrwt beam="2">  1       -2 0.89761809E-01 0.20157468E+04</pdfrwt>
<totfact> 0.91800020E+00</totfact>
</mgrwt>
</event>
<event>
 6    1  0.1885829E-005  0.1401611E+04  0.7818608E-02  0.8952653E-01
         -1   -1    0    0    0  501 -0.00000000000E+00  0.00000000000E+00  0.38437286297E+03  0.38437286297E+03  0.00000000000E+00 0.  1.
          1   -1    0    0  501    0  0.00000000000E+00 -0.00000000000E+00 -0.12777396478E+04  0.12777396478E+04  0.00000000000E+00 0. -1.
         23    2    1    2    0    0 -0.22205212760E+03 -0.27657290372E+03  0.26369425276E+03  0.45191006359E+03  0.94277930549E+02 0.  0.
         11    1    3    3    0    0 -0.20618500966E+03 -0.22943922211E+03  0.18770296940E+03  0.36109142827E+03  0.00000000000E+00 0.  1.
        -11    1    3    3    0    0 -0.15867117946E+02 -0.47133681610E+02  0.75991283362E+02  0.90818635318E+02  0.00000000000E+00 0. -1.
         22    1    1    2    0    0  0.22205212760E+03  0.27657290372E+03 -0.11570610376E+04  0.12102024472E+04  0.00000000000E+00 0. -1.
<mgrwt>
<rscale>  0 0.14016111E+04</rscale>
<asrwt>0</asrwt>
<pdfrwt beam="1">  1        1 0.19657533E+00 0.14016111E+04</pdfrwt>
<pdfrwt beam="2">  1       -1 0.59134288E-01 0.14016111E+04</pdfrwt>
<totfact> 0.26519443E+01</totfact>
</mgrwt>
</event>
<event>
 6    1  0.1885829E-005  0.3778971E+04  0.7818608E-02  0.8050683E-01
         -2   -1    0    0    0  501 -0.00000000000E+00  0.00000000000E+00  0.12203529963E+04  0.12203529963E+04  0.00000000000E+00 0.  1.
          2   -1    0    0  501    0  0.00000000000E+00 -0.00000000000E+00 -0.29255105502E+04  0.29255105502E+04  0.00000000000E+00 0. -1.
         23    2    1    2    0    0  0.25832205975E+03  0.16234662828E+04 -0.18726451999E+04  0.24934637251E+04  0.90488926466E+02 0.  0.
         11    1    3    3    0    0  0.10624637405E+03  0.80833288820E+03 -0.98821290439E+03  0.12811147859E+04  0.00000000000E+00 0.  1.
        -11    1    3    3    0    0  0.15207568571E+03  0.81513339459E+03 -0.88443229552E+03  0.12123489393E+04  0.00000000000E+00 0. -1.
         22    1    1    2    0    0 -0.25832205975E+03 -0.16234662828E+04  0.16748764600E+03  0.16523998213E+04  0.00000000000E+00 0.  1.
<mgrwt>
<rscale>  0 0.37789711E+04</rscale>
<asrwt>0</asrwt>
<pdfrwt beam="1">  1        2 0.45007855E+00 0.37789711E+04</pdfrwt>
<pdfrwt beam="2">  1       -2 0.18774661E+00 0.37789711E+04</pdfrwt>
<totfact> 0.24966140E-01</totfact>
</mgrwt>
</event>
<event>
 6    1  0.4739641E-005  0.3258923E+04  0.7818608E-02  0.8173427E-01
         -2   -1    0    0    0  501 -0.00000000000E+00  0.00000000000E+00  0.14819904742E+04  0.14819904742E+04  0.00000000000E+00 0.  1.
          2   -1    0    0  501    0  0.00000000000E+00 -0.00000000000E+00 -0.17916071710E+04  0.17916071710E+04  0.00000000000E+00 0. -1.
         23    2    1    2    0    0  0.16074403050E+02  0.12956471459E+04  0.83377076742E+03  0.15455077152E+04  0.12025178596E+03 0.  0.
         11    1    3    3    0    0  0.65970319950E+02  0.59635352827E+03  0.39967369590E+03  0.72092210188E+03  0.00000000000E+00 0. -1.
        -11    1    3    3    0    0 -0.49895916900E+02  0.69929361761E+03  0.43409707152E+03  0.82458561330E+03  0.00000000000E+00 0.  1.
         22    1    1    2    0    0 -0.16074403050E+02 -0.12956471459E+04 -0.11433874642E+04  0.17280899301E+04  0.00000000000E+00 0. -1.
<mgrwt>
<rscale>  0 0.32589230E+04</rscale>
<asrwt>0</asrwt>
<pdfrwt beam="1">  1        2 0.27563187E+00 0.32589230E+04</pdfrwt>
<pdfrwt beam="2">  1       -2 0.22799853E+00 0.32589230E+04</pdfrwt>
<totfact> 0.64327118E-01</totfact>
</mgrwt>
</event>
<event>
 6    1  0.1885829E-005  0.2179748E+04  0.7818608E-02  0.8526905E-01
         -2   -1    0    0    0  501 -0.00000000000E+00  0.00000000000E+00  0.12949534279E+04  0.12949534279E+04  0.00000000000E+00 0.  1.
          2   -1    0    0  501    0  0.00000000000E+00 -0.00000000000E+00 -0.91727235218E+03  0.91727235218E+03  0.00000000000E+00 0. -1.
         23    2    1    2    0    0  0.75539728663E+02 -0.78330484338E+03 -0.57300648542E+03  0.97809468204E+03  0.95184276184E+02 0.  0.
         13    1    3    3    0    0  0.41515874199E+02 -0.98172223203E+02 -0.82624879830E+02  0.13486372376E+03  0.00000000000E+00 0. -1.
        -13    1    3    3    0    0  0.34023854464E+02 -0.68513262017E+03 -0.49038160559E+03  0.84323095828E+03  0.00000000000E+00 0.  1.
         22    1    1    2    0    0 -0.75539728663E+02  0.78330484338E+03  0.95068756111E+03  0.12341310980E+04  0.00000000000E+00 0.  1.
<mgrwt>
<rscale>  0 0.21797477E+04</rscale>
<asrwt>0</asrwt>
<pdfrwt beam="1">  1        2 0.14111882E+00 0.21797477E+04</pdfrwt>
<pdfrwt beam="2">  1       -2 0.19922361E+00 0.21797477E+04</pdfrwt>
<totfact> 0.35159282E+00</totfact>
</mgrwt>
</event>
<event>
 6    1  0.1885829E-005  0.1253093E+04  0.7818608E-02  0.9067613E-01
         -2   -1    0    0    0  501 -0.00000000000E+00  0.00000000000E+00  0.22164188513E+03  0.22164188513E+03  0.00000000000E+00 0.  1.
          2   -1    0    0  501    0  0.00000000000E+00 -0.00000000000E+00 -0.17711468780E+04  0.17711468780E+04  0.00000000000E+00 0. -1.
         23    2    1    2    0    0  0.11657856313E+03  0.61060153588E+03 -0.71076231853E+03  0.94879926569E+03  0.92801811033E+02 0.  0.
         13    1    3    3    0    0  0.10169070187E+03  0.28902163374E+03 -0.35873745955E+03  0.47177014372E+03  0.00000000000E+00 0.  1.
        -13    1    3    3    0    0  0.14887861267E+02  0.32157990214E+03 -0.35202485898E+03  0.47702912197E+03  0.00000000000E+00 0. -1.
         22    1    1    2    0    0 -0.11657856313E+03 -0.61060153588E+03 -0.83874267432E+03  0.10439894974E+04  0.00000000000E+00 0. -1.
<mgrwt>
<rscale>  0 0.12530927E+04</rscale>
<asrwt>0</asrwt>
<pdfrwt beam="1">  1        2 0.27248413E+00 0.12530927E+04</pdfrwt>
<pdfrwt beam="2">  1       -2 0.34098752E-01 0.12530927E+04</pdfrwt>
<totfact> 0.70893165E+01</totfact>
</mgrwt>
</event>
<event>
 6    1  0.1885829E-005  0.9015006E+03  0.7818608E-02  0.9423708E-01
         -2   -1    0    0    0  501 -0.00000000000E+00  0.00000000000E+00  0.67536204047E+03  0.67536204047E+03  0.00000000000E+00 0.  1.
          2   -1    0    0  501    0  0.00000000000E+00 -0.00000000000E+00 -0.30083985010E+03  0.30083985010E+03  0.00000000000E+00 0. -1.
         23    2    1    2    0    0  0.38072357260E+03 -0.85548986322E+02  0.42351916656E+03  0.58292111115E+03  0.90329782361E+02 0.  0.
         11    1    3    3    0    0  0.45010547356E+02 -0.70439889983E+00  0.97211739948E+02  0.10712874467E+03  0.00000000000E+00 0. -1.
        -11    1    3    3    0    0  0.33571302524E+03 -0.84844587423E+02  0.32630742661E+03  0.47579236647E+03  0.00000000000E+00 0.  1.
         22    1    1    2    0    0 -0.38072357260E+03  0.85548986322E+02 -0.48996976189E+02  0.39328077943E+03  0.00000000000E+00 0. -1.
<mgrwt>
<rscale>  0 0.90150056E+03</rscale>
<asrwt>0</asrwt>
<pdfrwt beam="1">  1        2 0.46283054E-01 0.90150056E+03</pdfrwt>
<pdfrwt beam="2">  1       -2 0.10390185E+00 0.90150056E+03</pdfrwt>
<totfact> 0.82774224E+01</totfact>
</mgrwt>
</event>
<event>
 6    1  0.1885829E-005  0.4494052E+04  0.7818608E-02  0.7911679E-01
         -2   -1    0    0    0  501 -0.00000000000E+00  0.00000000000E+00  0.26642612866E+04  0.26642612866E+04  0.00000000000E+00 0.  1.
          2   -1    0    0  501    0  0.00000000000E+00 -0.00000000000E+00 -0.18951315155E+04  0.18951315155E+04  0.00000000000E+00 0. -1.
         23    2    1    2    0    0  0.44427738589E+03 -0.27962003484E+03 -0.18309386736E+04  0.19068608651E+04  0.90621039472E+02 0.  0.
         13    1    3    3    0    0  0.24817830387E+03 -0.17751217096E+03 -0.12046853584E+04  0.12427267817E+04  0.00000000000E+00 0.  1.
        -13    1    3    3    0    0  0.19609908203E+03 -0.10210786388E+03 -0.62625331525E+03  0.66413408338E+03  0.00000000000E+00 0. -1.
         22    1    1    2    0    0 -0.44427738589E+03  0.27962003484E+03  0.26000684447E+04  0.26525319370E+04  0.00000000000E+00 0.  1.
<mgrwt>
<rscale>  0 0.44940519E+04</rscale>
<asrwt>0</asrwt>
<pdfrwt beam="1">  1        2 0.29155869E+00 0.44940519E+04</pdfrwt>
<pdfrwt beam="2">  1       -2 0.40988635E+00 0.44940519E+04</pdfrwt>
<totfact> 0.37038045E-02</totfact>
</mgrwt>
</event>
<event>
 6    1  0.1885829E-005  0.1697121E+04  0.7818608E-02  0.8763008E-01
          2   -1    0    0  501    0  0.00000000000E+00  0.00000000000E+00  0.93503474551E+03  0.93503474551E+03  0.00000000000E+00 0. -1.
         -2   -1    0    0    0  501 -0.00000000000E+00 -0.00000000000E+00 -0.77008353613E+03  0.77008353613E+03  0.00000000000E+00 0.  1.
         23    2    1    2    0    0 -0.42863881857E+03  0.72107326052E+03  0.19443349663E+03  0.86574524831E+03  0.89624586701E+02 0.  0.
         13    1    3    3    0    0 -0.12834825639E+03  0.30081025124E+03  0.80388587228E+02  0.33678243293E+03  0.00000000000E+00 0. -1.
        -13    1    3    3    0    0 -0.30029056218E+03  0.42026300928E+03  0.11404490940E+03  0.52896281539E+03  0.00000000000E+00 0.  1.
         22    1    1    2    0    0  0.42863881857E+03 -0.72107326052E+03 -0.29482287257E+02  0.83937303333E+03  0.00000000000E+00 0.  1.
<mgrwt>
<rscale>  0 0.16971209E+04</rscale>
<asrwt>0</asrwt>
<pdfrwt beam="1">  1        2 0.14385150E+00 0.16971209E+04</pdfrwt>
<pdfrwt beam="2">  1       -2 0.11847439E+00 0.16971209E+04</pdfrwt>
<totfact> 0.14491731E+01</totfact>
</mgrwt>
</event>
<event>
 6    1  0.1885829E-005  0.2305811E+04  0.7818608E-02  0.8475633E-01
          1   -1    0    0  501    0  0.00000000000E+00  0.00000000000E+00  0.80737953528E+03  0.80737953528E+03  0.00000000000E+00 0. -1.
         -1   -1    0    0    0  501 -0.00000000000E+00 -0.00000000000E+00 -0.16463031205E+04  0.16463031205E+04  0.00000000000E+00 0.  1.
         23    2    1    2    0    0  0.11313449748E+04  0.20956259193E+03 -0.45666707786E+03  0.12412561758E+04  0.91181916591E+02 0.  0.
         13    1    3    3    0    0  0.40201167384E+03  0.72611896364E+02 -0.11565435119E+03  0.42457249363E+03  0.00000000000E+00 0. -1.
        -13    1    3    3    0    0  0.72933330099E+03  0.13695069556E+03 -0.34101272667E+03  0.81668368216E+03  0.00000000000E+00 0.  1.
         22    1    1    2    0    0 -0.11313449748E+04 -0.20956259193E+03 -0.38225650739E+03  0.12124264800E+04  0.00000000000E+00 0. -1.
<mgrwt>
<rscale>  0 0.23058113E+04</rscale>
<asrwt>0</asrwt>
<pdfrwt beam="1">  1        1 0.12421224E+00 0.23058113E+04</pdfrwt>
<pdfrwt beam="2">  1       -1 0.25327740E+00 0.23058113E+04</pdfrwt>
<totfact> 0.13060980E+00</totfact>
</mgrwt>
</event>
<event>
 6    1  0.1885829E-005  0.9802306E+03  0.7818608E-02  0.9330497E-01
          2   -1    0    0  501    0  0.00000000000E+00  0.00000000000E+00  0.79167710670E+03  0.79167710670E+03  0.00000000000E+00 0. -1.
         -2   -1    0    0    0  501 -0.00000000000E+00 -0.00000000000E+00 -0.30342298369E+03  0.30342298369E+03  0.00000000000E+00 0.  1.
         23    2    1    2    0    0 -0.34831793387E+03 -0.17772730633E+03 -0.75968915986E+02  0.40861628416E+03  0.91014356115E+02 0.  0.
         13    1    3    3    0    0 -0.21052190888E+03 -0.10637296477E+03 -0.90779873710E+02  0.25273635912E+03  0.00000000000E+00 0. -1.
        -13    1    3    3    0    0 -0.13779602499E+03 -0.71354341561E+02  0.14810957724E+02  0.15587992504E+03  0.00000000000E+00 0.  1.
         22    1    1    2    0    0  0.34831793387E+03  0.17772730633E+03  0.56422303900E+03  0.68648380622E+03  0.00000000000E+00 0. -1.
<mgrwt>
<rscale>  0 0.98023065E+03</rscale>
<asrwt>0</asrwt>
<pdfrwt beam="1">  1        2 0.12179648E+00 0.98023065E+03</pdfrwt>
<pdfrwt beam="2">  1       -2 0.46680459E-01 0.98023065E+03</pdfrwt>
<totfact> 0.15183320E+02</totfact>
</mgrwt>
</event>
<event>
 6    1  0.1999232E-005  0.4260628E+04  0.7818608E-02  0.7953939E-01
         -2   -1    0    0    0  501 -0.00000000000E+00  0.00000000000E+00  0.26040901085E+04  0.26040901085E+04  0.00000000000E+00 0.  1.
          2   -1    0    0  501    0  0.00000000000E+00 -0.00000000000E+00 -0.17427345979E+04  0.17427345979E+04  0.00000000000E+00 0. -1.
         23    2    1    2    0    0 -0.48777891004E+03  0.12076695982E+04 -0.12876332861E+04  0.18339484716E+04  0.94727998163E+02 0.  0.
         11    1    3    3    0    0 -0.52007719928E+02  0.19254565800E+03 -0.16394623260E+03  0.25818017067E+03  0.00000000000E+00 0. -1.
        -11    1    3    3    0    0 -0.43577119011E+03  0.10151239402E+04 -0.11236870535E+04  0.15757683010E+04  0.00000000000E+00 0.  1.
         22    1    1    2    0    0  0.48777891004E+03 -0.12076695982E+04  0.21489887966E+04  0.25128762348E+04  0.00000000000E+00 0.  1.
<mgrwt>
<rscale>  0 0.42606281E+04</rscale>
<asrwt>0</asrwt>
<pdfrwt beam="1">  1        2 0.26811302E+00 0.42606281E+04</pdfrwt>
<pdfrwt beam="2">  1       -2 0.40062925E+00 0.42606281E+04</pdfrwt>
<totfact> 0.52722732E-02</totfact>
</mgrwt>
</event>
<event>
 6    1  0.1885829E-005  0.1307650E+04  0.7818608E-02  0.9023521E-01
          2   -1    0    0  501    0  0.00000000000E+00  0.00000000000E+00  0.23487301550E+04  0.23487301550E+04  0.00000000000E+00 0. -1.
         -2   -1    0    0    0  501 -0.00000000000E+00 -0.00000000000E+00 -0.18200776655E+03  0.18200776655E+03  0.00000000000E+00 0.  1.
         23    2    1    2    0    0  0.12540265413E+03 -0.19456564392E+03  0.22654623346E+04  0.22790810273E+04  0.91154398228E+02 0.  0.
         11    1    3    3    0    0  0.12299937701E+03 -0.11276167629E+03  0.15458538167E+04  0.15548337741E+04  0.00000000000E+00 0. -1.
        -11    1    3    3    0    0  0.24032771232E+01 -0.81803967629E+02  0.71960851781E+03  0.72424725320E+03  0.00000000000E+00 0.  1.
         22    1    1    2    0    0 -0.12540265413E+03  0.19456564392E+03 -0.98739946108E+02  0.25165689424E+03  0.00000000000E+00 0.  1.
<mgrwt>
<rscale>  0 0.13076500E+04</rscale>
<asrwt>0</asrwt>
<pdfrwt beam="1">  1        2 0.36134308E+00 0.13076500E+04</pdfrwt>
<pdfrwt beam="2">  1       -2 0.28001196E-01 0.13076500E+04</pdfrwt>
<totfact> 0.48724830E+01</totfact>
</mgrwt>
</event>
<event>
 6    1  0.1885829E-005  0.3399036E+04  0.7818608E-02  0.8138143E-01
          2   -1    0    0  501    0  0.00000000000E+00  0.00000000000E+00  0.28480803488E+04  0.28480803488E+04  0.00000000000E+00 0.  1.
         -2   -1    0    0    0  501 -0.00000000000E+00 -0.00000000000E+00 -0.10141434254E+04  0.10141434254E+04  0.00000000000E+00 0. -1.
         23    2    1    2    0    0 -0.10936704330E+04  0.15115541551E+03 -0.54863484343E+03  0.12362741937E+04  0.91709949902E+02 0.  0.
         11    1    3    3    0    0 -0.50135547300E+03  0.11538083496E+03 -0.25784227325E+03  0.57545867381E+03  0.00000000000E+00 0.  1.
        -11    1    3    3    0    0 -0.59231495998E+03  0.35774580548E+02 -0.29079257018E+03  0.66081551987E+03  0.00000000000E+00 0. -1.
         22    1    1    2    0    0  0.10936704330E+04 -0.15115541551E+03  0.23825717669E+04  0.26259495806E+04  0.00000000000E+00 0.  1.
<mgrwt>
<rscale>  0 0.33990363E+04</rscale>
<asrwt>0</asrwt>
<pdfrwt beam="1">  1        2 0.43816621E+00 0.33990363E+04</pdfrwt>
<pdfrwt beam="2">  1       -2 0.15602207E+00 0.33990363E+04</pdfrwt>
<totfact> 0.48282099E-01</totfact>
</mgrwt>
</event>
<event>
 6    1  0.1885829E-005  0.2773054E+04  0.7818608E-02  0.8311683E-01
         -2   -1    0    0    0  501 -0.00000000000E+00  0.00000000000E+00  0.20535876236E+04  0.20535876236E+04  0.00000000000E+00 0.  1.
          2   -1    0    0  501    0  0.00000000000E+00 -0.00000000000E+00 -0.93614548540E+03  0.93614548540E+03  0.00000000000E+00 0. -1.
         23    2    1    2    0    0 -0.10739578010E+04  0.75671931713E+03  0.10322409361E+04  0.16731964676E+04  0.89752914534E+02 0.  0.
         13    1    3    3    0    0 -0.36271608690E+03  0.29607464403E+03  0.33284538267E+03  0.57446427504E+03  0.00000000000E+00 0.  1.
        -13    1    3    3    0    0 -0.71124171415E+03  0.46064467310E+03  0.69939555345E+03  0.10987321926E+04  0.00000000000E+00 0. -1.
         22    1    1    2    0    0  0.10739578010E+04 -0.75671931713E+03  0.85201202105E+02  0.13165366414E+04  0.00000000000E+00 0. -1.
<mgrwt>
<rscale>  0 0.27730538E+04</rscale>
<asrwt>0</asrwt>
<pdfrwt beam="1">  1        2 0.14402238E+00 0.27730538E+04</pdfrwt>
<pdfrwt beam="2">  1       -2 0.31593656E+00 0.27730538E+04</pdfrwt>
<totfact> 0.61344758E-01</totfact>
</mgrwt>
</event>
<event>
 6    1  0.1885829E-005  0.1907652E+04  0.7818608E-02  0.8651057E-01
         -2   -1    0    0    0  501 -0.00000000000E+00  0.00000000000E+00  0.31346009743E+03  0.31346009743E+03  0.00000000000E+00 0.  1.
          2   -1    0    0  501    0  0.00000000000E+00 -0.00000000000E+00 -0.29023919538E+04  0.29023919538E+04  0.00000000000E+00 0. -1.
         23    2    1    2    0    0 -0.73418411775E+03 -0.13957715532E+03 -0.30553259147E+03  0.81326588129E+03  0.97688935786E+02 0.  0.
         13    1    3    3    0    0 -0.17643901913E+03 -0.20819208237E+02 -0.30895529706E+02  0.18032942261E+03  0.00000000000E+00 0.  1.
        -13    1    3    3    0    0 -0.55774509861E+03 -0.11875794708E+03 -0.27463706176E+03  0.63293645867E+03  0.00000000000E+00 0. -1.
         22    1    1    2    0    0  0.73418411775E+03  0.13957715532E+03 -0.22833992649E+04  0.24025861699E+04  0.00000000000E+00 0. -1.
<mgrwt>
<rscale>  0 0.19076520E+04</rscale>
<asrwt>0</asrwt>
<pdfrwt beam="1">  1        2 0.44652185E+00 0.19076520E+04</pdfrwt>
<pdfrwt beam="2">  1       -2 0.48224630E-01 0.19076520E+04</pdfrwt>
<totfact> 0.76526736E+00</totfact>
</mgrwt>
</event>
<event>
 6    1  0.1885829E-005  0.2975647E+04  0.7818608E-02  0.8250719E-01
         -2   -1    0    0    0  501 -0.00000000000E+00  0.00000000000E+00  0.16313619819E+04  0.16313619819E+04  0.00000000000E+00 0.  1.
          2   -1    0    0  501    0  0.00000000000E+00 -0.00000000000E+00 -0.13569142988E+04  0.13569142988E+04  0.00000000000E+00 0. -1.
         23    2    1    2    0    0 -0.56182674556E+03 -0.17208531782E+03  0.15073891542E+04  0.16224771302E+04  0.12225926148E+03 0.  0.
         13    1    3    3    0    0 -0.42189816876E+02 -0.34056157205E+02  0.23466079598E+03  0.24084329275E+03  0.00000000000E+00 0. -1.
        -13    1    3    3    0    0 -0.51963692869E+03 -0.13802916062E+03  0.12727283582E+04  0.13816338374E+04  0.00000000000E+00 0.  1.
         22    1    1    2    0    0  0.56182674556E+03  0.17208531782E+03 -0.12329414711E+04  0.13657991506E+04  0.00000000000E+00 0. -1.
<mgrwt>
<rscale>  0 0.29756468E+04</rscale>
<asrwt>0</asrwt>
<pdfrwt beam="1">  1        2 0.20875605E+00 0.29756468E+04</pdfrwt>
<pdfrwt beam="2">  1       -2 0.25097877E+00 0.29756468E+04</pdfrwt>
<totfact> 0.83282163E-01</totfact>
</mgrwt>
</event>
<event>
 6    1  0.1885829E-005  0.1415401E+04  0.7818608E-02  0.8942745E-01
         -2   -1    0    0    0  501 -0.00000000000E+00  0.00000000000E+00  0.11765189029E+03  0.11765189029E+03  0.00000000000E+00 0.  1.
          2   -1    0    0  501    0  0.00000000000E+00 -0.00000000000E+00 -0.42569661308E+04  0.42569661308E+04  0.00000000000E+00 0. -1.
         23    2    1    2    0    0  0.11531250315E+01  0.55453760422E+03 -0.34224118339E+04  0.34682724221E+04  0.92182151052E+02 0.  0.
         13    1    3    3    0    0  0.45858549020E+02  0.29363319242E+03 -0.17585293485E+04  0.17834654266E+04  0.00000000000E+00 0.  1.
        -13    1    3    3    0    0 -0.44705423988E+02  0.26090441180E+03 -0.16638824854E+04  0.16848069956E+04  0.00000000000E+00 0. -1.
         22    1    1    2    0    0 -0.11531250315E+01 -0.55453760422E+03 -0.71690240662E+03  0.90634559899E+03  0.00000000000E+00 0.  1.
<mgrwt>
<rscale>  0 0.14154012E+04</rscale>
<asrwt>0</asrwt>
<pdfrwt beam="1">  1        2 0.65491797E+00 0.14154012E+04</pdfrwt>
<pdfrwt beam="2">  1       -2 0.18100288E-01 0.14154012E+04</pdfrwt>
<totfact> 0.53045317E+00</totfact>
</mgrwt>
</event>
<event>
 6    1  0.1885829E-005  0.2817152E+04  0.7818608E-02  0.8297963E-01
         -2   -1    0    0    0  501 -0.00000000000E+00  0.00000000000E+00  0.93891980380E+03  0.93891980380E+03  0.00000000000E+00 0. -1.
          2   -1    0    0  501    0  0.00000000000E+00 -0.00000000000E+00 -0.21131583952E+04  0.21131583952E+04  0.00000000000E+00 0.  1.
         23    2    1    2    0    0 -0.10125461730E+04  0.90940691055E+03 -0.20060413841E+03  0.13786880086E+04  0.90928120863E+02 0.  0.
         13    1    3    3    0    0 -0.24382551958E+03  0.17363536794E+03 -0.27287891210E+02  0.30057404081E+03  0.00000000000E+00 0. -1.
        -13    1    3    3    0    0 -0.76872065342E+03  0.73577154262E+03 -0.17331624720E+03  0.10781139678E+04  0.00000000000E+00 0.  1.
         22    1    1    2    0    0  0.10125461730E+04 -0.90940691055E+03 -0.97363445301E+03  0.16733901905E+04  0.00000000000E+00 0.  1.
<mgrwt>
<rscale>  0 0.28171519E+04</rscale>
<asrwt>0</asrwt>
<pdfrwt beam="1">  1        2 0.32510129E+00 0.28171519E+04</pdfrwt>
<pdfrwt beam="2">  1       -2 0.14444920E+00 0.28171519E+04</pdfrwt>
<totfact> 0.16614578E+00</totfact>
</mgrwt>
</event>
<event>
 6    1  0.1885829E-005  0.4630427E+04  0.7818608E-02  0.7888193E-01
          2   -1    0    0  501    0  0.00000000000E+00  0.00000000000E+00  0.39092390704E+04  0.39092390704E+04  0.00000000000E+00 0. -1.
         -2   -1    0    0    0  501 -0.00000000000E+00 -0.00000000000E+00 -0.13711651771E+04  0.13711651771E+04  0.00000000000E+00 0.  1.
         23    2    1    2    0    0  0.22026551844E+04  0.47538645531E+03  0.66766529587E+03  0.23519045524E+04  0.89419980845E+02 0.  0.
         13    1    3    3    0    0  0.12904352721E+04  0.24639311211E+03  0.42135284474E+03  0.13796633564E+04  0.00000000000E+00 0. -1.
        -13    1    3    3    0    0  0.91221991230E+03  0.22899334320E+03  0.24631245113E+03  0.97224119601E+03  0.00000000000E+00 0.  1.
         22    1    1    2    0    0 -0.22026551844E+04 -0.47538645531E+03  0.18704085974E+04  0.29284996951E+04  0.00000000000E+00 0.  1.
<mgrwt>
<rscale>  0 0.46304265E+04</rscale>
<asrwt>0</asrwt>
<pdfrwt beam="1">  1        2 0.60142139E+00 0.46304265E+04</pdfrwt>
<pdfrwt beam="2">  1       -2 0.21094849E+00 0.46304265E+04</pdfrwt>
<totfact> 0.34092853E-02</totfact>
</mgrwt>
</event>
<event>
 6    1  0.1885829E-005  0.1638539E+04  0.7818608E-02  0.8797216E-01
         -2   -1    0    0    0  501 -0.00000000000E+00  0.00000000000E+00  0.13039964432E+03  0.13039964432E+03  0.00000000000E+00 0.  1.
          2   -1    0    0  501    0  0.00000000000E+00 -0.00000000000E+00 -0.51472702649E+04  0.51472702649E+04  0.00000000000E+00 0. -1.
         23    2    1    2    0    0  0.21302444908E+03  0.23098106990E+03 -0.49443661582E+04  0.49551973250E+04  0.92152873004E+02 0.  0.
         11    1    3    3    0    0  0.12703163127E+03  0.19283711673E+03 -0.32222249178E+04  0.32304886024E+04  0.00000000000E+00 0. -1.
        -11    1    3    3    0    0  0.85992817810E+02  0.38143953175E+02 -0.17221412404E+04  0.17247087226E+04  0.00000000000E+00 0.  1.
         22    1    1    2    0    0 -0.21302444908E+03 -0.23098106990E+03 -0.72504462377E+02  0.32247258430E+03  0.00000000000E+00 0.  1.
<mgrwt>
<rscale>  0 0.16385386E+04</rscale>
<asrwt>0</asrwt>
<pdfrwt beam="1">  1        2 0.79188768E+00 0.16385386E+04</pdfrwt>
<pdfrwt beam="2">  1       -2 0.20061485E-01 0.16385386E+04</pdfrwt>
<totfact> 0.46693109E-01</totfact>
</mgrwt>
</event>
<event>
 6    1  0.1885829E-005  0.1291476E+04  0.7818608E-02  0.9036352E-01
          2   -1    0    0  501    0  0.00000000000E+00  0.00000000000E+00  0.11040769904E+04  0.11040769904E+04  0.00000000000E+00 0. -1.
         -2   -1    0    0    0  501 -0.00000000000E+00 -0.00000000000E+00 -0.37767065786E+03  0.37767065786E+03  0.00000000000E+00 0.  1.
         23    2    1    2    0    0  0.25272297824E+03  0.31912038468E+03  0.93600639990E+03  0.10238842277E+04  0.80772565654E+02 0.  0.
         11    1    3    3    0    0  0.90920102194E+02  0.14013155902E+03  0.29561083391E+03  0.33954246265E+03  0.00000000000E+00 0. -1.
        -11    1    3    3    0    0  0.16180287605E+03  0.17898882565E+03  0.64039556599E+03  0.68434176502E+03  0.00000000000E+00 0.  1.
         22    1    1    2    0    0 -0.25272297824E+03 -0.31912038468E+03 -0.20960006738E+03  0.45786342057E+03  0.00000000000E+00 0.  1.
<mgrwt>
<rscale>  0 0.12914759E+04</rscale>
<asrwt>0</asrwt>
<pdfrwt beam="1">  1        2 0.16985800E+00 0.12914759E+04</pdfrwt>
<pdfrwt beam="2">  1       -2 0.58103179E-01 0.12914759E+04</pdfrwt>
<totfact> 0.58878168E+01</totfact>
</mgrwt>
</event>
<event>
 6    1  0.1885829E-005  0.1817189E+04  0.7818608E-02  0.8697212E-01
          2   -1    0    0  501    0  0.00000000000E+00  0.00000000000E+00  0.10210476934E+04  0.10210476934E+04  0.00000000000E+00 0. -1.
         -2   -1    0    0    0  501 -0.00000000000E+00 -0.00000000000E+00 -0.80852637503E+03  0.80852637503E+03  0.00000000000E+00 0.  1.
         23    2    1    2    0    0  0.10183754557E+03 -0.29277607624E+03  0.96395059909E+03  0.10167181891E+04  0.91795435876E+02 0.  0.
         13    1    3    3    0    0  0.89225067984E+01 -0.16527563950E+03  0.49009356776E+03  0.51728846237E+03  0.00000000000E+00 0.  1.
        -13    1    3    3    0    0  0.92915038771E+02 -0.12750043674E+03  0.47385703134E+03  0.49942972673E+03  0.00000000000E+00 0. -1.
         22    1    1    2    0    0 -0.10183754557E+03  0.29277607624E+03 -0.75142928077E+03  0.81285587929E+03  0.00000000000E+00 0.  1.
<mgrwt>
<rscale>  0 0.18171890E+04</rscale>
<asrwt>0</asrwt>
<pdfrwt beam="1">  1        2 0.15708426E+00 0.18171890E+04</pdfrwt>
<pdfrwt beam="2">  1       -2 0.12438867E+00 0.18171890E+04</pdfrwt>
<totfact> 0.11175530E+01</totfact>
</mgrwt>
</event>
<event>
 6    1  0.1885829E-005  0.2012680E+04  0.7818608E-02  0.8600715E-01
          2   -1    0    0  501    0  0.00000000000E+00  0.00000000000E+00  0.28335987764E+04  0.28335987764E+04  0.00000000000E+00 0. -1.
         -2   -1    0    0    0  501 -0.00000000000E+00 -0.00000000000E+00 -0.35739713736E+03  0.35739713736E+03  0.00000000000E+00 0.  1.
         23    2    1    2    0    0 -0.56937357937E+03 -0.82015079826E+03  0.10682256305E+04  0.14649512893E+04  0.90236787199E+02 0.  0.
         13    1    3    3    0    0 -0.16074902908E+03 -0.19589795546E+03  0.22327918522E+03  0.33774228911E+03  0.00000000000E+00 0.  1.
        -13    1    3    3    0    0 -0.40862455030E+03 -0.62425284281E+03  0.84494644524E+03  0.11272090002E+04  0.00000000000E+00 0. -1.
         22    1    1    2    0    0  0.56937357937E+03  0.82015079826E+03  0.14079760086E+04  0.17260446245E+04  0.00000000000E+00 0.  1.
<mgrwt>
<rscale>  0 0.20126799E+04</rscale>
<asrwt>0</asrwt>
<pdfrwt beam="1">  1        2 0.43593826E+00 0.20126799E+04</pdfrwt>
<pdfrwt beam="2">  1       -2 0.54984177E-01 0.20126799E+04</pdfrwt>
<totfact> 0.63800308E+00</totfact>
</mgrwt>
</event>
<event>
 6    1  0.1885829E-005  0.3345330E+04  0.7818608E-02  0.8151456E-01
          2   -1    0    0  501    0  0.00000000000E+00  0.00000000000E+00  0.25339456364E+04  0.25339456364E+04  0.00000000000E+00 0. -1.
         -2   -1    0    0    0  501 -0.00000000000E+00 -0.00000000000E+00 -0.11041311247E+04  0.11041311247E+04  0.00000000000E+00 0.  1.
         23    2    1    2    0    0  0.34045900134E+02 -0.14680387892E+04  0.15836592210E+04  0.21616062384E+04  0.90928498602E+02 0.  0.
         11    1    3    3    0    0 -0.13535731002E+02 -0.29433713231E+03  0.27444825759E+03  0.40266538163E+03  0.00000000000E+00 0.  1.
        -11    1    3    3    0    0  0.47581631135E+02 -0.11737016569E+04  0.13092109634E+04  0.17589408568E+04  0.00000000000E+00 0. -1.
         22    1    1    2    0    0 -0.34045900134E+02  0.14680387892E+04 -0.15384470927E+03  0.14764705227E+04  0.00000000000E+00 0.  1.
<mgrwt>
<rscale>  0 0.33453300E+04</rscale>
<asrwt>0</asrwt>
<pdfrwt beam="1">  1        2 0.38983779E+00 0.33453300E+04</pdfrwt>
<pdfrwt beam="2">  1       -2 0.16986633E+00 0.33453300E+04</pdfrwt>
<totfact> 0.59115299E-01</totfact>
</mgrwt>
</event>
<event>
 6    1  0.1885829E-005  0.7318280E+03  0.7818608E-02  0.9664299E-01
          2   -1    0    0  501    0  0.00000000000E+00  0.00000000000E+00  0.92763765401E+03  0.92763765401E+03  0.00000000000E+00 0. -1.
         -2   -1    0    0    0  501 -0.00000000000E+00 -0.00000000000E+00 -0.14433765223E+03  0.14433765223E+03  0.00000000000E+00 0.  1.
         23    2    1    2    0    0  0.14270963416E+03  0.63382719834E+02 -0.78477563972E+02  0.19616483490E+03  0.89098291515E+02 0.  0.
         11    1    3    3    0    0  0.57218553938E+01  0.17268231024E+02 -0.43936540543E+02  0.47553664704E+02  0.00000000000E+00 0. -1.
        -11    1    3    3    0    0  0.13698777876E+03  0.46114488810E+02 -0.34541023429E+02  0.14861117020E+03  0.00000000000E+00 0.  1.
         22    1    1    2    0    0 -0.14270963416E+03 -0.63382719834E+02  0.86177756575E+03  0.87581047133E+03  0.00000000000E+00 0. -1.
<mgrwt>
<rscale>  0 0.73182796E+03</rscale>
<asrwt>0</asrwt>
<pdfrwt beam="1">  1        2 0.14271348E+00 0.73182796E+03</pdfrwt>
<pdfrwt beam="2">  1       -2 0.22205793E-01 0.73182796E+03</pdfrwt>
<totfact> 0.50121202E+02</totfact>
</mgrwt>
</event>
<event>
 6    1  0.1885829E-005  0.3921950E+04  0.7818608E-02  0.8020479E-01
          2   -1    0    0  501    0  0.00000000000E+00  0.00000000000E+00  0.17916012328E+04  0.17916012328E+04  0.00000000000E+00 0. -1.
         -2   -1    0    0    0  501 -0.00000000000E+00 -0.00000000000E+00 -0.21463609208E+04  0.21463609208E+04  0.00000000000E+00 0.  1.
         23    2    1    2    0    0 -0.10856405004E+03  0.14959577117E+04 -0.14441889662E+04  0.20841736596E+04  0.91773880324E+02 0.  0.
         11    1    3    3    0    0 -0.29555245538E+02  0.94171812697E+03 -0.87559399177E+03  0.12862236904E+04  0.00000000000E+00 0.  1.
        -11    1    3    3    0    0 -0.79008804500E+02  0.55423958476E+03 -0.56859497442E+03  0.79794996926E+03  0.00000000000E+00 0. -1.
         22    1    1    2    0    0  0.10856405004E+03 -0.14959577117E+04  0.10894292782E+04  0.18537884940E+04  0.00000000000E+00 0. -1.
<mgrwt>
<rscale>  0 0.39219500E+04</rscale>
<asrwt>0</asrwt>
<pdfrwt beam="1">  1        2 0.27563096E+00 0.39219500E+04</pdfrwt>
<pdfrwt beam="2">  1       -2 0.33020937E+00 0.39219500E+04</pdfrwt>
<totfact> 0.14328089E-01</totfact>
</mgrwt>
</event>
<event>
 6    1  0.1885829E-005  0.2777341E+04  0.7818608E-02  0.8310338E-01
          2   -1    0    0  501    0  0.00000000000E+00  0.00000000000E+00  0.18882114211E+04  0.18882114211E+04  0.00000000000E+00 0.  1.
         -2   -1    0    0    0  501 -0.00000000000E+00 -0.00000000000E+00 -0.10212872898E+04  0.10212872898E+04  0.00000000000E+00 0. -1.
         23    2    1    2    0    0 -0.87060181642E+03  0.94772171924E+03 -0.10840462836E+03  0.12947571931E+04  0.92307343402E+02 0.  0.
         11    1    3    3    0    0 -0.55876520774E+03  0.65390335825E+03 -0.41583811041E+02  0.86112564278E+03  0.00000000000E+00 0.  1.
        -11    1    3    3    0    0 -0.31183660868E+03  0.29381836099E+03 -0.66820817316E+02  0.43363155028E+03  0.00000000000E+00 0. -1.
         22    1    1    2    0    0  0.87060181642E+03 -0.94772171924E+03  0.97532875974E+03  0.16147415178E+04  0.00000000000E+00 0.  1.
<mgrwt>
<rscale>  0 0.27773414E+04</rscale>
<asrwt>0</asrwt>
<pdfrwt beam="1">  1        2 0.29049407E+00 0.27773414E+04</pdfrwt>
<pdfrwt beam="2">  1       -2 0.15712112E+00 0.27773414E+04</pdfrwt>
<totfact> 0.17785922E+00</totfact>
</mgrwt>
</event>
<event>
 6    1  0.1885829E-005  0.2629160E+04  0.7818608E-02  0.8358363E-01
         -2   -1    0    0    0  501 -0.00000000000E+00  0.00000000000E+00  0.76313965426E+03  0.76313965426E+03  0.00000000000E+00 0.  1.
          2   -1    0    0  501    0  0.00000000000E+00 -0.00000000000E+00 -0.22644872162E+04  0.22644872162E+04  0.00000000000E+00 0. -1.
         23    2    1    2    0    0 -0.85870783912E+03  0.81955708993E+03 -0.13978151086E+04  0.18360850351E+04  0.90929651359E+02 0.  0.
         11    1    3    3    0    0 -0.19645214724E+02  0.40071835442E+02 -0.41780569656E+02  0.61133480664E+02  0.00000000000E+00 0. -1.
        -11    1    3    3    0    0 -0.83906262440E+03  0.77948525449E+03 -0.13560345390E+04  0.17749515544E+04  0.00000000000E+00 0.  1.
         22    1    1    2    0    0  0.85870783912E+03 -0.81955708993E+03 -0.10353245333E+03  0.11915418354E+04  0.00000000000E+00 0.  1.
<mgrwt>
<rscale>  0 0.26291596E+04</rscale>
<asrwt>0</asrwt>
<pdfrwt beam="1">  1        2 0.34838265E+00 0.26291596E+04</pdfrwt>
<pdfrwt beam="2">  1       -2 0.11740610E+00 0.26291596E+04</pdfrwt>
<totfact> 0.23484019E+00</totfact>
</mgrwt>
</event>
<event>
 6    1  0.1885829E-005  0.2899301E+04  0.7818608E-02  0.8273085E-01
         -2   -1    0    0    0  501 -0.00000000000E+00  0.00000000000E+00  0.12870965099E+04  0.12870965099E+04  0.00000000000E+00 0.  1.
          2   -1    0    0  501    0  0.00000000000E+00 -0.00000000000E+00 -0.16327345652E+04  0.16327345652E+04  0.00000000000E+00 0. -1.
         23    2    1    2    0    0 -0.61564687386E+03 -0.69231325886E+03  0.94802983199E+03  0.13286380245E+04  0.90552284118E+02 0.  0.
         13    1    3    3    0    0 -0.38871629819E+03 -0.49296472903E+03  0.66895351407E+03  0.91739489236E+03  0.00000000000E+00 0.  1.
        -13    1    3    3    0    0 -0.22693057567E+03 -0.19934852982E+03  0.27907631792E+03  0.41124313215E+03  0.00000000000E+00 0. -1.
         22    1    1    2    0    0  0.61564687386E+03  0.69231325886E+03 -0.12936678873E+04  0.15911930506E+04  0.00000000000E+00 0. -1.
<mgrwt>
<rscale>  0 0.28993013E+04</rscale>
<asrwt>0</asrwt>
<pdfrwt beam="1">  1        2 0.25118993E+00 0.28993013E+04</pdfrwt>
<pdfrwt beam="2">  1       -2 0.19801485E+00 0.28993013E+04</pdfrwt>
<totfact> 0.12649955E+00</totfact>
</mgrwt>
</event>
<event>
 6    1  0.1885829E-005  0.1634819E+04  0.7818608E-02  0.8799438E-01
          2   -1    0    0  501    0  0.00000000000E+00  0.00000000000E+00  0.51308214513E+03  0.51308214513E+03  0.00000000000E+00 0. -1.
         -2   -1    0    0    0  501 -0.00000000000E+00 -0.00000000000E+00 -0.13022448398E+04  0.13022448398E+04  0.00000000000E+00 0.  1.
         23    2    1    2    0    0 -0.28070205865E+03 -0.58794943938E+03  0.14796774029E+03  0.67397180748E+03  0.88686843012E+02 0.  0.
         11    1    3    3    0    0 -0.77823402746E+02 -0.15273220938E+03 -0.31502804804E+00  0.17141677001E+03  0.00000000000E+00 0. -1.
        -11    1    3    3    0    0 -0.20287865590E+03 -0.43521722999E+03  0.14828276834E+03  0.50255503747E+03  0.00000000000E+00 0.  1.
         22    1    1    2    0    0  0.28070205865E+03  0.58794943938E+03 -0.93713043500E+03  0.11413551775E+04  0.00000000000E+00 0.  1.
<mgrwt>
<rscale>  0 0.16348193E+04</rscale>
<asrwt>0</asrwt>
<pdfrwt beam="1">  1        2 0.78935715E-01 0.16348193E+04</pdfrwt>
<pdfrwt beam="2">  1       -2 0.20034536E+00 0.16348193E+04</pdfrwt>
<totfact> 0.75532147E+00</totfact>
</mgrwt>
</event>
<event>
 6    1  0.1885829E-005  0.3781463E+04  0.7818608E-02  0.8050145E-01
          2   -1    0    0  501    0  0.00000000000E+00  0.00000000000E+00  0.20762800695E+04  0.20762800695E+04  0.00000000000E+00 0. -1.
         -2   -1    0    0    0  501 -0.00000000000E+00 -0.00000000000E+00 -0.17217645209E+04  0.17217645209E+04  0.00000000000E+00 0.  1.
         23    2    1    2    0    0 -0.29639030773E+03  0.14593997159E+04 -0.99080774708E+03  0.17911590643E+04  0.94106622957E+02 0.  0.
         11    1    3    3    0    0 -0.81019799105E+02  0.63140853287E+03 -0.42875517695E+03  0.76751022468E+03  0.00000000000E+00 0. -1.
        -11    1    3    3    0    0 -0.21537050863E+03  0.82799118304E+03 -0.56205257013E+03  0.10236488396E+04  0.00000000000E+00 0.  1.
         22    1    1    2    0    0  0.29639030773E+03 -0.14593997159E+04  0.13453232957E+04  0.20068855262E+04  0.00000000000E+00 0. -1.
<mgrwt>
<rscale>  0 0.37814629E+04</rscale>
<asrwt>0</asrwt>
<pdfrwt beam="1">  1        2 0.31942770E+00 0.37814629E+04</pdfrwt>
<pdfrwt beam="2">  1       -2 0.26488685E+00 0.37814629E+04</pdfrwt>
<totfact> 0.25338865E-01</totfact>
</mgrwt>
</event>
<event>
 6    1  0.1885829E-005  0.2380855E+04  0.7818608E-02  0.8446706E-01
          2   -1    0    0  501    0  0.00000000000E+00  0.00000000000E+00  0.15160155085E+04  0.15160155085E+04  0.00000000000E+00 0. -1.
         -2   -1    0    0    0  501 -0.00000000000E+00 -0.00000000000E+00 -0.93476493474E+03  0.93476493474E+03  0.00000000000E+00 0.  1.
         23    2    1    2    0    0 -0.11130863275E+03 -0.10332634118E+04  0.88505084995E+03  0.13680443268E+04  0.90594610163E+02 0.  0.
         13    1    3    3    0    0 -0.68108371049E+02 -0.33892545248E+03  0.25646834319E+03  0.43044770136E+03  0.00000000000E+00 0.  1.
        -13    1    3    3    0    0 -0.43200261697E+02 -0.69433795929E+03  0.62858250676E+03  0.93759662549E+03  0.00000000000E+00 0. -1.
         22    1    1    2    0    0  0.11130863275E+03  0.10332634118E+04 -0.30380027623E+03  0.10827361164E+04  0.00000000000E+00 0. -1.
<mgrwt>
<rscale>  0 0.23808554E+04</rscale>
<asrwt>0</asrwt>
<pdfrwt beam="1">  1        2 0.23323315E+00 0.23808554E+04</pdfrwt>
<pdfrwt beam="2">  1       -2 0.14380999E+00 0.23808554E+04</pdfrwt>
<totfact> 0.37498509E+00</totfact>
</mgrwt>
</event>
<event>
 6    1  0.1885829E-005  0.4345843E+04  0.7818608E-02  0.7938195E-01
         -2   -1    0    0    0  501 -0.00000000000E+00  0.00000000000E+00  0.12720534935E+04  0.12720534935E+04  0.00000000000E+00 0.  1.
          2   -1    0    0  501    0  0.00000000000E+00 -0.00000000000E+00 -0.37117847204E+04  0.37117847204E+04  0.00000000000E+00 0. -1.
         23    2    1    2    0    0 -0.12864172643E+04  0.12020474654E+04 -0.26791642104E+04  0.32070108051E+04  0.84911430179E+02 0.  0.
         13    1    3    3    0    0 -0.36363688413E+03  0.35085996761E+03 -0.83849122976E+03  0.97898010335E+03  0.00000000000E+00 0. -1.
        -13    1    3    3    0    0 -0.92278038015E+03  0.85118749783E+03 -0.18406729807E+04  0.22280307018E+04  0.00000000000E+00 0.  1.
         22    1    1    2    0    0  0.12864172643E+04 -0.12020474654E+04  0.23943298350E+03  0.17768274088E+04  0.00000000000E+00 0.  1.
<mgrwt>
<rscale>  0 0.43458434E+04</rscale>
<asrwt>0</asrwt>
<pdfrwt beam="1">  1        2 0.57104380E+00 0.43458434E+04</pdfrwt>
<pdfrwt beam="2">  1       -2 0.19570054E+00 0.43458434E+04</pdfrwt>
<totfact> 0.62151742E-02</totfact>
</mgrwt>
</event>
<event>
 6    1  0.1885829E-005  0.2356835E+04  0.7818608E-02  0.8455843E-01
          1   -1    0    0  501    0  0.00000000000E+00  0.00000000000E+00  0.18424636986E+04  0.18424636986E+04  0.00000000000E+00 0. -1.
         -1   -1    0    0    0  501 -0.00000000000E+00 -0.00000000000E+00 -0.75370141818E+03  0.75370141818E+03  0.00000000000E+00 0.  1.
         23    2    1    2    0    0 -0.89326841632E+03 -0.10829855069E+03 -0.28987189227E+03  0.94986951095E+03  0.92570698570E+02 0.  0.
         13    1    3    3    0    0 -0.17804500249E+03 -0.12564185433E+02 -0.20637773895E+02  0.17967693057E+03  0.00000000000E+00 0. -1.
        -13    1    3    3    0    0 -0.71522341382E+03 -0.95734365252E+02 -0.26923411838E+03  0.77019258038E+03  0.00000000000E+00 0.  1.
         22    1    1    2    0    0  0.89326841632E+03  0.10829855069E+03  0.13786341727E+04  0.16462956058E+04  0.00000000000E+00 0. -1.
<mgrwt>
<rscale>  0 0.23568347E+04</rscale>
<asrwt>0</asrwt>
<pdfrwt beam="1">  1        1 0.28345595E+00 0.23568347E+04</pdfrwt>
<pdfrwt beam="2">  1       -1 0.11595406E+00 0.23568347E+04</pdfrwt>
<totfact> 0.23069460E+00</totfact>
</mgrwt>
</event>
<event>
 6    1  0.1885829E-005  0.1704296E+04  0.7818608E-02  0.8758918E-01
          2   -1    0    0  501    0  0.00000000000E+00  0.00000000000E+00  0.19006122947E+04  0.19006122947E+04  0.00000000000E+00 0.  1.
         -2   -1    0    0    0  501 -0.00000000000E+00 -0.00000000000E+00 -0.38206418760E+03  0.38206418760E+03  0.00000000000E+00 0. -1.
         23    2    1    2    0    0 -0.65148842147E+02  0.83072655933E+03  0.53789290876E+03  0.99580601252E+03  0.89161904744E+02 0.  0.
         13    1    3    3    0    0 -0.70755117634E+02  0.82864549840E+03  0.53641260495E+03  0.98964545744E+03  0.00000000000E+00 0.  1.
        -13    1    3    3    0    0  0.56062754869E+01  0.20810609288E+01  0.14803038156E+01  0.61605550733E+01  0.00000000000E+00 0. -1.
         22    1    1    2    0    0  0.65148842147E+02 -0.83072655933E+03  0.98065519837E+03  0.12868704698E+04  0.00000000000E+00 0.  1.
<mgrwt>
<rscale>  0 0.17042956E+04</rscale>
<asrwt>0</asrwt>
<pdfrwt beam="1">  1        2 0.29240188E+00 0.17042956E+04</pdfrwt>
<pdfrwt beam="2">  1       -2 0.58779107E-01 0.17042956E+04</pdfrwt>
<totfact> 0.19522257E+01</totfact>
</mgrwt>
</event>
<event>
 6    1  0.1885829E-005  0.1985493E+04  0.7818608E-02  0.8613433E-01
         -2   -1    0    0    0  501 -0.00000000000E+00  0.00000000000E+00  0.33402410928E+03  0.33402410928E+03  0.00000000000E+00 0.  1.
          2   -1    0    0  501    0  0.00000000000E+00 -0.00000000000E+00 -0.29505215775E+04  0.29505215775E+04  0.00000000000E+00 0. -1.
         23    2    1    2    0    0 -0.20377311975E+03  0.78075087044E+03 -0.22617004928E+04  0.24030830955E+04  0.91781472745E+02 0.  0.
         13    1    3    3    0    0 -0.16636834686E+02  0.89456578572E+02 -0.35005622256E+03  0.36168857139E+03  0.00000000000E+00 0. -1.
        -13    1    3    3    0    0 -0.18713628507E+03  0.69129429187E+03 -0.19116442702E+04  0.20413945241E+04  0.00000000000E+00 0.  1.
         22    1    1    2    0    0  0.20377311975E+03 -0.78075087044E+03 -0.35479697541E+03  0.88146259126E+03  0.00000000000E+00 0.  1.
<mgrwt>
<rscale>  0 0.19854927E+04</rscale>
<asrwt>0</asrwt>
<pdfrwt beam="1">  1        2 0.45392640E+00 0.19854927E+04</pdfrwt>
<pdfrwt beam="2">  1       -2 0.51388324E-01 0.19854927E+04</pdfrwt>
<totfact> 0.62355265E+00</totfact>
</mgrwt>
</event>
<event>
 6    1  0.1885829E-005  0.3571250E+04  0.7818608E-02  0.8097109E-01
         -2   -1    0    0    0  501 -0.00000000000E+00  0.00000000000E+00  0.10124535148E+04  0.10124535148E+04  0.00000000000E+00 0.  1.
          2   -1    0    0  501    0  0.00000000000E+00 -0.00000000000E+00 -0.31492375100E+04  0.31492375100E+04  0.00000000000E+00 0. -1.
         23    2    1    2    0    0  0.15914393748E+04 -0.10586407561E+03 -0.20015677584E+04  0.25610130695E+04  0.92886835558E+02 0.  0.
         13    1    3    3    0    0  0.62021930834E+03 -0.86660960135E+02 -0.78153453151E+03  0.10014880610E+04  0.00000000000E+00 0.  1.
        -13    1    3    3    0    0  0.97122006647E+03 -0.19203115475E+02 -0.12200332269E+04  0.15595250084E+04  0.00000000000E+00 0. -1.
         22    1    1    2    0    0 -0.15914393748E+04  0.10586407561E+03 -0.13521623680E+03  0.16006779554E+04  0.00000000000E+00 0.  1.
<mgrwt>
<rscale>  0 0.35712500E+04</rscale>
<asrwt>0</asrwt>
<pdfrwt beam="1">  1        2 0.48449808E+00 0.35712500E+04</pdfrwt>
<pdfrwt beam="2">  1       -2 0.15576208E+00 0.35712500E+04</pdfrwt>
<totfact> 0.30935563E-01</totfact>
</mgrwt>
</event>
<event>
 6    1  0.1885829E-005  0.2139838E+04  0.7818608E-02  0.8543895E-01
         -2   -1    0    0    0  501 -0.00000000000E+00  0.00000000000E+00  0.88727073191E+03  0.88727073191E+03  0.00000000000E+00 0.  1.
          2   -1    0    0  501    0  0.00000000000E+00 -0.00000000000E+00 -0.12901664718E+04  0.12901664718E+04  0.00000000000E+00 0. -1.
         23    2    1    2    0    0 -0.11712459215E+03 -0.10148640553E+04 -0.51837930137E+03  0.11493303640E+04  0.92606505189E+02 0.  0.
         13    1    3    3    0    0 -0.90638340282E+02 -0.64279571809E+03 -0.37520243134E+03  0.74978564164E+03  0.00000000000E+00 0. -1.
        -13    1    3    3    0    0 -0.26486251867E+02 -0.37206833720E+03 -0.14317687003E+03  0.39954472240E+03  0.00000000000E+00 0.  1.
         22    1    1    2    0    0  0.11712459215E+03  0.10148640553E+04  0.11548356148E+03  0.10281068397E+04  0.00000000000E+00 0.  1.
<mgrwt>
<rscale>  0 0.21398383E+04</rscale>
<asrwt>0</asrwt>
<pdfrwt beam="1">  1        2 0.19848715E+00 0.21398383E+04</pdfrwt>
<pdfrwt beam="2">  1       -2 0.13650319E+00 0.21398383E+04</pdfrwt>
<totfact> 0.59016986E+00</totfact>
</mgrwt>
</event>
<event>
 6    1  0.1885829E-005  0.3676849E+04  0.7818608E-02  0.8073112E-01
          2   -1    0    0  501    0  0.00000000000E+00  0.00000000000E+00  0.30432347836E+04  0.30432347836E+04  0.00000000000E+00 0. -1.
         -2   -1    0    0    0  501 -0.00000000000E+00 -0.00000000000E+00 -0.11105959691E+04  0.11105959691E+04  0.00000000000E+00 0.  1.
         23    2    1    2    0    0  0.17073608058E+04  0.26915395425E+03  0.26295541779E+03  0.17506313399E+04  0.89664731848E+02 0.  0.
         13    1    3    3    0    0  0.70873065090E+03  0.98271760104E+02  0.15149595773E+03  0.73137370718E+03  0.00000000000E+00 0. -1.
        -13    1    3    3    0    0  0.99863015494E+03  0.17088219415E+03  0.11145946006E+03  0.10192576327E+04  0.00000000000E+00 0.  1.
         22    1    1    2    0    0 -0.17073608058E+04 -0.26915395425E+03  0.16696833967E+04  0.24031994128E+04  0.00000000000E+00 0.  1.
<mgrwt>
<rscale>  0 0.36768488E+04</rscale>
<asrwt>0</asrwt>
<pdfrwt beam="1">  1        2 0.46818996E+00 0.36768488E+04</pdfrwt>
<pdfrwt beam="2">  1       -2 0.17086092E+00 0.36768488E+04</pdfrwt>
<totfact> 0.27813401E-01</totfact>
</mgrwt>
</event>
<event>
 6    1  0.1885829E-005  0.1297996E+04  0.7818608E-02  0.9031156E-01
          2   -1    0    0  501    0  0.00000000000E+00  0.00000000000E+00  0.67329359991E+03  0.67329359991E+03  0.00000000000E+00 0. -1.
         -2   -1    0    0    0  501 -0.00000000000E+00 -0.00000000000E+00 -0.62557872911E+03  0.62557872911E+03  0.00000000000E+00 0.  1.
         23    2    1    2    0    0 -0.14029034928E+03  0.38132961290E+03  0.52711569853E+03  0.67044666962E+03  0.80957528336E+02 0.  0.
         11    1    3    3    0    0 -0.64113317504E+02  0.75594962024E+02  0.11991356112E+03  0.15557756235E+03  0.00000000000E+00 0.  1.
        -11    1    3    3    0    0 -0.76177031778E+02  0.30573465088E+03  0.40720213740E+03  0.51486910727E+03  0.00000000000E+00 0. -1.
         22    1    1    2    0    0  0.14029034928E+03 -0.38132961290E+03 -0.47940082773E+03  0.62842565941E+03  0.00000000000E+00 0.  1.
<mgrwt>
<rscale>  0 0.12979956E+04</rscale>
<asrwt>0</asrwt>
<pdfrwt beam="1">  1        2 0.10358363E+00 0.12979956E+04</pdfrwt>
<pdfrwt beam="2">  1       -2 0.96242881E-01 0.12979956E+04</pdfrwt>
<totfact> 0.38149262E+01</totfact>
</mgrwt>
</event>
<event>
 6    1  0.1885829E-005  0.1221941E+04  0.7818608E-02  0.9093866E-01
          2   -1    0    0  501    0  0.00000000000E+00  0.00000000000E+00  0.15310473348E+04  0.15310473348E+04  0.00000000000E+00 0.  1.
         -2   -1    0    0    0  501 -0.00000000000E+00 -0.00000000000E+00 -0.24381011912E+03  0.24381011912E+03  0.00000000000E+00 0. -1.
         23    2    1    2    0    0  0.44096898497E+03  0.16968793519E+02  0.12538200606E+04  0.13322986534E+04  0.90627655090E+02 0.  0.
         13    1    3    3    0    0  0.32153556683E+03  0.30425491013E+02  0.79752493288E+03  0.86043991644E+03  0.00000000000E+00 0. -1.
        -13    1    3    3    0    0  0.11943341814E+03 -0.13456697494E+02  0.45629512774E+03  0.47185873699E+03  0.00000000000E+00 0.  1.
         22    1    1    2    0    0 -0.44096898497E+03 -0.16968793519E+02  0.33417155084E+02  0.44255880051E+03  0.00000000000E+00 0. -1.
<mgrwt>
<rscale>  0 0.12219408E+04</rscale>
<asrwt>0</asrwt>
<pdfrwt beam="1">  1        2 0.23554574E+00 0.12219408E+04</pdfrwt>
<pdfrwt beam="2">  1       -2 0.37509250E-01 0.12219408E+04</pdfrwt>
<totfact> 0.80495168E+01</totfact>
</mgrwt>
</event>
<event>
 6    1  0.1885829E-005  0.5275662E+04  0.7818608E-02  0.7787336E-01
         -2   -1    0    0    0  501 -0.00000000000E+00  0.00000000000E+00  0.27345928910E+04  0.27345928910E+04  0.00000000000E+00 0.  1.
          2   -1    0    0  501    0  0.00000000000E+00 -0.00000000000E+00 -0.25444929035E+04  0.25444929035E+04  0.00000000000E+00 0. -1.
         23    2    1    2    0    0  0.18093758087E+04  0.13267097610E+04 -0.12912931987E+04  0.25904940852E+04  0.96030586380E+02 0.  0.
         11    1    3    3    0    0  0.46243067879E+03  0.33202628033E+03 -0.37597346552E+03  0.68223136126E+03  0.00000000000E+00 0. -1.
        -11    1    3    3    0    0  0.13469451299E+04  0.99468348062E+03 -0.91531973319E+03  0.19082627239E+04  0.00000000000E+00 0.  1.
         22    1    1    2    0    0 -0.18093758087E+04 -0.13267097610E+04  0.14813931862E+04  0.26885917092E+04  0.00000000000E+00 0.  1.
<mgrwt>
<rscale>  0 0.52756619E+04</rscale>
<asrwt>0</asrwt>
<pdfrwt beam="1">  1        2 0.39146045E+00 0.52756619E+04</pdfrwt>
<pdfrwt beam="2">  1       -2 0.42070660E+00 0.52756619E+04</pdfrwt>
<totfact> 0.12693644E-02</totfact>
</mgrwt>
</event>
<event>
 6    1  0.1885829E-005  0.4598249E+04  0.7818608E-02  0.7893658E-01
         -2   -1    0    0    0  501 -0.00000000000E+00  0.00000000000E+00  0.18968421323E+04  0.18968421323E+04  0.00000000000E+00 0.  1.
          2   -1    0    0  501    0  0.00000000000E+00 -0.00000000000E+00 -0.27867234685E+04  0.27867234685E+04  0.00000000000E+00 0. -1.
         23    2    1    2    0    0 -0.10934592667E+04  0.16546407188E+04 -0.16278976103E+04  0.25673999416E+04  0.89458114696E+02 0.  0.
         11    1    3    3    0    0 -0.69290214635E+03  0.10741939708E+04 -0.11009400701E+04  0.16870314488E+04  0.00000000000E+00 0.  1.
        -11    1    3    3    0    0 -0.40055712037E+03  0.58044674805E+03 -0.52695754017E+03  0.88036849281E+03  0.00000000000E+00 0. -1.
         22    1    1    2    0    0  0.10934592667E+04 -0.16546407188E+04  0.73801627411E+03  0.21161656592E+04  0.00000000000E+00 0. -1.
<mgrwt>
<rscale>  0 0.45982494E+04</rscale>
<asrwt>0</asrwt>
<pdfrwt beam="1">  1        2 0.42872669E+00 0.45982494E+04</pdfrwt>
<pdfrwt beam="2">  1       -2 0.29182187E+00 0.45982494E+04</pdfrwt>
<totfact> 0.63138903E-02</totfact>
</mgrwt>
</event>
<event>
 6    1  0.1885829E-005  0.2946388E+04  0.7818608E-02  0.8259208E-01
          2   -1    0    0  501    0  0.00000000000E+00  0.00000000000E+00  0.32375481894E+04  0.32375481894E+04  0.00000000000E+00 0. -1.
         -2   -1    0    0    0  501 -0.00000000000E+00 -0.00000000000E+00 -0.67035308538E+03  0.67035308538E+03  0.00000000000E+00 0.  1.
         23    2    1    2    0    0 -0.31340242614E+03  0.80981186614E+03 -0.29121524149E+03  0.92050675068E+03  0.92249780111E+02 0.  0.
         13    1    3    3    0    0 -0.44612770322E+02  0.19537988303E+03 -0.40088098498E+02  0.20437870145E+03  0.00000000000E+00 0.  1.
        -13    1    3    3    0    0 -0.26878965582E+03  0.61443198311E+03 -0.25112714299E+03  0.71612804923E+03  0.00000000000E+00 0. -1.
         22    1    1    2    0    0  0.31340242614E+03 -0.80981186614E+03  0.28584103455E+04  0.29873945241E+04  0.00000000000E+00 0. -1.
<mgrwt>
<rscale>  0 0.29463879E+04</rscale>
<asrwt>0</asrwt>
<pdfrwt beam="1">  1        2 0.49808433E+00 0.29463879E+04</pdfrwt>
<pdfrwt beam="2">  1       -2 0.10313125E+00 0.29463879E+04</pdfrwt>
<totfact> 0.80795881E-01</totfact>
</mgrwt>
</event>
<event>
 6    1  0.1885829E-005  0.2058833E+04  0.7818608E-02  0.8579598E-01
          2   -1    0    0  501    0  0.00000000000E+00  0.00000000000E+00  0.16238489771E+04  0.16238489771E+04  0.00000000000E+00 0. -1.
         -2   -1    0    0    0  501 -0.00000000000E+00 -0.00000000000E+00 -0.65258431915E+03  0.65258431915E+03  0.00000000000E+00 0.  1.
         23    2    1    2    0    0  0.32050884865E+03 -0.92124137183E+03  0.13013689050E+03  0.98844746231E+03  0.93172894359E+02 0.  0.
         13    1    3    3    0    0  0.22505254612E+03 -0.65823837430E+03  0.13494566434E+03  0.70861607252E+03  0.00000000000E+00 0.  1.
        -13    1    3    3    0    0  0.95456302535E+02 -0.26300299753E+03 -0.48087738458E+01  0.27983138979E+03  0.00000000000E+00 0. -1.
         22    1    1    2    0    0 -0.32050884865E+03  0.92124137183E+03  0.84112776743E+03  0.12879858339E+04  0.00000000000E+00 0. -1.
<mgrwt>
<rscale>  0 0.20588330E+04</rscale>
<asrwt>0</asrwt>
<pdfrwt beam="1">  1        2 0.24982292E+00 0.20588330E+04</pdfrwt>
<pdfrwt beam="2">  1       -2 0.10039759E+00 0.20588330E+04</pdfrwt>
<totfact> 0.81827881E+00</totfact>
</mgrwt>
</event>
<event>
 6    1  0.1885829E-005  0.9835577E+03  0.7818608E-02  0.9326765E-01
          2   -1    0    0  501    0  0.00000000000E+00  0.00000000000E+00  0.11128884888E+04  0.11128884888E+04  0.00000000000E+00 0. -1.
         -2   -1    0    0    0  501 -0.00000000000E+00 -0.00000000000E+00 -0.21731415047E+03  0.21731415047E+03  0.00000000000E+00 0.  1.
         23    2    1    2    0    0  0.12711237580E+03 -0.45316595572E+03  0.28001441375E+03  0.55532783631E+03  0.91999969368E+02 0.  0.
         11    1    3    3    0    0  0.79213228573E+01 -0.78559476759E+02  0.86667478873E+02  0.11724159091E+03  0.00000000000E+00 0.  1.
        -11    1    3    3    0    0  0.11919105294E+03 -0.37460647896E+03  0.19334693488E+03  0.43808624540E+03  0.00000000000E+00 0. -1.
         22    1    1    2    0    0 -0.12711237580E+03  0.45316595572E+03  0.61555992453E+03  0.77487480291E+03  0.00000000000E+00 0. -1.
<mgrwt>
<rscale>  0 0.98355766E+03</rscale>
<asrwt>0</asrwt>
<pdfrwt beam="1">  1        2 0.17121361E+00 0.98355766E+03</pdfrwt>
<pdfrwt beam="2">  1       -2 0.33432947E-01 0.98355766E+03</pdfrwt>
<totfact> 0.17845049E+02</totfact>
</mgrwt>
</event>
<event>
 6    1  0.1885829E-005  0.2934041E+04  0.7818608E-02  0.8262821E-01
         -2   -1    0    0    0  501 -0.00000000000E+00  0.00000000000E+00  0.12451189333E+04  0.12451189333E+04  0.00000000000E+00 0. -1.
          2   -1    0    0  501    0  0.00000000000E+00 -0.00000000000E+00 -0.17284691860E+04  0.17284691860E+04  0.00000000000E+00 0.  1.
         23    2    1    2    0    0  0.84305914044E+03 -0.84158292346E+03  0.62330179281E+03  0.13476455369E+04  0.92913061000E+02 0.  0.
         11    1    3    3    0    0  0.67177301730E+03 -0.66489946317E+03  0.45120444587E+03  0.10473565462E+04  0.00000000000E+00 0. -1.
        -11    1    3    3    0    0  0.17128612314E+03 -0.17668346029E+03  0.17209734694E+03  0.30028899072E+03  0.00000000000E+00 0.  1.
         22    1    1    2    0    0 -0.84305914044E+03  0.84158292346E+03 -0.11066520456E+04  0.16259425824E+04  0.00000000000E+00 0.  1.
<mgrwt>
<rscale>  0 0.29340414E+04</rscale>
<asrwt>0</asrwt>
<pdfrwt beam="1">  1        2 0.26591834E+00 0.29340414E+04</pdfrwt>
<pdfrwt beam="2">  1       -2 0.19155676E+00 0.29340414E+04</pdfrwt>
<totfact> 0.12316237E+00</totfact>
</mgrwt>
</event>
<event>
 6    1  0.1885829E-005  0.2652797E+04  0.7818608E-02  0.8350485E-01
          2   -1    0    0  501    0  0.00000000000E+00  0.00000000000E+00  0.98381899666E+03  0.98381899666E+03  0.00000000000E+00 0. -1.
         -2   -1    0    0    0  501 -0.00000000000E+00 -0.00000000000E+00 -0.17882695783E+04  0.17882695783E+04  0.00000000000E+00 0.  1.
         23    2    1    2    0    0 -0.45186362264E+02  0.90154112546E+03 -0.14159549168E+04  0.16817878090E+04  0.93078998477E+02 0.  0.
         13    1    3    3    0    0  0.56704876730E+01  0.35520329124E+03 -0.62983256307E+03  0.72311174104E+03  0.00000000000E+00 0.  1.
        -13    1    3    3    0    0 -0.50856849937E+02  0.54633783422E+03 -0.78612235374E+03  0.95867606799E+03  0.00000000000E+00 0. -1.
         22    1    1    2    0    0  0.45186362264E+02 -0.90154112546E+03  0.61150433518E+03  0.10903007659E+04  0.00000000000E+00 0. -1.
<mgrwt>
<rscale>  0 0.26527975E+04</rscale>
<asrwt>0</asrwt>
<pdfrwt beam="1">  1        2 0.15135677E+00 0.26527975E+04</pdfrwt>
<pdfrwt beam="2">  1       -2 0.27511839E+00 0.26527975E+04</pdfrwt>
<totfact> 0.10248744E+00</totfact>
</mgrwt>
</event>
<event>
 6    1  0.1885829E-005  0.8062586E+03  0.7818608E-02  0.9551002E-01
         -2   -1    0    0    0  501 -0.00000000000E+00  0.00000000000E+00  0.18884757009E+03  0.18884757009E+03  0.00000000000E+00 0.  1.
          2   -1    0    0  501    0  0.00000000000E+00 -0.00000000000E+00 -0.86055251121E+03  0.86055251121E+03  0.00000000000E+00 0. -1.
         23    2    1    2    0    0  0.38131633989E+03  0.46143547494E+02 -0.47591408696E+03  0.61827894215E+03  0.90792368045E+02 0.  0.
         13    1    3    3    0    0  0.23355408562E+03  0.47126109966E+02 -0.35399511236E+03  0.42670941017E+03  0.00000000000E+00 0. -1.
        -13    1    3    3    0    0  0.14776225427E+03 -0.98256247201E+00 -0.12191897460E+03  0.19156953199E+03  0.00000000000E+00 0.  1.
         22    1    1    2    0    0 -0.38131633989E+03 -0.46143547494E+02 -0.19579085416E+03  0.43112113914E+03  0.00000000000E+00 0.  1.
<mgrwt>
<rscale>  0 0.80625865E+03</rscale>
<asrwt>0</asrwt>
<pdfrwt beam="1">  1        2 0.13239269E+00 0.80625865E+03</pdfrwt>
<pdfrwt beam="2">  1       -2 0.29053472E-01 0.80625865E+03</pdfrwt>
<totfact> 0.34105901E+02</totfact>
</mgrwt>
</event>
<event>
 6    1  0.1885829E-005  0.2306999E+04  0.7818608E-02  0.8475167E-01
         -2   -1    0    0    0  501 -0.00000000000E+00  0.00000000000E+00  0.58846627419E+03  0.58846627419E+03  0.00000000000E+00 0.  1.
          2   -1    0    0  501    0  0.00000000000E+00 -0.00000000000E+00 -0.22610660599E+04  0.22610660599E+04  0.00000000000E+00 0. -1.
         23    2    1    2    0    0  0.52363991231E+03 -0.57648591502E+03  0.21037524986E+03  0.81185479519E+03  0.91190431212E+02 0.  0.
         11    1    3    3    0    0  0.43073029776E+03 -0.42075747552E+03  0.14762667574E+03  0.61996699751E+03  0.00000000000E+00 0. -1.
        -11    1    3    3    0    0  0.92909614549E+02 -0.15572843950E+03  0.62748574114E+02  0.19188779768E+03  0.00000000000E+00 0.  1.
         22    1    1    2    0    0 -0.52363991231E+03  0.57648591502E+03 -0.18829750355E+04  0.20376775389E+04  0.00000000000E+00 0. -1.
<mgrwt>
<rscale>  0 0.23069990E+04</rscale>
<asrwt>0</asrwt>
<pdfrwt beam="1">  1        2 0.34785632E+00 0.23069990E+04</pdfrwt>
<pdfrwt beam="2">  1       -2 0.90533273E-01 0.23069990E+04</pdfrwt>
<totfact> 0.45049799E+00</totfact>
</mgrwt>
</event>
<event>
 6    1  0.1885829E-005  0.1929670E+04  0.7818608E-02  0.8640227E-01
         -1   -1    0    0    0  501 -0.00000000000E+00  0.00000000000E+00  0.57693117275E+03  0.57693117275E+03  0.00000000000E+00 0.  1.
          1   -1    0    0  501    0  0.00000000000E+00 -0.00000000000E+00 -0.16135495618E+04  0.16135495618E+04  0.00000000000E+00 0. -1.
         23    2    1    2    0    0 -0.16626156093E+03  0.68048037379E+03 -0.12690010976E+04  0.14524440357E+04  0.92376648545E+02 0.  0.
         13    1    3    3    0    0 -0.19611273958E+02  0.26117578105E+03 -0.49567750593E+03  0.56061892633E+03  0.00000000000E+00 0.  1.
        -13    1    3    3    0    0 -0.14665028698E+03  0.41930459273E+03 -0.77332359169E+03  0.89182510933E+03  0.00000000000E+00 0. -1.
         22    1    1    2    0    0  0.16626156093E+03 -0.68048037379E+03  0.23238270853E+03  0.73803669893E+03  0.00000000000E+00 0.  1.
<mgrwt>
<rscale>  0 0.19296705E+04</rscale>
<asrwt>0</asrwt>
<pdfrwt beam="1">  1        1 0.24823839E+00 0.19296705E+04</pdfrwt>
<pdfrwt beam="2">  1       -1 0.88758642E-01 0.19296705E+04</pdfrwt>
<totfact> 0.63482065E+00</totfact>
</mgrwt>
</event>
<event>
 6    1  0.1885829E-005  0.1374223E+04  0.7818608E-02  0.8972692E-01
         -2   -1    0    0    0  501 -0.00000000000E+00  0.00000000000E+00  0.18874671892E+03  0.18874671892E+03  0.00000000000E+00 0.  1.
          2   -1    0    0  501    0  0.00000000000E+00 -0.00000000000E+00 -0.25013525474E+04  0.25013525474E+04  0.00000000000E+00 0. -1.
         23    2    1    2    0    0 -0.24994389166E+03  0.11801298948E+03 -0.23863280366E+04  0.24040328778E+04  0.91725484163E+02 0.  0.
         13    1    3    3    0    0 -0.17149949405E+03  0.77263203147E+02 -0.19356080413E+04  0.19447262451E+04  0.00000000000E+00 0. -1.
        -13    1    3    3    0    0 -0.78444397614E+02  0.40749786333E+02 -0.45071999531E+03  0.45930663263E+03  0.00000000000E+00 0.  1.
         22    1    1    2    0    0  0.24994389166E+03 -0.11801298948E+03  0.73722208154E+02  0.28606638852E+03  0.00000000000E+00 0.  1.
<mgrwt>
<rscale>  0 0.13742228E+04</rscale>
<asrwt>0</asrwt>
<pdfrwt beam="1">  1        2 0.38482343E+00 0.13742228E+04</pdfrwt>
<pdfrwt beam="2">  1       -2 0.29037959E-01 0.13742228E+04</pdfrwt>
<totfact> 0.37067174E+01</totfact>
</mgrwt>
</event>
<event>
 6    1  0.1885829E-005  0.1693566E+04  0.7818608E-02  0.8765042E-01
         -2   -1    0    0    0  501 -0.00000000000E+00  0.00000000000E+00  0.34934509919E+03  0.34934509919E+03  0.00000000000E+00 0.  1.
          2   -1    0    0  501    0  0.00000000000E+00 -0.00000000000E+00 -0.20525307312E+04  0.20525307312E+04  0.00000000000E+00 0. -1.
         23    2    1    2    0    0 -0.45912085295E+03 -0.42388855490E+03 -0.49249332670E+02  0.63383206768E+03  0.94043227637E+02 0.  0.
         11    1    3    3    0    0 -0.58211976065E+02 -0.10332014628E+03 -0.78066416140E+01  0.11884708847E+03  0.00000000000E+00 0. -1.
        -11    1    3    3    0    0 -0.40090887688E+03 -0.32056840862E+03 -0.41442691056E+02  0.51498497921E+03  0.00000000000E+00 0.  1.
         22    1    1    2    0    0  0.45912085295E+03  0.42388855490E+03 -0.16539362993E+04  0.17680437627E+04  0.00000000000E+00 0. -1.
<mgrwt>
<rscale>  0 0.16935661E+04</rscale>
<asrwt>0</asrwt>
<pdfrwt beam="1">  1        2 0.31577396E+00 0.16935661E+04</pdfrwt>
<pdfrwt beam="2">  1       -2 0.53745399E-01 0.16935661E+04</pdfrwt>
<totfact> 0.19397763E+01</totfact>
</mgrwt>
</event>
<event>
 6    1  0.1885829E-005  0.4957961E+04  0.7818608E-02  0.7835025E-01
         -1   -1    0    0    0  501 -0.00000000000E+00  0.00000000000E+00  0.18002327984E+04  0.18002327984E+04  0.00000000000E+00 0.  1.
          1   -1    0    0  501    0  0.00000000000E+00 -0.00000000000E+00 -0.34136387553E+04  0.34136387553E+04  0.00000000000E+00 0. -1.
         23    2    1    2    0    0 -0.20887761897E+04  0.10229933762E+04 -0.17064378908E+04  0.28861781978E+04  0.92697874477E+02 0.  0.
         11    1    3    3    0    0 -0.13359943935E+04  0.65037384608E+03 -0.10347632763E+04  0.18106910828E+04  0.00000000000E+00 0. -1.
        -11    1    3    3    0    0 -0.75278179619E+03  0.37261953008E+03 -0.67167461445E+03  0.10754871150E+04  0.00000000000E+00 0.  1.
         22    1    1    2    0    0  0.20887761897E+04 -0.10229933762E+04  0.93031933844E+02  0.23276933559E+04  0.00000000000E+00 0.  1.
<mgrwt>
<rscale>  0 0.49579611E+04</rscale>
<asrwt>0</asrwt>
<pdfrwt beam="1">  1        1 0.52517519E+00 0.49579611E+04</pdfrwt>
<pdfrwt beam="2">  1       -1 0.27695890E+00 0.49579611E+04</pdfrwt>
<totfact> 0.98413869E-03</totfact>
</mgrwt>
</event>
<event>
 6    1  0.1885829E-005  0.7850680E+03  0.7818608E-02  0.9581886E-01
         -2   -1    0    0    0  501 -0.00000000000E+00  0.00000000000E+00  0.13971014092E+03  0.13971014092E+03  0.00000000000E+00 0.  1.
          2   -1    0    0  501    0  0.00000000000E+00 -0.00000000000E+00 -0.11028757886E+04  0.11028757886E+04  0.00000000000E+00 0. -1.
         23    2    1    2    0    0 -0.15643452587E+03  0.25824573806E+03 -0.87191844817E+03  0.92716767778E+03  0.90749657516E+02 0.  0.
         13    1    3    3    0    0 -0.15603702953E+03  0.20073886148E+03 -0.65103723561E+03  0.69892283354E+03  0.00000000000E+00 0.  1.
        -13    1    3    3    0    0 -0.39749633722E+00  0.57506876585E+02 -0.22088121256E+03  0.22824484424E+03  0.00000000000E+00 0. -1.
         22    1    1    2    0    0  0.15643452587E+03 -0.25824573806E+03 -0.91247199506E+02  0.31541825174E+03  0.00000000000E+00 0.  1.
<mgrwt>
<rscale>  0 0.78506798E+03</rscale>
<asrwt>0</asrwt>
<pdfrwt beam="1">  1        2 0.16967320E+00 0.78506798E+03</pdfrwt>
<pdfrwt beam="2">  1       -2 0.21493868E-01 0.78506798E+03</pdfrwt>
<totfact> 0.41007618E+02</totfact>
</mgrwt>
</event>
<event>
 6    1  0.1885829E-005  0.2091167E+04  0.7818608E-02  0.8565144E-01
         -2   -1    0    0    0  501 -0.00000000000E+00  0.00000000000E+00  0.34264937593E+03  0.34264937593E+03  0.00000000000E+00 0.  1.
          2   -1    0    0  501    0  0.00000000000E+00 -0.00000000000E+00 -0.31905652417E+04  0.31905652417E+04  0.00000000000E+00 0. -1.
         23    2    1    2    0    0 -0.71601495844E+03  0.71808816464E+03 -0.18419333896E+04  0.21048138422E+04  0.95888819426E+02 0.  0.
         11    1    3    3    0    0 -0.56242347933E+03  0.51498988284E+03 -0.14268915640E+04  0.16178857453E+04  0.00000000000E+00 0. -1.
        -11    1    3    3    0    0 -0.15359147911E+03  0.20309828180E+03 -0.41504182563E+03  0.48692809689E+03  0.00000000000E+00 0.  1.
         22    1    1    2    0    0  0.71601495844E+03 -0.71808816464E+03 -0.10059824762E+04  0.14284007755E+04  0.00000000000E+00 0.  1.
<mgrwt>
<rscale>  0 0.20911673E+04</rscale>
<asrwt>0</asrwt>
<pdfrwt beam="1">  1        2 0.49085622E+00 0.20911673E+04</pdfrwt>
<pdfrwt beam="2">  1       -2 0.52715286E-01 0.20911673E+04</pdfrwt>
<totfact> 0.41290684E+00</totfact>
</mgrwt>
</event>
<event>
 6    1  0.1885829E-005  0.1770081E+04  0.7818608E-02  0.8722374E-01
         -2   -1    0    0    0  501 -0.00000000000E+00  0.00000000000E+00  0.77167759920E+03  0.77167759920E+03  0.00000000000E+00 0.  1.
          2   -1    0    0  501    0  0.00000000000E+00 -0.00000000000E+00 -0.10150565555E+04  0.10150565555E+04  0.00000000000E+00 0. -1.
         23    2    1    2    0    0  0.53525427945E+03 -0.67462503495E+03 -0.31666043923E+03  0.92245048758E+03  0.94999930543E+02 0.  0.
         11    1    3    3    0    0  0.25212612844E+03 -0.38700191385E+03 -0.19012077349E+03  0.49948370792E+03  0.00000000000E+00 0.  1.
        -11    1    3    3    0    0  0.28312815101E+03 -0.28762312111E+03 -0.12653966575E+03  0.42296677966E+03  0.00000000000E+00 0. -1.
         22    1    1    2    0    0 -0.53525427945E+03  0.67462503495E+03  0.73281482960E+02  0.86428366709E+03  0.00000000000E+00 0.  1.
<mgrwt>
<rscale>  0 0.17700807E+04</rscale>
<asrwt>0</asrwt>
<pdfrwt beam="1">  1        2 0.15616255E+00 0.17700807E+04</pdfrwt>
<pdfrwt beam="2">  1       -2 0.11871963E+00 0.17700807E+04</pdfrwt>
<totfact> 0.12714108E+01</totfact>
</mgrwt>
</event>
<event>
 6    1  0.1885829E-005  0.2285613E+04  0.7818608E-02  0.8483615E-01
         -1   -1    0    0    0  501 -0.00000000000E+00  0.00000000000E+00  0.66042996428E+03  0.66042996428E+03  0.00000000000E+00 0.  1.
          1   -1    0    0  501    0  0.00000000000E+00 -0.00000000000E+00 -0.19775104938E+04  0.19775104938E+04  0.00000000000E+00 0. -1.
         23    2    1    2    0    0  0.32636396244E+03 -0.76875129784E+03 -0.15558187380E+04  0.17693278136E+04  0.11161080883E+03 0.  0.
         11    1    3    3    0    0  0.31185025469E+03 -0.63532512405E+03 -0.12818194959E+04  0.14642232803E+04  0.00000000000E+00 0.  1.
        -11    1    3    3    0    0  0.14513707753E+02 -0.13342617379E+03 -0.27399924210E+03  0.30510453330E+03  0.00000000000E+00 0. -1.
         22    1    1    2    0    0 -0.32636396244E+03  0.76875129784E+03  0.23873820848E+03  0.86861264445E+03  0.00000000000E+00 0.  1.
<mgrwt>
<rscale>  0 0.22856134E+04</rscale>
<asrwt>0</asrwt>
<pdfrwt beam="1">  1        1 0.30423238E+00 0.22856134E+04</pdfrwt>
<pdfrwt beam="2">  1       -1 0.10160461E+00 0.22856134E+04</pdfrwt>
<totfact> 0.25662232E+00</totfact>
</mgrwt>
</event>
<event>
 6    1  0.1885829E-005  0.1724500E+04  0.7818608E-02  0.8747513E-01
         -4   -1    0    0    0  501 -0.00000000000E+00  0.00000000000E+00  0.76237464900E+03  0.76237464900E+03  0.00000000000E+00 0.  1.
          4   -1    0    0  501    0  0.00000000000E+00 -0.00000000000E+00 -0.97520964808E+03  0.97520964808E+03  0.00000000000E+00 0. -1.
         23    2    1    2    0    0 -0.42318810094E+03 -0.69764858555E+03  0.16652652666E+03  0.83774159699E+03  0.90984512663E+02 0.  0.
         11    1    3    3    0    0 -0.17296998854E+03 -0.24143709592E+03  0.22512428640E+02  0.29785449076E+03  0.00000000000E+00 0.  1.
        -11    1    3    3    0    0 -0.25021811240E+03 -0.45621148963E+03  0.14401409802E+03  0.53988710623E+03  0.00000000000E+00 0. -1.
         22    1    1    2    0    0  0.42318810094E+03  0.69764858555E+03 -0.37936152574E+03  0.89984270009E+03  0.00000000000E+00 0. -1.
<mgrwt>
<rscale>  0 0.17245001E+04</rscale>
<asrwt>0</asrwt>
<pdfrwt beam="1">  1        4 0.15003225E+00 0.17245001E+04</pdfrwt>
<pdfrwt beam="2">  1       -4 0.11728841E+00 0.17245001E+04</pdfrwt>
<totfact> 0.31699878E-01</totfact>
</mgrwt>
</event>
<event>
 6    1  0.1885829E-005  0.1262052E+04  0.7818608E-02  0.9060212E-01
         -1   -1    0    0    0  501 -0.00000000000E+00  0.00000000000E+00  0.98372368571E+03  0.98372368571E+03  0.00000000000E+00 0.  1.
          1   -1    0    0  501    0  0.00000000000E+00 -0.00000000000E+00 -0.40478222162E+03  0.40478222162E+03  0.00000000000E+00 0. -1.
         23    2    1    2    0    0  0.33079224841E+03  0.26799512363E+03  0.79858383617E+03  0.90945719425E+03  0.90173981177E+02 0.  0.
         13    1    3    3    0    0  0.28233980754E+03  0.23450858466E+03  0.61016454286E+03  0.71204691739E+03  0.00000000000E+00 0.  1.
        -13    1    3    3    0    0  0.48452440868E+02  0.33486538978E+02  0.18841929331E+03  0.19741027686E+03  0.00000000000E+00 0. -1.
         22    1    1    2    0    0 -0.33079224841E+03 -0.26799512363E+03 -0.21964237208E+03  0.47904871309E+03  0.00000000000E+00 0. -1.
<mgrwt>
<rscale>  0 0.12620521E+04</rscale>
<asrwt>0</asrwt>
<pdfrwt beam="1">  1        1 0.62274188E-01 0.12620521E+04</pdfrwt>
<pdfrwt beam="2">  1       -1 0.15134210E+00 0.12620521E+04</pdfrwt>
<totfact> 0.19817703E+01</totfact>
</mgrwt>
</event>
<event>
 6    1  0.1885829E-005  0.1789025E+04  0.7818608E-02  0.8712158E-01
          2   -1    0    0  501    0  0.00000000000E+00  0.00000000000E+00  0.15319700330E+04  0.15319700330E+04  0.00000000000E+00 0. -1.
         -2   -1    0    0    0  501 -0.00000000000E+00 -0.00000000000E+00 -0.52230315003E+03  0.52230315003E+03  0.00000000000E+00 0.  1.
         23    2    1    2    0    0 -0.36404845624E+02  0.85436170081E+03  0.79888781157E+03  0.11735422107E+04  0.87865558284E+02 0.  0.
         11    1    3    3    0    0 -0.56616293769E+02  0.50537842341E+03  0.50758496680E+03  0.71850904942E+03  0.00000000000E+00 0. -1.
        -11    1    3    3    0    0  0.20211448144E+02  0.34898327740E+03  0.29130284477E+03  0.45503316133E+03  0.00000000000E+00 0.  1.
         22    1    1    2    0    0  0.36404845624E+02 -0.85436170081E+03  0.21077907141E+03  0.88073097229E+03  0.00000000000E+00 0.  1.
<mgrwt>
<rscale>  0 0.17890252E+04</rscale>
<asrwt>0</asrwt>
<pdfrwt beam="1">  1        2 0.23568770E+00 0.17890252E+04</pdfrwt>
<pdfrwt beam="2">  1       -2 0.80354331E-01 0.17890252E+04</pdfrwt>
<totfact> 0.15747281E+01</totfact>
</mgrwt>
</event>
<event>
 6    1  0.1885829E-005  0.1031282E+04  0.7818608E-02  0.9274885E-01
          1   -1    0    0  501    0  0.00000000000E+00  0.00000000000E+00  0.25005760282E+03  0.25005760282E+03  0.00000000000E+00 0. -1.
         -1   -1    0    0    0  501 -0.00000000000E+00 -0.00000000000E+00 -0.10632973228E+04  0.10632973228E+04  0.00000000000E+00 0.  1.
         23    2    1    2    0    0 -0.38724740257E+03  0.29474705954E+03 -0.20921259493E+03  0.53767126090E+03  0.92109147312E+02 0.  0.
         13    1    3    3    0    0 -0.10639386184E+03  0.13192964759E+03 -0.54318287665E+02  0.17797629653E+03  0.00000000000E+00 0. -1.
        -13    1    3    3    0    0 -0.28085354073E+03  0.16281741195E+03 -0.15489430726E+03  0.35969496437E+03  0.00000000000E+00 0.  1.
         22    1    1    2    0    0  0.38724740257E+03 -0.29474705954E+03 -0.60402712503E+03  0.77568366469E+03  0.00000000000E+00 0.  1.
<mgrwt>
<rscale>  0 0.10312819E+04</rscale>
<asrwt>0</asrwt>
<pdfrwt beam="1">  1        1 0.38470400E-01 0.10312819E+04</pdfrwt>
<pdfrwt beam="2">  1       -1 0.16358420E+00 0.10312819E+04</pdfrwt>
<totfact> 0.30563885E+01</totfact>
</mgrwt>
</event>
<event>
 6    1  0.1885829E-005  0.2381367E+04  0.7818608E-02  0.8446512E-01
         -2   -1    0    0    0  501 -0.00000000000E+00  0.00000000000E+00  0.41697630850E+03  0.41697630850E+03  0.00000000000E+00 0.  1.
          2   -1    0    0  501    0  0.00000000000E+00 -0.00000000000E+00 -0.34000194660E+04  0.34000194660E+04  0.00000000000E+00 0. -1.
         23    2    1    2    0    0 -0.45948002553E+03  0.33466601529E+03  0.17966454573E+03  0.60361075996E+03  0.94569365543E+02 0.  0.
         13    1    3    3    0    0 -0.38192615454E+03  0.29012555651E+03  0.18488089624E+03  0.51402468020E+03  0.00000000000E+00 0.  1.
        -13    1    3    3    0    0 -0.77553870988E+02  0.44540458785E+02 -0.52163505177E+01  0.89586079760E+02  0.00000000000E+00 0. -1.
         22    1    1    2    0    0  0.45948002553E+03 -0.33466601529E+03 -0.31627077032E+04  0.32133850145E+04  0.00000000000E+00 0. -1.
<mgrwt>
<rscale>  0 0.23813673E+04</rscale>
<asrwt>0</asrwt>
<pdfrwt beam="1">  1        2 0.52307991E+00 0.23813673E+04</pdfrwt>
<pdfrwt beam="2">  1       -2 0.64150202E-01 0.23813673E+04</pdfrwt>
<totfact> 0.19315275E+00</totfact>
</mgrwt>
</event>
<event>
 6    1  0.1885829E-005  0.1055594E+04  0.7818608E-02  0.9249588E-01
         -2   -1    0    0    0  501 -0.00000000000E+00  0.00000000000E+00  0.12513321440E+03  0.12513321440E+03  0.00000000000E+00 0.  1.
          2   -1    0    0  501    0  0.00000000000E+00 -0.00000000000E+00 -0.22261842024E+04  0.22261842024E+04  0.00000000000E+00 0. -1.
         23    2    1    2    0    0  0.27815242118E+03 -0.23148648263E+03 -0.19021101818E+04  0.19383619647E+04  0.90935150172E+02 0.  0.
         13    1    3    3    0    0  0.20494877220E+03 -0.11403855610E+03 -0.11657870562E+04  0.11891460179E+04  0.00000000000E+00 0.  1.
        -13    1    3    3    0    0  0.73203648973E+02 -0.11744792653E+03 -0.73632312561E+03  0.74921594682E+03  0.00000000000E+00 0. -1.
         22    1    1    2    0    0 -0.27815242118E+03  0.23148648263E+03 -0.19894080624E+03  0.41295545212E+03  0.00000000000E+00 0.  1.
<mgrwt>
<rscale>  0 0.10555938E+04</rscale>
<asrwt>0</asrwt>
<pdfrwt beam="1">  1        2 0.34248986E+00 0.10555938E+04</pdfrwt>
<pdfrwt beam="2">  1       -2 0.19251265E-01 0.10555938E+04</pdfrwt>
<totfact> 0.11419254E+02</totfact>
</mgrwt>
</event>
<event>
 6    1  0.1885829E-005  0.3310323E+04  0.7818608E-02  0.8160274E-01
         -2   -1    0    0    0  501 -0.00000000000E+00  0.00000000000E+00  0.12394935842E+04  0.12394935842E+04  0.00000000000E+00 0.  1.
          2   -1    0    0  501    0  0.00000000000E+00 -0.00000000000E+00 -0.22102254410E+04  0.22102254410E+04  0.00000000000E+00 0. -1.
         23    2    1    2    0    0  0.44272778774E+02  0.98464478367E+03  0.89906511477E+03  0.13360430463E+04  0.72163092640E+02 0.  0.
         13    1    3    3    0    0  0.37785938225E+02  0.26212455807E+03  0.21633965195E+03  0.34196477315E+03  0.00000000000E+00 0.  1.
        -13    1    3    3    0    0  0.64868405492E+01  0.72252022559E+03  0.68272546282E+03  0.99407827311E+03  0.00000000000E+00 0. -1.
         22    1    1    2    0    0 -0.44272778774E+02 -0.98464478367E+03 -0.18697969715E+04  0.21136759789E+04  0.00000000000E+00 0. -1.
<mgrwt>
<rscale>  0 0.33103234E+04</rscale>
<asrwt>0</asrwt>
<pdfrwt beam="1">  1        2 0.34003468E+00 0.33103234E+04</pdfrwt>
<pdfrwt beam="2">  1       -2 0.19069132E+00 0.33103234E+04</pdfrwt>
<totfact> 0.65214012E-01</totfact>
</mgrwt>
</event>
<event>
 6    1  0.1885829E-005  0.3453823E+04  0.7818608E-02  0.8124821E-01
         -2   -1    0    0    0  501 -0.00000000000E+00  0.00000000000E+00  0.21028123144E+04  0.21028123144E+04  0.00000000000E+00 0. -1.
          2   -1    0    0  501    0  0.00000000000E+00 -0.00000000000E+00 -0.14182073611E+04  0.14182073611E+04  0.00000000000E+00 0.  1.
         23    2    1    2    0    0 -0.46405246010E+03  0.85747942778E+03 -0.11090601755E+04  0.14794883266E+04  0.90860226941E+02 0.  0.
         11    1    3    3    0    0 -0.72050454531E+02  0.75126683529E+02 -0.12302667168E+03  0.16115473471E+03  0.00000000000E+00 0.  1.
        -11    1    3    3    0    0 -0.39200200557E+03  0.78235274425E+03 -0.98603350379E+03  0.13183335919E+04  0.00000000000E+00 0. -1.
         22    1    1    2    0    0  0.46405246010E+03 -0.85747942778E+03  0.17936651288E+04  0.20415313490E+04  0.00000000000E+00 0. -1.
<mgrwt>
<rscale>  0 0.34538233E+04</rscale>
<asrwt>0</asrwt>
<pdfrwt beam="1">  1        2 0.21818575E+00 0.34538233E+04</pdfrwt>
<pdfrwt beam="2">  1       -2 0.32350959E+00 0.34538233E+04</pdfrwt>
<totfact> 0.26534015E-01</totfact>
</mgrwt>
</event>
<event>
 6    1  0.1885829E-005  0.2959388E+04  0.7818608E-02  0.8255424E-01
         -2   -1    0    0    0  501 -0.00000000000E+00  0.00000000000E+00  0.13795125413E+04  0.13795125413E+04  0.00000000000E+00 0. -1.
          2   -1    0    0  501    0  0.00000000000E+00 -0.00000000000E+00 -0.15871503218E+04  0.15871503218E+04  0.00000000000E+00 0.  1.
         23    2    1    2    0    0 -0.13782883615E+04 -0.47527490867E+03  0.14133106494E+03  0.14675483573E+04  0.90325327124E+02 0.  0.
         13    1    3    3    0    0 -0.30018435776E+03 -0.66148229740E+02  0.19424488730E+02  0.30799926575E+03  0.00000000000E+00 0. -1.
        -13    1    3    3    0    0 -0.10781040038E+04 -0.40912667893E+03  0.12190657621E+03  0.11595490915E+04  0.00000000000E+00 0.  1.
         22    1    1    2    0    0  0.13782883615E+04  0.47527490867E+03 -0.34896884549E+03  0.14991145058E+04  0.00000000000E+00 0.  1.
<mgrwt>
<rscale>  0 0.29593876E+04</rscale>
<asrwt>0</asrwt>
<pdfrwt beam="1">  1        2 0.24417697E+00 0.29593876E+04</pdfrwt>
<pdfrwt beam="2">  1       -2 0.21223270E+00 0.29593876E+04</pdfrwt>
<totfact> 0.10789255E+00</totfact>
</mgrwt>
</event>
<event>
 6    1  0.1885829E-005  0.1252034E+04  0.7818608E-02  0.9068492E-01
         -2   -1    0    0    0  501 -0.00000000000E+00  0.00000000000E+00  0.11912487282E+03  0.11912487282E+03  0.00000000000E+00 0.  1.
          2   -1    0    0  501    0  0.00000000000E+00 -0.00000000000E+00 -0.32898024215E+04  0.32898024215E+04  0.00000000000E+00 0. -1.
         23    2    1    2    0    0 -0.13330563496E+03 -0.57045608225E+03 -0.21708928658E+04  0.22501521020E+04  0.84959481656E+02 0.  0.
         13    1    3    3    0    0 -0.54840098608E+02 -0.37316387306E+03 -0.12880943687E+04  0.13421795019E+04  0.00000000000E+00 0. -1.
        -13    1    3    3    0    0 -0.78465536348E+02 -0.19729220919E+03 -0.88279849711E+03  0.90797260020E+03  0.00000000000E+00 0.  1.
         22    1    1    2    0    0  0.13330563496E+03  0.57045608225E+03 -0.99978468288E+03  0.11587751923E+04  0.00000000000E+00 0.  1.
<mgrwt>
<rscale>  0 0.12520340E+04</rscale>
<asrwt>0</asrwt>
<pdfrwt beam="1">  1        2 0.50612339E+00 0.12520340E+04</pdfrwt>
<pdfrwt beam="2">  1       -2 0.18326906E-01 0.12520340E+04</pdfrwt>
<totfact> 0.28220051E+01</totfact>
</mgrwt>
</event>
<event>
 6    1  0.1885829E-005  0.1508408E+04  0.7818608E-02  0.8878881E-01
          2   -1    0    0  501    0  0.00000000000E+00  0.00000000000E+00  0.14402890113E+04  0.14402890113E+04  0.00000000000E+00 0. -1.
         -2   -1    0    0    0  501 -0.00000000000E+00 -0.00000000000E+00 -0.39493709493E+03  0.39493709493E+03  0.00000000000E+00 0.  1.
         23    2    1    2    0    0 -0.26576363835E+03  0.52985815804E+03 -0.36899391022E+02  0.60126991923E+03  0.93722844588E+02 0.  0.
         11    1    3    3    0    0 -0.11283290792E+03  0.13131034787E+03 -0.16224680542E+02  0.17388764426E+03  0.00000000000E+00 0. -1.
        -11    1    3    3    0    0 -0.15293073043E+03  0.39854781017E+03 -0.20674710480E+02  0.42738227497E+03  0.00000000000E+00 0.  1.
         22    1    1    2    0    0  0.26576363835E+03 -0.52985815804E+03  0.10822513074E+04  0.12339561870E+04  0.00000000000E+00 0. -1.
<mgrwt>
<rscale>  0 0.15084078E+04</rscale>
<asrwt>0</asrwt>
<pdfrwt beam="1">  1        2 0.22158292E+00 0.15084078E+04</pdfrwt>
<pdfrwt beam="2">  1       -2 0.60759554E-01 0.15084078E+04</pdfrwt>
<totfact> 0.33413389E+01</totfact>
</mgrwt>
</event>
<event>
 6    1  0.1885829E-005  0.2615465E+04  0.7818608E-02  0.8362967E-01
         -2   -1    0    0    0  501 -0.00000000000E+00  0.00000000000E+00  0.73195133421E+03  0.73195133421E+03  0.00000000000E+00 0.  1.
          2   -1    0    0  501    0  0.00000000000E+00 -0.00000000000E+00 -0.23364455043E+04  0.23364455043E+04  0.00000000000E+00 0. -1.
         23    2    1    2    0    0 -0.82303816523E+03 -0.81817400541E+03 -0.10018378711E+03  0.11684625626E+04  0.92018717455E+02 0.  0.
         13    1    3    3    0    0 -0.36640106176E+03 -0.39925803800E+03 -0.85501777691E+02  0.54860484227E+03  0.00000000000E+00 0.  1.
        -13    1    3    3    0    0 -0.45663710347E+03 -0.41891596741E+03 -0.14682009416E+02  0.61985772030E+03  0.00000000000E+00 0. -1.
         22    1    1    2    0    0  0.82303816523E+03  0.81817400541E+03 -0.15043103829E+04  0.18999342759E+04  0.00000000000E+00 0. -1.
<mgrwt>
<rscale>  0 0.26154651E+04</rscale>
<asrwt>0</asrwt>
<pdfrwt beam="1">  1        2 0.35945315E+00 0.26154651E+04</pdfrwt>
<pdfrwt beam="2">  1       -2 0.11260790E+00 0.26154651E+04</pdfrwt>
<totfact> 0.23696039E+00</totfact>
</mgrwt>
</event>
<event>
 6    1  0.1885829E-005  0.1707491E+04  0.7818608E-02  0.8757103E-01
          2   -1    0    0  501    0  0.00000000000E+00  0.00000000000E+00  0.21493795826E+04  0.21493795826E+04  0.00000000000E+00 0. -1.
         -2   -1    0    0    0  501 -0.00000000000E+00 -0.00000000000E+00 -0.33911252510E+03  0.33911252510E+03  0.00000000000E+00 0.  1.
         23    2    1    2    0    0  0.17068355996E+03 -0.83192973273E+03  0.81764940835E+03  0.11821499798E+04  0.87681593512E+02 0.  0.
         13    1    3    3    0    0  0.17865401569E+03 -0.73062752446E+03  0.72160390920E+03  0.10423272224E+04  0.00000000000E+00 0. -1.
        -13    1    3    3    0    0 -0.79704557304E+01 -0.10130220827E+03  0.96045499153E+02  0.13982275735E+03  0.00000000000E+00 0.  1.
         22    1    1    2    0    0 -0.17068355996E+03  0.83192973273E+03  0.99261764919E+03  0.13063421280E+04  0.00000000000E+00 0.  1.
<mgrwt>
<rscale>  0 0.17074912E+04</rscale>
<asrwt>0</asrwt>
<pdfrwt beam="1">  1        2 0.33067377E+00 0.17074912E+04</pdfrwt>
<pdfrwt beam="2">  1       -2 0.52171159E-01 0.17074912E+04</pdfrwt>
<totfact> 0.18191228E+01</totfact>
</mgrwt>
</event>
<event>
 6    1  0.1885829E-005  0.2489048E+04  0.7818608E-02  0.8406898E-01
         -2   -1    0    0    0  501 -0.00000000000E+00  0.00000000000E+00  0.14723329442E+04  0.14723329442E+04  0.00000000000E+00 0.  1.
          2   -1    0    0  501    0  0.00000000000E+00 -0.00000000000E+00 -0.10519634631E+04  0.10519634631E+04  0.00000000000E+00 0. -1.
         23    2    1    2    0    0  0.63657946733E+03  0.68258822187E+03 -0.62187183643E+03  0.11252156152E+04  0.90694547519E+02 0.  0.
         11    1    3    3    0    0  0.19071030632E+03  0.26643722721E+03 -0.20640024146E+03  0.38724704860E+03  0.00000000000E+00 0.  1.
        -11    1    3    3    0    0  0.44586916101E+03  0.41615099466E+03 -0.41547159498E+03  0.73796856663E+03  0.00000000000E+00 0. -1.
         22    1    1    2    0    0 -0.63657946733E+03 -0.68258822187E+03  0.10422413175E+04  0.13990807921E+04  0.00000000000E+00 0.  1.
<mgrwt>
<rscale>  0 0.24890484E+04</rscale>
<asrwt>0</asrwt>
<pdfrwt beam="1">  1        2 0.16184053E+00 0.24890484E+04</pdfrwt>
<pdfrwt beam="2">  1       -2 0.22651276E+00 0.24890484E+04</pdfrwt>
<totfact> 0.18732546E+00</totfact>
</mgrwt>
</event>
<event>
 6    1  0.1885829E-005  0.4896422E+04  0.7818608E-02  0.7844687E-01
          2   -1    0    0  501    0  0.00000000000E+00  0.00000000000E+00  0.36479641263E+04  0.36479641263E+04  0.00000000000E+00 0.  1.
         -2   -1    0    0    0  501 -0.00000000000E+00 -0.00000000000E+00 -0.16430360779E+04  0.16430360779E+04  0.00000000000E+00 0. -1.
         23    2    1    2    0    0 -0.11052416858E+04  0.11644373823E+04  0.29988577997E+04  0.34027814797E+04  0.91104854302E+02 0.  0.
         11    1    3    3    0    0 -0.58640152692E+03  0.65230276727E+03  0.15555961626E+04  0.17858457582E+04  0.00000000000E+00 0. -1.
        -11    1    3    3    0    0 -0.51884015884E+03  0.51213461506E+03  0.14432616371E+04  0.16169357215E+04  0.00000000000E+00 0.  1.
         22    1    1    2    0    0  0.11052416858E+04 -0.11644373823E+04 -0.99392975126E+03  0.18882187246E+04  0.00000000000E+00 0. -1.
<mgrwt>
<rscale>  0 0.48964218E+04</rscale>
<asrwt>0</asrwt>
<pdfrwt beam="1">  1        2 0.56122525E+00 0.48964218E+04</pdfrwt>
<pdfrwt beam="2">  1       -2 0.25277478E+00 0.48964218E+04</pdfrwt>
<totfact> 0.28830063E-02</totfact>
</mgrwt>
</event>
<event>
 6    1  0.1885829E-005  0.1016195E+04  0.7818608E-02  0.9290958E-01
          2   -1    0    0  501    0  0.00000000000E+00  0.00000000000E+00  0.29648204360E+03  0.29648204360E+03  0.00000000000E+00 0. -1.
         -2   -1    0    0    0  501 -0.00000000000E+00 -0.00000000000E+00 -0.87075532973E+03  0.87075532973E+03  0.00000000000E+00 0.  1.
         23    2    1    2    0    0  0.85373250513E+01 -0.47213256662E+03 -0.87046535432E+02  0.48873022305E+03  0.91093826395E+02 0.  0.
         11    1    3    3    0    0  0.42313224701E+02 -0.27143155545E+03 -0.24437967336E+02  0.27579469271E+03  0.00000000000E+00 0. -1.
        -11    1    3    3    0    0 -0.33775899650E+02 -0.20070101117E+03 -0.62608568095E+02  0.21293553034E+03  0.00000000000E+00 0.  1.
         22    1    1    2    0    0 -0.85373250513E+01  0.47213256662E+03 -0.48722675070E+03  0.67850715028E+03  0.00000000000E+00 0.  1.
<mgrwt>
<rscale>  0 0.10161955E+04</rscale>
<asrwt>0</asrwt>
<pdfrwt beam="1">  1        2 0.45612622E-01 0.10161955E+04</pdfrwt>
<pdfrwt beam="2">  1       -2 0.13396236E+00 0.10161955E+04</pdfrwt>
<totfact> 0.44617007E+01</totfact>
</mgrwt>
</event>
<event>
 6    1  0.1885829E-005  0.1533843E+04  0.7818608E-02  0.8862254E-01
         -2   -1    0    0    0  501 -0.00000000000E+00  0.00000000000E+00  0.39560289959E+03  0.39560289959E+03  0.00000000000E+00 0.  1.
          2   -1    0    0  501    0  0.00000000000E+00 -0.00000000000E+00 -0.14867653100E+04  0.14867653100E+04  0.00000000000E+00 0. -1.
         23    2    1    2    0    0  0.26917293573E+03  0.71519887020E+03 -0.53440801051E+03  0.93688475916E+03  0.90540802870E+02 0.  0.
         11    1    3    3    0    0  0.25356806427E+03  0.66209172661E+03 -0.46400154956E+03  0.84732500002E+03  0.00000000000E+00 0. -1.
        -11    1    3    3    0    0  0.15604871465E+02  0.53107143584E+02 -0.70406460956E+02  0.89559759141E+02  0.00000000000E+00 0.  1.
         22    1    1    2    0    0 -0.26917293573E+03 -0.71519887020E+03 -0.55675439993E+03  0.94548345046E+03  0.00000000000E+00 0. -1.
<mgrwt>
<rscale>  0 0.15338431E+04</rscale>
<asrwt>0</asrwt>
<pdfrwt beam="1">  1        2 0.22873313E+00 0.15338431E+04</pdfrwt>
<pdfrwt beam="2">  1       -2 0.60861984E-01 0.15338431E+04</pdfrwt>
<totfact> 0.31271001E+01</totfact>
</mgrwt>
</event>
<event>
 6    1  0.1885829E-005  0.1423193E+04  0.7818608E-02  0.8937199E-01
          2   -1    0    0  501    0  0.00000000000E+00  0.00000000000E+00  0.90256595679E+03  0.90256595679E+03  0.00000000000E+00 0. -1.
         -2   -1    0    0    0  501 -0.00000000000E+00 -0.00000000000E+00 -0.56103320188E+03  0.56103320188E+03  0.00000000000E+00 0.  1.
         23    2    1    2    0    0  0.28731055936E+03  0.24408989868E+03 -0.44473581009E+03  0.59162123897E+03  0.10049136018E+03 0.  0.
         11    1    3    3    0    0  0.13774253504E+03  0.55710087429E+02 -0.19110817306E+03  0.24207220744E+03  0.00000000000E+00 0. -1.
        -11    1    3    3    0    0  0.14956802431E+03  0.18837981125E+03 -0.25362763702E+03  0.34954903153E+03  0.00000000000E+00 0.  1.
         22    1    1    2    0    0 -0.28731055936E+03 -0.24408989868E+03  0.78626856499E+03  0.87197791970E+03  0.00000000000E+00 0. -1.
<mgrwt>
<rscale>  0 0.14231928E+04</rscale>
<asrwt>0</asrwt>
<pdfrwt beam="1">  1        2 0.13885630E+00 0.14231928E+04</pdfrwt>
<pdfrwt beam="2">  1       -2 0.86312800E-01 0.14231928E+04</pdfrwt>
<totfact> 0.33026139E+01</totfact>
</mgrwt>
</event>
<event>
 6    1  0.1885829E-005  0.2256079E+04  0.7818608E-02  0.8495443E-01
          2   -1    0    0  501    0  0.00000000000E+00  0.00000000000E+00  0.98940130579E+03  0.98940130579E+03  0.00000000000E+00 0. -1.
         -2   -1    0    0    0  501 -0.00000000000E+00 -0.00000000000E+00 -0.12861039853E+04  0.12861039853E+04  0.00000000000E+00 0.  1.
         23    2    1    2    0    0 -0.27761192774E+03 -0.23560554276E+03 -0.12234926764E+04  0.12797552960E+04  0.90889681607E+02 0.  0.
         11    1    3    3    0    0 -0.23292857703E+03 -0.18826983908E+03 -0.11013824054E+04  0.11413783147E+04  0.00000000000E+00 0. -1.
        -11    1    3    3    0    0 -0.44683350715E+02 -0.47335703673E+02 -0.12211027100E+03  0.13837698131E+03  0.00000000000E+00 0.  1.
         22    1    1    2    0    0  0.27761192774E+03  0.23560554276E+03  0.92678999694E+03  0.99574999504E+03  0.00000000000E+00 0. -1.
<mgrwt>
<rscale>  0 0.22560789E+04</rscale>
<asrwt>0</asrwt>
<pdfrwt beam="1">  1        2 0.15221559E+00 0.22560789E+04</pdfrwt>
<pdfrwt beam="2">  1       -2 0.19786215E+00 0.22560789E+04</pdfrwt>
<totfact> 0.31977839E+00</totfact>
</mgrwt>
</event>
<event>
 6    1  0.1885829E-005  0.1881973E+04  0.7818608E-02  0.8663882E-01
         -2   -1    0    0    0  501 -0.00000000000E+00  0.00000000000E+00  0.10558171263E+04  0.10558171263E+04  0.00000000000E+00 0.  1.
          2   -1    0    0  501    0  0.00000000000E+00 -0.00000000000E+00 -0.83864495748E+03  0.83864495748E+03  0.00000000000E+00 0. -1.
         23    2    1    2    0    0  0.47567500081E+03  0.74054954113E+03  0.43754655384E+03  0.98713347806E+03  0.91132801240E+02 0.  0.
         11    1    3    3    0    0  0.31923166714E+03  0.56798324072E+03  0.30926362060E+03  0.72121966562E+03  0.00000000000E+00 0.  1.
        -11    1    3    3    0    0  0.15644333367E+03  0.17256630040E+03  0.12828293324E+03  0.26591381244E+03  0.00000000000E+00 0. -1.
         22    1    1    2    0    0 -0.47567500081E+03 -0.74054954113E+03 -0.22037438499E+03  0.90732860575E+03  0.00000000000E+00 0. -1.
<mgrwt>
<rscale>  0 0.18819731E+04</rscale>
<asrwt>0</asrwt>
<pdfrwt beam="1">  1        2 0.12902230E+00 0.18819731E+04</pdfrwt>
<pdfrwt beam="2">  1       -2 0.16243340E+00 0.18819731E+04</pdfrwt>
<totfact> 0.73255981E+00</totfact>
</mgrwt>
</event>
<event>
 6    1  0.1885829E-005  0.3656584E+04  0.7818608E-02  0.8077652E-01
          2   -1    0    0  501    0  0.00000000000E+00  0.00000000000E+00  0.17207969465E+04  0.17207969465E+04  0.00000000000E+00 0. -1.
         -2   -1    0    0    0  501 -0.00000000000E+00 -0.00000000000E+00 -0.19425021771E+04  0.19425021771E+04  0.00000000000E+00 0.  1.
         23    2    1    2    0    0 -0.10301804272E+04 -0.79845876017E+03  0.11719394555E+04  0.17551446185E+04  0.91007912120E+02 0.  0.
         11    1    3    3    0    0 -0.98444929019E+03 -0.76131403817E+03  0.11420179465E+04  0.16890661502E+04  0.00000000000E+00 0. -1.
        -11    1    3    3    0    0 -0.45731137013E+02 -0.37144722005E+02  0.29921509001E+02  0.66078468250E+02  0.00000000000E+00 0.  1.
         22    1    1    2    0    0  0.10301804272E+04  0.79845876017E+03 -0.13936446862E+04  0.19081545052E+04  0.00000000000E+00 0.  1.
<mgrwt>
<rscale>  0 0.36565841E+04</rscale>
<asrwt>0</asrwt>
<pdfrwt beam="1">  1        2 0.26473799E+00 0.36565841E+04</pdfrwt>
<pdfrwt beam="2">  1       -2 0.29884649E+00 0.36565841E+04</pdfrwt>
<totfact> 0.25024613E-01</totfact>
</mgrwt>
</event>
<event>
 6    1  0.1885829E-005  0.3004471E+04  0.7818608E-02  0.8242455E-01
          2   -1    0    0  501    0  0.00000000000E+00  0.00000000000E+00  0.18212623521E+04  0.18212623521E+04  0.00000000000E+00 0. -1.
         -2   -1    0    0    0  501 -0.00000000000E+00 -0.00000000000E+00 -0.12390915385E+04  0.12390915385E+04  0.00000000000E+00 0.  1.
         23    2    1    2    0    0 -0.87687004826E+03 -0.46136211922E+03  0.14403783838E+04  0.17495234974E+04  0.66230603687E+02 0.  0.
         11    1    3    3    0    0 -0.11442707321E+03 -0.56776446842E+02  0.14918130630E+03  0.19639801971E+03  0.00000000000E+00 0.  1.
        -11    1    3    3    0    0 -0.76244297505E+03 -0.40458567237E+03  0.12911970775E+04  0.15531254777E+04  0.00000000000E+00 0. -1.
         22    1    1    2    0    0  0.87687004826E+03  0.46136211922E+03 -0.85820757012E+03  0.13108303933E+04  0.00000000000E+00 0.  1.
<mgrwt>
<rscale>  0 0.30044705E+04</rscale>
<asrwt>0</asrwt>
<pdfrwt beam="1">  1        2 0.28019421E+00 0.30044705E+04</pdfrwt>
<pdfrwt beam="2">  1       -2 0.19062947E+00 0.30044705E+04</pdfrwt>
<totfact> 0.11031391E+00</totfact>
</mgrwt>
</event>
<event>
 6    1  0.1885829E-005  0.3729435E+04  0.7818608E-02  0.8061470E-01
          2   -1    0    0  501    0  0.00000000000E+00  0.00000000000E+00  0.37753022514E+04  0.37753022514E+04  0.00000000000E+00 0. -1.
         -2   -1    0    0    0  501 -0.00000000000E+00 -0.00000000000E+00 -0.92103140047E+03  0.92103140047E+03  0.00000000000E+00 0.  1.
         23    2    1    2    0    0 -0.66228320650E+03  0.77385450031E+03 -0.53721384470E+03  0.11551984844E+04  0.91733256054E+02 0.  0.
         13    1    3    3    0    0 -0.50552243387E+03  0.64040075590E+03 -0.40893332015E+03  0.91262945363E+03  0.00000000000E+00 0. -1.
        -13    1    3    3    0    0 -0.15676077263E+03  0.13345374441E+03 -0.12828052454E+03  0.24256903082E+03  0.00000000000E+00 0.  1.
         22    1    1    2    0    0  0.66228320650E+03 -0.77385450031E+03  0.33914846956E+04  0.35411351674E+04  0.00000000000E+00 0. -1.
<mgrwt>
<rscale>  0 0.37294353E+04</rscale>
<asrwt>0</asrwt>
<pdfrwt beam="1">  1        2 0.58081572E+00 0.37294353E+04</pdfrwt>
<pdfrwt beam="2">  1       -2 0.14169714E+00 0.37294353E+04</pdfrwt>
<totfact> 0.14357085E-01</totfact>
</mgrwt>
</event>
<event>
 6    1  0.1885829E-005  0.6495354E+03  0.7818608E-02  0.9807651E-01
          2   -1    0    0  501    0  0.00000000000E+00  0.00000000000E+00  0.29765844056E+03  0.29765844056E+03  0.00000000000E+00 0. -1.
         -2   -1    0    0    0  501 -0.00000000000E+00 -0.00000000000E+00 -0.35434590520E+03  0.35434590520E+03  0.00000000000E+00 0.  1.
         23    2    1    2    0    0 -0.15779304146E+03  0.18696169486E+03 -0.23351748425E+03  0.35013984783E+03  0.90632104213E+02 0.  0.
         13    1    3    3    0    0 -0.74830593477E+02  0.15475517757E+03 -0.15279585059E+03  0.22998990122E+03  0.00000000000E+00 0. -1.
        -13    1    3    3    0    0 -0.82962447981E+02  0.32206517287E+02 -0.80721633661E+02  0.12014994662E+03  0.00000000000E+00 0.  1.
         22    1    1    2    0    0  0.15779304146E+03 -0.18696169486E+03  0.17683001960E+03  0.30186449793E+03  0.00000000000E+00 0. -1.
<mgrwt>
<rscale>  0 0.64953537E+03</rscale>
<asrwt>0</asrwt>
<pdfrwt beam="1">  1        2 0.45793606E-01 0.64953537E+03</pdfrwt>
<pdfrwt beam="2">  1       -2 0.54514754E-01 0.64953537E+03</pdfrwt>
<totfact> 0.35413559E+02</totfact>
</mgrwt>
</event>
<event>
 6    1  0.1885829E-005  0.1913997E+04  0.7818608E-02  0.8647921E-01
          2   -1    0    0  501    0  0.00000000000E+00  0.00000000000E+00  0.28811481486E+04  0.28811481486E+04  0.00000000000E+00 0. -1.
         -2   -1    0    0    0  501 -0.00000000000E+00 -0.00000000000E+00 -0.31787526163E+03  0.31787526163E+03  0.00000000000E+00 0.  1.
         23    2    1    2    0    0  0.19481334172E+03 -0.84952417731E+03  0.19365030361E+04  0.21254853290E+04  0.89444445940E+02 0.  0.
         13    1    3    3    0    0  0.58168531225E+02 -0.28832410822E+03  0.75749333363E+03  0.81259492978E+03  0.00000000000E+00 0. -1.
        -13    1    3    3    0    0  0.13664481050E+03 -0.56120006910E+03  0.11790097025E+04  0.13128903992E+04  0.00000000000E+00 0.  1.
         22    1    1    2    0    0 -0.19481334172E+03  0.84952417731E+03  0.62676985087E+03  0.10735380813E+04  0.00000000000E+00 0.  1.
<mgrwt>
<rscale>  0 0.19139966E+04</rscale>
<asrwt>0</asrwt>
<pdfrwt beam="1">  1        2 0.44325354E+00 0.19139966E+04</pdfrwt>
<pdfrwt beam="2">  1       -2 0.48903888E-01 0.19139966E+04</pdfrwt>
<totfact> 0.76604362E+00</totfact>
</mgrwt>
</event>
<event>
 6    1  0.1885829E-005  0.2227195E+04  0.7818608E-02  0.8507193E-01
         -2   -1    0    0    0  501 -0.00000000000E+00  0.00000000000E+00  0.80263867420E+03  0.80263867420E+03  0.00000000000E+00 0.  1.
          2   -1    0    0  501    0  0.00000000000E+00 -0.00000000000E+00 -0.15450285844E+04  0.15450285844E+04  0.00000000000E+00 0. -1.
         23    2    1    2    0    0  0.46158849616E+03  0.82904721268E+02 -0.14342979411E+04  0.15118001306E+04  0.91607415242E+02 0.  0.
         11    1    3    3    0    0  0.18109851060E+03  0.12456090153E+02 -0.68452177638E+03  0.70818210021E+03  0.00000000000E+00 0. -1.
        -11    1    3    3    0    0  0.28048998556E+03  0.70448631115E+02 -0.74977616468E+03  0.80361803038E+03  0.00000000000E+00 0.  1.
         22    1    1    2    0    0 -0.46158849616E+03 -0.82904721268E+02  0.69190803084E+03  0.83586712804E+03  0.00000000000E+00 0.  1.
<mgrwt>
<rscale>  0 0.22271953E+04</rscale>
<asrwt>0</asrwt>
<pdfrwt beam="1">  1        2 0.23769671E+00 0.22271953E+04</pdfrwt>
<pdfrwt beam="2">  1       -2 0.12348287E+00 0.22271953E+04</pdfrwt>
<totfact> 0.53993853E+00</totfact>
</mgrwt>
</event>
<event>
 6    1  0.1885829E-005  0.2190898E+04  0.7818608E-02  0.8522226E-01
         -2   -1    0    0    0  501 -0.00000000000E+00  0.00000000000E+00  0.11622179908E+04  0.11622179908E+04  0.00000000000E+00 0. -1.
          2   -1    0    0  501    0  0.00000000000E+00 -0.00000000000E+00 -0.10325157289E+04  0.10325157289E+04  0.00000000000E+00 0.  1.
         23    2    1    2    0    0  0.46997947982E+02  0.98698574569E+03 -0.40407235713E+03  0.10716731634E+04  0.94123482821E+02 0.  0.
         11    1    3    3    0    0 -0.64094445023E+01  0.73287502369E+03 -0.29610853242E+03  0.79046008394E+03  0.00000000000E+00 0.  1.
        -11    1    3    3    0    0  0.53407392484E+02  0.25411072200E+03 -0.10796382471E+03  0.28121307945E+03  0.00000000000E+00 0. -1.
         22    1    1    2    0    0 -0.46997947982E+02 -0.98698574569E+03  0.53377461904E+03  0.11230605564E+04  0.00000000000E+00 0. -1.
<mgrwt>
<rscale>  0 0.21908979E+04</rscale>
<asrwt>0</asrwt>
<pdfrwt beam="1">  1        2 0.15884857E+00 0.21908979E+04</pdfrwt>
<pdfrwt beam="2">  1       -2 0.17880277E+00 0.21908979E+04</pdfrwt>
<totfact> 0.40588475E+00</totfact>
</mgrwt>
</event>
<event>
 6    1  0.1885829E-005  0.1083814E+04  0.7818608E-02  0.9221113E-01
          2   -1    0    0  501    0  0.00000000000E+00  0.00000000000E+00  0.19233348932E+04  0.19233348932E+04  0.00000000000E+00 0. -1.
         -2   -1    0    0    0  501 -0.00000000000E+00 -0.00000000000E+00 -0.15268432516E+03  0.15268432516E+03  0.00000000000E+00 0.  1.
         23    2    1    2    0    0  0.34833374092E+03 -0.91634428788E+02  0.12556177600E+03  0.39196150044E+03  0.90193096363E+02 0.  0.
         11    1    3    3    0    0  0.11461632254E+03 -0.69358113827E+02  0.23737743680E+02  0.13605487798E+03  0.00000000000E+00 0. -1.
        -11    1    3    3    0    0  0.23371741838E+03 -0.22276314961E+02  0.10182403232E+03  0.25590662246E+03  0.00000000000E+00 0.  1.
         22    1    1    2    0    0 -0.34833374092E+03  0.91634428788E+02  0.16450887921E+04  0.16840577180E+04  0.00000000000E+00 0.  1.
<mgrwt>
<rscale>  0 0.10838138E+04</rscale>
<asrwt>0</asrwt>
<pdfrwt beam="1">  1        2 0.29589766E+00 0.10838138E+04</pdfrwt>
<pdfrwt beam="2">  1       -2 0.23489898E-01 0.10838138E+04</pdfrwt>
<totfact> 0.11779671E+02</totfact>
</mgrwt>
</event>
<event>
 6    1  0.1885829E-005  0.5338739E+03  0.7818608E-02  0.1005297E+00
         -2   -1    0    0    0  501 -0.00000000000E+00  0.00000000000E+00  0.73217426057E+02  0.73217426057E+02  0.00000000000E+00 0.  1.
          2   -1    0    0  501    0  0.00000000000E+00 -0.00000000000E+00 -0.97320168124E+03  0.97320168124E+03  0.00000000000E+00 0. -1.
         23    2    1    2    0    0  0.14164568716E+03  0.20237450999E+03 -0.61590425652E+03  0.66996142226E+03  0.92148310499E+02 0.  0.
         11    1    3    3    0    0  0.94657060820E+02  0.56148821847E+02 -0.25775346197E+03  0.28026683092E+03  0.00000000000E+00 0. -1.
        -11    1    3    3    0    0  0.46988626341E+02  0.14622568814E+03 -0.35815079456E+03  0.38969459134E+03  0.00000000000E+00 0.  1.
         22    1    1    2    0    0 -0.14164568716E+03 -0.20237450999E+03 -0.28407999866E+03  0.37645768504E+03  0.00000000000E+00 0.  1.
<mgrwt>
<rscale>  0 0.53387385E+03</rscale>
<asrwt>0</asrwt>
<pdfrwt beam="1">  1        2 0.14972333E+00 0.53387385E+03</pdfrwt>
<pdfrwt beam="2">  1       -2 0.11264220E-01 0.53387385E+03</pdfrwt>
<totfact> 0.14910257E+03</totfact>
</mgrwt>
</event>
<event>
 6    1  0.1885829E-005  0.3450839E+04  0.7818608E-02  0.8125540E-01
          2   -1    0    0  501    0  0.00000000000E+00  0.00000000000E+00  0.21304597282E+04  0.21304597282E+04  0.00000000000E+00 0. -1.
         -2   -1    0    0    0  501 -0.00000000000E+00 -0.00000000000E+00 -0.13973851693E+04  0.13973851693E+04  0.00000000000E+00 0.  1.
         23    2    1    2    0    0 -0.16800149193E+04 -0.25104676585E+03  0.64541679112E+02  0.17023556977E+04  0.91513307627E+02 0.  0.
         11    1    3    3    0    0 -0.86131959201E+03 -0.82832608696E+02  0.26956827813E+02  0.86571320379E+03  0.00000000000E+00 0. -1.
        -11    1    3    3    0    0 -0.81869532724E+03 -0.16821415715E+03  0.37584851300E+02  0.83664249388E+03  0.00000000000E+00 0.  1.
         22    1    1    2    0    0  0.16800149193E+04  0.25104676585E+03  0.66853287980E+03  0.18254891999E+04  0.00000000000E+00 0. -1.
<mgrwt>
<rscale>  0 0.34508392E+04</rscale>
<asrwt>0</asrwt>
<pdfrwt beam="1">  1        2 0.32776303E+00 0.34508392E+04</pdfrwt>
<pdfrwt beam="2">  1       -2 0.21498233E+00 0.34508392E+04</pdfrwt>
<totfact> 0.49585823E-01</totfact>
</mgrwt>
</event>
<event>
 6    1  0.1885829E-005  0.2149950E+04  0.7818608E-02  0.8539554E-01
         -2   -1    0    0    0  501 -0.00000000000E+00  0.00000000000E+00  0.17738686561E+04  0.17738686561E+04  0.00000000000E+00 0.  1.
          2   -1    0    0  501    0  0.00000000000E+00 -0.00000000000E+00 -0.65144108940E+03  0.65144108940E+03  0.00000000000E+00 0. -1.
         23    2    1    2    0    0 -0.64687325738E+03  0.82148687961E+03  0.29043576284E+03  0.10890851887E+04  0.92021255185E+02 0.  0.
         13    1    3    3    0    0 -0.17278852771E+03  0.28067821518E+03  0.70930634998E+02  0.33714580046E+03  0.00000000000E+00 0. -1.
        -13    1    3    3    0    0 -0.47408472967E+03  0.54080866443E+03  0.21950512784E+03  0.75193938823E+03  0.00000000000E+00 0.  1.
         22    1    1    2    0    0  0.64687325738E+03 -0.82148687961E+03  0.83199180382E+03  0.13362245568E+04  0.00000000000E+00 0.  1.
<mgrwt>
<rscale>  0 0.21499497E+04</rscale>
<asrwt>0</asrwt>
<pdfrwt beam="1">  1        2 0.10022171E+00 0.21499497E+04</pdfrwt>
<pdfrwt beam="2">  1       -2 0.27290287E+00 0.21499497E+04</pdfrwt>
<totfact> 0.19150503E+00</totfact>
</mgrwt>
</event>
<event>
 6    1  0.1885829E-005  0.1154387E+04  0.7818608E-02  0.9153746E-01
         -2   -1    0    0    0  501 -0.00000000000E+00  0.00000000000E+00  0.35089959535E+03  0.35089959535E+03  0.00000000000E+00 0. -1.
          2   -1    0    0  501    0  0.00000000000E+00 -0.00000000000E+00 -0.94942318476E+03  0.94942318476E+03  0.00000000000E+00 0.  1.
         23    2    1    2    0    0 -0.27898450475E+03  0.49278373008E+03 -0.40370691770E+03  0.70147246985E+03  0.91739806208E+02 0.  0.
         11    1    3    3    0    0 -0.92467079143E+02  0.17738873371E+03 -0.91040036682E+02  0.21978446681E+03  0.00000000000E+00 0. -1.
        -11    1    3    3    0    0 -0.18651742560E+03  0.31539499637E+03 -0.31266688102E+03  0.48168800305E+03  0.00000000000E+00 0.  1.
         22    1    1    2    0    0  0.27898450475E+03 -0.49278373008E+03 -0.19481667170E+03  0.59885031025E+03  0.00000000000E+00 0.  1.
<mgrwt>
<rscale>  0 0.11543868E+04</rscale>
<asrwt>0</asrwt>
<pdfrwt beam="1">  1        2 0.14606510E+00 0.11543868E+04</pdfrwt>
<pdfrwt beam="2">  1       -2 0.53984555E-01 0.11543868E+04</pdfrwt>
<totfact> 0.86904881E+01</totfact>
</mgrwt>
</event>
<event>
 6    1  0.1885829E-005  0.1636945E+04  0.7818608E-02  0.8798167E-01
         -2   -1    0    0    0  501 -0.00000000000E+00  0.00000000000E+00  0.41615679705E+03  0.41615679705E+03  0.00000000000E+00 0.  1.
          2   -1    0    0  501    0  0.00000000000E+00 -0.00000000000E+00 -0.16097239544E+04  0.16097239544E+04  0.00000000000E+00 0. -1.
         23    2    1    2    0    0  0.67738540411E+03  0.32013224404E+03 -0.19885447282E+03  0.78057397635E+03  0.91744165018E+02 0.  0.
         11    1    3    3    0    0  0.43332655187E+03  0.19234860435E+03 -0.16966854194E+03  0.50354473513E+03  0.00000000000E+00 0. -1.
        -11    1    3    3    0    0  0.24405885223E+03  0.12778363969E+03 -0.29185930878E+02  0.27702924121E+03  0.00000000000E+00 0.  1.
         22    1    1    2    0    0 -0.67738540411E+03 -0.32013224404E+03 -0.99471268454E+03  0.12453067751E+04  0.00000000000E+00 0. -1.
<mgrwt>
<rscale>  0 0.16369454E+04</rscale>
<asrwt>0</asrwt>
<pdfrwt beam="1">  1        2 0.24764984E+00 0.16369454E+04</pdfrwt>
<pdfrwt beam="2">  1       -2 0.64024122E-01 0.16369454E+04</pdfrwt>
<totfact> 0.23747375E+01</totfact>
</mgrwt>
</event>
<event>
 6    1  0.1885829E-005  0.7483580E+03  0.7818608E-02  0.9637930E-01
         -4   -1    0    0    0  501 -0.00000000000E+00  0.00000000000E+00  0.14691980411E+03  0.14691980411E+03  0.00000000000E+00 0. -1.
          4   -1    0    0  501    0  0.00000000000E+00 -0.00000000000E+00 -0.95296836795E+03  0.95296836795E+03  0.00000000000E+00 0.  1.
         23    2    1    2    0    0  0.33046299568E+03  0.15195026626E+03 -0.32141477798E+03  0.49394710123E+03  0.91551102562E+02 0.  0.
         13    1    3    3    0    0  0.27601037036E+03  0.12299278469E+03 -0.21466247038E+03  0.37066012170E+03  0.00000000000E+00 0. -1.
        -13    1    3    3    0    0  0.54452625316E+02  0.28957481576E+02 -0.10675230760E+03  0.12328697952E+03  0.00000000000E+00 0.  1.
         22    1    1    2    0    0 -0.33046299568E+03 -0.15195026626E+03 -0.48463378586E+03  0.60594107084E+03  0.00000000000E+00 0. -1.
<mgrwt>
<rscale>  0 0.74835801E+03</rscale>
<asrwt>0</asrwt>
<pdfrwt beam="1">  1        4 0.14661052E+00 0.74835801E+03</pdfrwt>
<pdfrwt beam="2">  1       -4 0.22603047E-01 0.74835801E+03</pdfrwt>
<totfact> 0.11626051E+01</totfact>
</mgrwt>
</event>
<event>
 6    1  0.1885829E-005  0.1575397E+04  0.7818608E-02  0.8835807E-01
         -2   -1    0    0    0  501 -0.00000000000E+00  0.00000000000E+00  0.55219150587E+03  0.55219150587E+03  0.00000000000E+00 0. -1.
          2   -1    0    0  501    0  0.00000000000E+00 -0.00000000000E+00 -0.11236474326E+04  0.11236474326E+04  0.00000000000E+00 0.  1.
         23    2    1    2    0    0  0.44847725310E+03 -0.25941471760E+02 -0.97160399222E+03  0.10742383394E+04  0.90381887546E+02 0.  0.
         13    1    3    3    0    0  0.32584881057E+03  0.21879388458E+02 -0.69740463488E+03  0.77008400824E+03  0.00000000000E+00 0.  1.
        -13    1    3    3    0    0  0.12262844253E+03 -0.47820860218E+02 -0.27419935733E+03  0.30415433114E+03  0.00000000000E+00 0. -1.
         22    1    1    2    0    0 -0.44847725310E+03  0.25941471760E+02  0.40014806549E+03  0.60160059908E+03  0.00000000000E+00 0. -1.
<mgrwt>
<rscale>  0 0.15753965E+04</rscale>
<asrwt>0</asrwt>
<pdfrwt beam="1">  1        2 0.17286884E+00 0.15753965E+04</pdfrwt>
<pdfrwt beam="2">  1       -2 0.84952540E-01 0.15753965E+04</pdfrwt>
<totfact> 0.24423911E+01</totfact>
</mgrwt>
</event>
<event>
 6    1  0.1885829E-005  0.4031332E+04  0.7818608E-02  0.7998256E-01
          2   -1    0    0  501    0  0.00000000000E+00  0.00000000000E+00  0.25957675988E+04  0.25957675988E+04  0.00000000000E+00 0. -1.
         -2   -1    0    0    0  501 -0.00000000000E+00 -0.00000000000E+00 -0.15652051378E+04  0.15652051378E+04  0.00000000000E+00 0.  1.
         23    2    1    2    0    0  0.64872144648E+03  0.12167557248E+04 -0.10005380584E+04  0.17060382510E+04  0.90311120326E+02 0.  0.
         11    1    3    3    0    0  0.47571363297E+03  0.96840597984E+03 -0.79417986456E+03  0.13397146187E+04  0.00000000000E+00 0. -1.
        -11    1    3    3    0    0  0.17300781350E+03  0.24834974497E+03 -0.20635819386E+03  0.36632363224E+03  0.00000000000E+00 0.  1.
         22    1    1    2    0    0 -0.64872144648E+03 -0.12167557248E+04  0.20311005193E+04  0.24549344856E+04  0.00000000000E+00 0. -1.
<mgrwt>
<rscale>  0 0.40313317E+04</rscale>
<asrwt>0</asrwt>
<pdfrwt beam="1">  1        2 0.39934886E+00 0.40313317E+04</pdfrwt>
<pdfrwt beam="2">  1       -2 0.24080079E+00 0.40313317E+04</pdfrwt>
<totfact> 0.17637035E-01</totfact>
</mgrwt>
</event>
<event>
 6    1  0.1885829E-005  0.4194460E+03  0.7818608E-02  0.1037247E+00
         -2   -1    0    0    0  501 -0.00000000000E+00  0.00000000000E+00  0.62690337396E+03  0.62690337396E+03  0.00000000000E+00 0. -1.
          2   -1    0    0  501    0  0.00000000000E+00 -0.00000000000E+00 -0.70160317451E+02  0.70160317451E+02  0.00000000000E+00 0.  1.
         23    2    1    2    0    0  0.11514340441E+03 -0.15479295787E+03  0.19761833657E+03  0.28940031575E+03  0.86490880574E+02 0.  0.
         11    1    3    3    0    0  0.33330563696E+02 -0.10609741421E+03  0.13731873277E+03  0.17670320356E+03  0.00000000000E+00 0. -1.
        -11    1    3    3    0    0  0.81812840713E+02 -0.48695543657E+02  0.60299603803E+02  0.11269711219E+03  0.00000000000E+00 0.  1.
         22    1    1    2    0    0 -0.11514340441E+03  0.15479295787E+03  0.35912471994E+03  0.40766337567E+03  0.00000000000E+00 0. -1.
<mgrwt>
<rscale>  0 0.41944601E+03</rscale>
<asrwt>0</asrwt>
<pdfrwt beam="1">  1        2 0.10793895E-01 0.41944601E+03</pdfrwt>
<pdfrwt beam="2">  1       -2 0.96446669E-01 0.41944601E+03</pdfrwt>
<totfact> 0.54652997E+02</totfact>
</mgrwt>
</event>
<event>
 6    1  0.1885829E-005  0.1221210E+04  0.7818608E-02  0.9094491E-01
          2   -1    0    0  501    0  0.00000000000E+00  0.00000000000E+00  0.11955858544E+04  0.11955858544E+04  0.00000000000E+00 0. -1.
         -2   -1    0    0    0  501 -0.00000000000E+00 -0.00000000000E+00 -0.31184598945E+03  0.31184598945E+03  0.00000000000E+00 0.  1.
         23    2    1    2    0    0 -0.18466879205E+03  0.18956622015E+03  0.11189125675E+04  0.11533921361E+04  0.91160141253E+02 0.  0.
         11    1    3    3    0    0 -0.60506464928E+02  0.11978317431E+03  0.45519893374E+03  0.47456834115E+03  0.00000000000E+00 0. -1.
        -11    1    3    3    0    0 -0.12416232713E+03  0.69783045843E+02  0.66371363376E+03  0.67882379496E+03  0.00000000000E+00 0.  1.
         22    1    1    2    0    0  0.18466879205E+03 -0.18956622015E+03 -0.23517270259E+03  0.35403970769E+03  0.00000000000E+00 0.  1.
<mgrwt>
<rscale>  0 0.12212103E+04</rscale>
<asrwt>0</asrwt>
<pdfrwt beam="1">  1        2 0.18393628E+00 0.12212103E+04</pdfrwt>
<pdfrwt beam="2">  1       -2 0.47976307E-01 0.12212103E+04</pdfrwt>
<totfact> 0.77267332E+01</totfact>
</mgrwt>
</event>
<event>
 6    1  0.1885829E-005  0.1602645E+04  0.7818608E-02  0.8818925E-01
          2   -1    0    0  501    0  0.00000000000E+00  0.00000000000E+00  0.37663009153E+03  0.37663009153E+03  0.00000000000E+00 0. -1.
         -2   -1    0    0    0  501 -0.00000000000E+00 -0.00000000000E+00 -0.17049028401E+04  0.17049028401E+04  0.00000000000E+00 0.  1.
         23    2    1    2    0    0  0.74518703883E+01  0.13972902122E+03 -0.16876618634E+04  0.16958643361E+04  0.90407696530E+02 0.  0.
         13    1    3    3    0    0 -0.12278151146E+02  0.13910596683E+02 -0.67102456150E+03  0.67128102895E+03  0.00000000000E+00 0. -1.
        -13    1    3    3    0    0  0.19730021535E+02  0.12581842454E+03 -0.10166373019E+04  0.10245833072E+04  0.00000000000E+00 0.  1.
         22    1    1    2    0    0 -0.74518703883E+01 -0.13972902122E+03  0.35938911480E+03  0.38566859554E+03  0.00000000000E+00 0. -1.
<mgrwt>
<rscale>  0 0.16026450E+04</rscale>
<asrwt>0</asrwt>
<pdfrwt beam="1">  1        2 0.57943092E-01 0.16026450E+04</pdfrwt>
<pdfrwt beam="2">  1       -2 0.26229274E+00 0.16026450E+04</pdfrwt>
<totfact> 0.44112225E+00</totfact>
</mgrwt>
</event>
<event>
 6    1  0.1885829E-005  0.5447168E+03  0.7818608E-02  0.1002724E+00
         -2   -1    0    0    0  501 -0.00000000000E+00  0.00000000000E+00  0.33712028795E+02  0.33712028795E+02  0.00000000000E+00 0.  1.
          2   -1    0    0  501    0  0.00000000000E+00 -0.00000000000E+00 -0.22003749795E+04  0.22003749795E+04  0.00000000000E+00 0. -1.
         23    2    1    2    0    0 -0.14781668729E+03 -0.21958866877E+03 -0.11541976011E+04  0.11875904528E+04  0.90166649701E+02 0.  0.
         13    1    3    3    0    0 -0.58913675719E+02 -0.53969611347E+02 -0.52067923267E+03  0.52677357894E+03  0.00000000000E+00 0. -1.
        -13    1    3    3    0    0 -0.88903011573E+02 -0.16561905742E+03 -0.63351836844E+03  0.66081687388E+03  0.00000000000E+00 0.  1.
         22    1    1    2    0    0  0.14781668729E+03  0.21958866877E+03 -0.10124653495E+04  0.10464965554E+04  0.00000000000E+00 0. -1.
<mgrwt>
<rscale>  0 0.54471682E+03</rscale>
<asrwt>0</asrwt>
<pdfrwt beam="1">  1        2 0.33851924E+00 0.54471682E+03</pdfrwt>
<pdfrwt beam="2">  1       -2 0.51864658E-02 0.54471682E+03</pdfrwt>
<totfact> 0.10498544E+03</totfact>
</mgrwt>
</event>
<event>
 6    1  0.1885829E-005  0.1509352E+04  0.7818608E-02  0.8878258E-01
         -2   -1    0    0    0  501 -0.00000000000E+00  0.00000000000E+00  0.51991077127E+03  0.51991077127E+03  0.00000000000E+00 0.  1.
          2   -1    0    0  501    0  0.00000000000E+00 -0.00000000000E+00 -0.10954495763E+04  0.10954495763E+04  0.00000000000E+00 0. -1.
         23    2    1    2    0    0  0.34150698473E+03 -0.15005633970E+03  0.40994213419E+03  0.56164472784E+03  0.90820268816E+02 0.  0.
         13    1    3    3    0    0  0.16457781010E+03 -0.69941182140E+02  0.26328447517E+03  0.31827085855E+03  0.00000000000E+00 0. -1.
        -13    1    3    3    0    0  0.17692917463E+03 -0.80115157557E+02  0.14665765902E+03  0.24337386929E+03  0.00000000000E+00 0.  1.
         22    1    1    2    0    0 -0.34150698473E+03  0.15005633970E+03 -0.98548093927E+03  0.10537156198E+04  0.00000000000E+00 0. -1.
<mgrwt>
<rscale>  0 0.15093522E+04</rscale>
<asrwt>0</asrwt>
<pdfrwt beam="1">  1        2 0.16853070E+00 0.15093522E+04</pdfrwt>
<pdfrwt beam="2">  1       -2 0.79986272E-01 0.15093522E+04</pdfrwt>
<totfact> 0.29282527E+01</totfact>
</mgrwt>
</event>
<event>
 6    1  0.1885829E-005  0.2073738E+04  0.7818608E-02  0.8572901E-01
          1   -1    0    0  501    0  0.00000000000E+00  0.00000000000E+00  0.88057228738E+03  0.88057228738E+03  0.00000000000E+00 0. -1.
         -1   -1    0    0    0  501 -0.00000000000E+00 -0.00000000000E+00 -0.12209078035E+04  0.12209078035E+04  0.00000000000E+00 0.  1.
         23    2    1    2    0    0 -0.40017713293E+03 -0.66879751278E+03  0.51930799157E+03  0.94112720873E+03  0.92778133689E+02 0.  0.
         11    1    3    3    0    0 -0.31003090751E+03 -0.45051337756E+03  0.39171776650E+03  0.67269924600E+03  0.00000000000E+00 0.  1.
        -11    1    3    3    0    0 -0.90146225417E+02 -0.21828413521E+03  0.12759022506E+03  0.26842796273E+03  0.00000000000E+00 0. -1.
         22    1    1    2    0    0  0.40017713293E+03  0.66879751278E+03 -0.85964350766E+03  0.11603528821E+04  0.00000000000E+00 0.  1.
<mgrwt>
<rscale>  0 0.20737382E+04</rscale>
<asrwt>0</asrwt>
<pdfrwt beam="1">  1        1 0.13547266E+00 0.20737382E+04</pdfrwt>
<pdfrwt beam="2">  1       -1 0.18783197E+00 0.20737382E+04</pdfrwt>
<totfact> 0.31851960E+00</totfact>
</mgrwt>
</event>
<event>
 6    1  0.1885829E-005  0.1612035E+04  0.7818608E-02  0.8813188E-01
         -2   -1    0    0    0  501 -0.00000000000E+00  0.00000000000E+00  0.13578023822E+04  0.13578023822E+04  0.00000000000E+00 0.  1.
          2   -1    0    0  501    0  0.00000000000E+00 -0.00000000000E+00 -0.47846746403E+03  0.47846746403E+03  0.00000000000E+00 0. -1.
         23    2    1    2    0    0 -0.55131899566E+03  0.35929869185E+03  0.96619220101E+03  0.11724985208E+04  0.90428021503E+02 0.  0.
         11    1    3    3    0    0 -0.43724540227E+03  0.32424735848E+03  0.81040628973E+03  0.97625726411E+03  0.00000000000E+00 0.  1.
        -11    1    3    3    0    0 -0.11407359339E+03  0.35051333371E+02  0.15578591128E+03  0.19624125670E+03  0.00000000000E+00 0. -1.
         22    1    1    2    0    0  0.55131899566E+03 -0.35929869185E+03 -0.86857282797E+02  0.66377132547E+03  0.00000000000E+00 0. -1.
<mgrwt>
<rscale>  0 0.16120351E+04</rscale>
<asrwt>0</asrwt>
<pdfrwt beam="1">  1        2 0.73610380E-01 0.16120351E+04</pdfrwt>
<pdfrwt beam="2">  1       -2 0.20889267E+00 0.16120351E+04</pdfrwt>
<totfact> 0.72211090E+00</totfact>
</mgrwt>
</event>
<event>
 6    1  0.1885829E-005  0.1620962E+04  0.7818608E-02  0.8807773E-01
          2   -1    0    0  501    0  0.00000000000E+00  0.00000000000E+00  0.12916216240E+04  0.12916216240E+04  0.00000000000E+00 0. -1.
         -2   -1    0    0    0  501 -0.00000000000E+00 -0.00000000000E+00 -0.50856979335E+03  0.50856979335E+03  0.00000000000E+00 0.  1.
         23    2    1    2    0    0 -0.60554757905E+03  0.15597581458E+03 -0.17519591575E+03  0.65596457414E+03  0.92626067644E+02 0.  0.
         13    1    3    3    0    0 -0.54571918440E+03  0.11063972621E+03 -0.16028874152E+03  0.57943339384E+03  0.00000000000E+00 0. -1.
        -13    1    3    3    0    0 -0.59828394650E+02  0.45336088370E+02 -0.14907174231E+02  0.76531180303E+02  0.00000000000E+00 0.  1.
         22    1    1    2    0    0  0.60554757905E+03 -0.15597581458E+03  0.95824774643E+03  0.11442268432E+04  0.00000000000E+00 0.  1.
<mgrwt>
<rscale>  0 0.16209624E+04</rscale>
<asrwt>0</asrwt>
<pdfrwt beam="1">  1        2 0.19871102E+00 0.16209624E+04</pdfrwt>
<pdfrwt beam="2">  1       -2 0.78241507E-01 0.16209624E+04</pdfrwt>
<totfact> 0.23259925E+01</totfact>
</mgrwt>
</event>
<event>
 6    1  0.1885829E-005  0.1792181E+04  0.7818608E-02  0.8710469E-01
          1   -1    0    0  501    0  0.00000000000E+00  0.00000000000E+00  0.16439251439E+04  0.16439251439E+04  0.00000000000E+00 0. -1.
         -1   -1    0    0    0  501 -0.00000000000E+00 -0.00000000000E+00 -0.48845186019E+03  0.48845186019E+03  0.00000000000E+00 0.  1.
         23    2    1    2    0    0  0.84978620694E+03 -0.27685148522E+03  0.57205834286E+03  0.10650643341E+04  0.91257579083E+02 0.  0.
         13    1    3    3    0    0  0.40940184935E+03 -0.17446766138E+03  0.25582782309E+03  0.51331931016E+03  0.00000000000E+00 0.  1.
        -13    1    3    3    0    0  0.44038435759E+03 -0.10238382383E+03  0.31623051977E+03  0.55174502393E+03  0.00000000000E+00 0. -1.
         22    1    1    2    0    0 -0.84978620694E+03  0.27685148522E+03  0.58341494087E+03  0.10673126700E+04  0.00000000000E+00 0.  1.
<mgrwt>
<rscale>  0 0.17921811E+04</rscale>
<asrwt>0</asrwt>
<pdfrwt beam="1">  1        1 0.25291156E+00 0.17921811E+04</pdfrwt>
<pdfrwt beam="2">  1       -1 0.75146441E-01 0.17921811E+04</pdfrwt>
<totfact> 0.87523234E+00</totfact>
</mgrwt>
</event>
<event>
 6    1  0.1885829E-005  0.1437427E+04  0.7818608E-02  0.8927164E-01
          1   -1    0    0  501    0  0.00000000000E+00  0.00000000000E+00  0.78424321272E+03  0.78424321272E+03  0.00000000000E+00 0. -1.
         -1   -1    0    0    0  501 -0.00000000000E+00 -0.00000000000E+00 -0.65865945291E+03  0.65865945291E+03  0.00000000000E+00 0.  1.
         23    2    1    2    0    0 -0.11178587594E+03  0.67622475017E+03 -0.14453045203E+03  0.70619534094E+03  0.89704031132E+02 0.  0.
         13    1    3    3    0    0 -0.16982460859E+02  0.14879930501E+03 -0.69444836102E+02  0.16508247154E+03  0.00000000000E+00 0.  1.
        -13    1    3    3    0    0 -0.94803415081E+02  0.52742544517E+03 -0.75085615932E+02  0.54111286941E+03  0.00000000000E+00 0. -1.
         22    1    1    2    0    0  0.11178587594E+03 -0.67622475017E+03  0.27011421185E+03  0.73670732469E+03  0.00000000000E+00 0.  1.
<mgrwt>
<rscale>  0 0.14374272E+04</rscale>
<asrwt>0</asrwt>
<pdfrwt beam="1">  1        1 0.12065280E+00 0.14374272E+04</pdfrwt>
<pdfrwt beam="2">  1       -1 0.10133222E+00 0.14374272E+04</pdfrwt>
<totfact> 0.20524612E+01</totfact>
</mgrwt>
</event>
<event>
 6    1  0.1885829E-005  0.2041072E+04  0.7818608E-02  0.8587655E-01
         -2   -1    0    0    0  501 -0.00000000000E+00  0.00000000000E+00  0.64445032115E+03  0.64445032115E+03  0.00000000000E+00 0.  1.
          2   -1    0    0  501    0  0.00000000000E+00 -0.00000000000E+00 -0.16160960720E+04  0.16160960720E+04  0.00000000000E+00 0. -1.
         23    2    1    2    0    0 -0.26240018866E+03 -0.60180361217E+03  0.37552359043E+03  0.76191812680E+03  0.92085929170E+02 0.  0.
         11    1    3    3    0    0 -0.23541990535E+03 -0.49966651023E+03  0.27896555035E+03  0.61879797314E+03  0.00000000000E+00 0.  1.
        -11    1    3    3    0    0 -0.26980283309E+02 -0.10213710194E+03  0.96558040079E+02  0.14312015366E+03  0.00000000000E+00 0. -1.
         22    1    1    2    0    0  0.26240018866E+03  0.60180361217E+03 -0.13471693413E+04  0.14986282664E+04  0.00000000000E+00 0. -1.
<mgrwt>
<rscale>  0 0.20410719E+04</rscale>
<asrwt>0</asrwt>
<pdfrwt beam="1">  1        2 0.24863016E+00 0.20410719E+04</pdfrwt>
<pdfrwt beam="2">  1       -2 0.99146205E-01 0.20410719E+04</pdfrwt>
<totfact> 0.85264877E+00</totfact>
</mgrwt>
</event>
<event>
 6    1  0.1885829E-005  0.7350782E+04  0.7818608E-02  0.7542303E-01
         -2   -1    0    0    0  501 -0.00000000000E+00  0.00000000000E+00  0.58098008942E+04  0.58098008942E+04  0.00000000000E+00 0. -1.
          2   -1    0    0  501    0  0.00000000000E+00 -0.00000000000E+00 -0.23251226199E+04  0.23251226199E+04  0.00000000000E+00 0.  1.
         23    2    1    2    0    0 -0.22894332576E+03 -0.36003505623E+04  0.25170070116E+04  0.43997760082E+04  0.88121552113E+02 0.  0.
         11    1    3    3    0    0 -0.29674979889E+02 -0.10587011840E+04  0.72160489951E+03  0.12815781023E+04  0.00000000000E+00 0. -1.
        -11    1    3    3    0    0 -0.19926834587E+03 -0.25416493784E+04  0.17954021121E+04  0.31181979059E+04  0.00000000000E+00 0.  1.
         22    1    1    2    0    0  0.22894332576E+03  0.36003505623E+04  0.96767126266E+03  0.37351475059E+04  0.00000000000E+00 0.  1.
<mgrwt>
<rscale>  0 0.73507821E+04</rscale>
<asrwt>0</asrwt>
<pdfrwt beam="1">  1        2 0.35771117E+00 0.73507821E+04</pdfrwt>
<pdfrwt beam="2">  1       -2 0.89381552E+00 0.73507821E+04</pdfrwt>
<totfact> 0.27918467E-05</totfact>
</mgrwt>
</event>
<event>
 6    1  0.1885829E-005  0.4317035E+04  0.7818608E-02  0.7943476E-01
         -2   -1    0    0    0  501 -0.00000000000E+00  0.00000000000E+00  0.18241297565E+04  0.18241297565E+04  0.00000000000E+00 0.  1.
          2   -1    0    0  501    0  0.00000000000E+00 -0.00000000000E+00 -0.25542031096E+04  0.25542031096E+04  0.00000000000E+00 0. -1.
         23    2    1    2    0    0 -0.78608636648E+03  0.19875477042E+04 -0.66700280854E+03  0.22400495486E+04  0.68202504010E+02 0.  0.
         11    1    3    3    0    0 -0.33560822252E+03  0.85918881273E+03 -0.32304737237E+03  0.97734226336E+03  0.00000000000E+00 0.  1.
        -11    1    3    3    0    0 -0.45047814396E+03  0.11283588915E+04 -0.34395543617E+03  0.12627072853E+04  0.00000000000E+00 0. -1.
         22    1    1    2    0    0  0.78608636648E+03 -0.19875477042E+04 -0.63070544570E+02  0.21382833175E+04  0.00000000000E+00 0. -1.
<mgrwt>
<rscale>  0 0.43170350E+04</rscale>
<asrwt>0</asrwt>
<pdfrwt beam="1">  1        2 0.39295432E+00 0.43170350E+04</pdfrwt>
<pdfrwt beam="2">  1       -2 0.28063535E+00 0.43170350E+04</pdfrwt>
<totfact> 0.10389818E-01</totfact>
</mgrwt>
</event>
<event>
 6    1  0.1885829E-005  0.3635605E+04  0.7818608E-02  0.8082384E-01
          2   -1    0    0  501    0  0.00000000000E+00  0.00000000000E+00  0.15954855041E+04  0.15954855041E+04  0.00000000000E+00 0.  1.
         -2   -1    0    0    0  501 -0.00000000000E+00 -0.00000000000E+00 -0.20710971142E+04  0.20710971142E+04  0.00000000000E+00 0. -1.
         23    2    1    2    0    0 -0.16763963575E+04 -0.69220830757E+03 -0.33963146057E+03  0.18478061918E+04  0.97883119003E+02 0.  0.
         11    1    3    3    0    0 -0.55516866672E+03 -0.18345400892E+03 -0.91751573847E+02  0.59184962043E+03  0.00000000000E+00 0.  1.
        -11    1    3    3    0    0 -0.11212276908E+04 -0.50875429865E+03 -0.24787988672E+03  0.12559565714E+04  0.00000000000E+00 0. -1.
         22    1    1    2    0    0  0.16763963575E+04  0.69220830757E+03 -0.13598014948E+03  0.18187764265E+04  0.00000000000E+00 0. -1.
<mgrwt>
<rscale>  0 0.36356047E+04</rscale>
<asrwt>0</asrwt>
<pdfrwt beam="1">  1        2 0.24545931E+00 0.36356047E+04</pdfrwt>
<pdfrwt beam="2">  1       -2 0.31863033E+00 0.36356047E+04</pdfrwt>
<totfact> 0.22252258E-01</totfact>
</mgrwt>
</event>
<event>
 6    1  0.1885829E-005  0.8681577E+03  0.7818608E-02  0.9466285E-01
          4   -1    0    0  501    0  0.00000000000E+00  0.00000000000E+00  0.39448958851E+03  0.39448958851E+03  0.00000000000E+00 0. -1.
         -4   -1    0    0    0  501 -0.00000000000E+00 -0.00000000000E+00 -0.47764111762E+03  0.47764111762E+03  0.00000000000E+00 0.  1.
         23    2    1    2    0    0  0.19285559421E+03 -0.29664856210E+03  0.20040554273E+03  0.41870126003E+03  0.99773312973E+02 0.  0.
         11    1    3    3    0    0  0.14648375530E+03 -0.22339378434E+03  0.19702783397E+03  0.33193710369E+03  0.00000000000E+00 0. -1.
        -11    1    3    3    0    0  0.46371838914E+02 -0.73254777759E+02  0.33777087561E+01  0.86764156339E+02  0.00000000000E+00 0.  1.
         22    1    1    2    0    0 -0.19285559421E+03  0.29664856210E+03 -0.28355707184E+03  0.45342944611E+03  0.00000000000E+00 0.  1.
<mgrwt>
<rscale>  0 0.86815770E+03</rscale>
<asrwt>0</asrwt>
<pdfrwt beam="1">  1        4 0.60690706E-01 0.86815770E+03</pdfrwt>
<pdfrwt beam="2">  1       -4 0.73483249E-01 0.86815770E+03</pdfrwt>
<totfact> 0.85495655E+00</totfact>
</mgrwt>
</event>
<event>
 6    1  0.1885829E-005  0.3498441E+04  0.7818608E-02  0.8114159E-01
         -1   -1    0    0    0  501 -0.00000000000E+00  0.00000000000E+00  0.20112553806E+04  0.20112553806E+04  0.00000000000E+00 0.  1.
          1   -1    0    0  501    0  0.00000000000E+00 -0.00000000000E+00 -0.15213250055E+04  0.15213250055E+04  0.00000000000E+00 0. -1.
         23    2    1    2    0    0 -0.20536826463E+03 -0.50427142650E+03  0.19224156209E+04  0.20001053374E+04  0.90960131416E+02 0.  0.
         13    1    3    3    0    0 -0.13659814710E+03 -0.23769267043E+03  0.10557423053E+04  0.10907560106E+04  0.00000000000E+00 0.  1.
        -13    1    3    3    0    0 -0.68770117539E+02 -0.26657875607E+03  0.86667331558E+03  0.90934932682E+03  0.00000000000E+00 0. -1.
         22    1    1    2    0    0  0.20536826463E+03  0.50427142650E+03 -0.14324852457E+04  0.15324750487E+04  0.00000000000E+00 0. -1.
<mgrwt>
<rscale>  0 0.34984414E+04</rscale>
<asrwt>0</asrwt>
<pdfrwt beam="1">  1        1 0.23405000E+00 0.34984414E+04</pdfrwt>
<pdfrwt beam="2">  1       -1 0.30942390E+00 0.34984414E+04</pdfrwt>
<totfact> 0.14795064E-01</totfact>
</mgrwt>
</event>
<event>
 6    1  0.1885829E-005  0.2829148E+04  0.7818608E-02  0.8294276E-01
          2   -1    0    0  501    0  0.00000000000E+00  0.00000000000E+00  0.10800106149E+04  0.10800106149E+04  0.00000000000E+00 0. -1.
         -2   -1    0    0    0  501 -0.00000000000E+00 -0.00000000000E+00 -0.18527779782E+04  0.18527779782E+04  0.00000000000E+00 0.  1.
         23    2    1    2    0    0 -0.21845329150E+03 -0.13512761650E+04 -0.19462086219E+02  0.13703744499E+04  0.62275561181E+02 0.  0.
         11    1    3    3    0    0 -0.98955151290E+02 -0.73943310132E+03 -0.34031161420E+02  0.74680087925E+03  0.00000000000E+00 0.  1.
        -11    1    3    3    0    0 -0.11949814021E+03 -0.61184306366E+03  0.14569075201E+02  0.62357357065E+03  0.00000000000E+00 0. -1.
         22    1    1    2    0    0  0.21845329150E+03  0.13512761650E+04 -0.75330527702E+03  0.15624141432E+04  0.00000000000E+00 0.  1.
<mgrwt>
<rscale>  0 0.28291482E+04</rscale>
<asrwt>0</asrwt>
<pdfrwt beam="1">  1        2 0.16615548E+00 0.28291482E+04</pdfrwt>
<pdfrwt beam="2">  1       -2 0.28504277E+00 0.28291482E+04</pdfrwt>
<totfact> 0.76343079E-01</totfact>
</mgrwt>
</event>
<event>
 6    1  0.1885829E-005  0.1096482E+04  0.7818608E-02  0.9208628E-01
         -2   -1    0    0    0  501 -0.00000000000E+00  0.00000000000E+00  0.44878200702E+03  0.44878200702E+03  0.00000000000E+00 0.  1.
          2   -1    0    0  501    0  0.00000000000E+00 -0.00000000000E+00 -0.66974200882E+03  0.66974200882E+03  0.00000000000E+00 0. -1.
         23    2    1    2    0    0 -0.11503334125E+03  0.36928978777E+03  0.27951188190E+03  0.48600546013E+03  0.92015206378E+02 0.  0.
         13    1    3    3    0    0 -0.32634864130E+02  0.19965462547E+02  0.20581259942E+02  0.43442402239E+02  0.00000000000E+00 0. -1.
        -13    1    3    3    0    0 -0.82398477124E+02  0.34932432522E+03  0.25893062196E+03  0.44256305789E+03  0.00000000000E+00 0.  1.
         22    1    1    2    0    0  0.11503334125E+03 -0.36928978777E+03 -0.50047188369E+03  0.63251855571E+03  0.00000000000E+00 0. -1.
<mgrwt>
<rscale>  0 0.10964819E+04</rscale>
<asrwt>0</asrwt>
<pdfrwt beam="1">  1        2 0.10303723E+00 0.10964819E+04</pdfrwt>
<pdfrwt beam="2">  1       -2 0.69043386E-01 0.10964819E+04</pdfrwt>
<totfact> 0.82456369E+01</totfact>
</mgrwt>
</event>
<event>
 6    1  0.1885829E-005  0.2324526E+04  0.7818608E-02  0.8468313E-01
          2   -1    0    0  501    0  0.00000000000E+00  0.00000000000E+00  0.11512309113E+04  0.11512309113E+04  0.00000000000E+00 0.  1.
         -2   -1    0    0    0  501 -0.00000000000E+00 -0.00000000000E+00 -0.11734008283E+04  0.11734008283E+04  0.00000000000E+00 0. -1.
         23    2    1    2    0    0  0.32130753682E+03 -0.93249564233E+03  0.60053404142E+03  0.11582069131E+04  0.89529114890E+02 0.  0.
         11    1    3    3    0    0  0.24941773090E+03 -0.60600300768E+03  0.37667449077E+03  0.75586541249E+03  0.00000000000E+00 0.  1.
        -11    1    3    3    0    0  0.71889805919E+02 -0.32649263465E+03  0.22385955065E+03  0.40234150058E+03  0.00000000000E+00 0. -1.
         22    1    1    2    0    0 -0.32130753682E+03  0.93249564233E+03 -0.62270395833E+03  0.11664248265E+04  0.00000000000E+00 0. -1.
<mgrwt>
<rscale>  0 0.23245260E+04</rscale>
<asrwt>0</asrwt>
<pdfrwt beam="1">  1        2 0.17711245E+00 0.23245260E+04</pdfrwt>
<pdfrwt beam="2">  1       -2 0.18052320E+00 0.23245260E+04</pdfrwt>
<totfact> 0.32974899E+00</totfact>
</mgrwt>
</event>
<event>
 6    1  0.1885829E-005  0.3042562E+04  0.7818608E-02  0.8231681E-01
         -1   -1    0    0    0  501 -0.00000000000E+00  0.00000000000E+00  0.11539524100E+04  0.11539524100E+04  0.00000000000E+00 0.  1.
          1   -1    0    0  501    0  0.00000000000E+00 -0.00000000000E+00 -0.20055379229E+04  0.20055379229E+04  0.00000000000E+00 0. -1.
         23    2    1    2    0    0  0.27493195594E+03 -0.35154426001E+03 -0.19348946716E+04  0.19878548605E+04  0.92620782013E+02 0.  0.
         13    1    3    3    0    0  0.17596924139E+03 -0.26501742690E+03 -0.12089320498E+04  0.12500864416E+04  0.00000000000E+00 0. -1.
        -13    1    3    3    0    0  0.98962714550E+02 -0.86526833110E+02 -0.72596262176E+03  0.73776841889E+03  0.00000000000E+00 0.  1.
         22    1    1    2    0    0 -0.27493195594E+03  0.35154426001E+03  0.10833091586E+04  0.11716354725E+04  0.00000000000E+00 0.  1.
<mgrwt>
<rscale>  0 0.30425616E+04</rscale>
<asrwt>0</asrwt>
<pdfrwt beam="1">  1        1 0.30854430E+00 0.30425616E+04</pdfrwt>
<pdfrwt beam="2">  1       -1 0.17753114E+00 0.30425616E+04</pdfrwt>
<totfact> 0.54316638E-01</totfact>
</mgrwt>
</event>
<event>
 6    1  0.1885829E-005  0.1694674E+04  0.7818608E-02  0.8764408E-01
          2   -1    0    0  501    0  0.00000000000E+00  0.00000000000E+00  0.99573727247E+03  0.99573727247E+03  0.00000000000E+00 0. -1.
         -2   -1    0    0    0  501 -0.00000000000E+00 -0.00000000000E+00 -0.72105382378E+03  0.72105382378E+03  0.00000000000E+00 0.  1.
         23    2    1    2    0    0  0.20143408192E+03  0.16768595188E+03 -0.67594465908E+03  0.73069370396E+03  0.91202187749E+02 0.  0.
         13    1    3    3    0    0  0.23313759625E+02  0.76798262813E+01 -0.16032976605E+03  0.16219785758E+03  0.00000000000E+00 0. -1.
        -13    1    3    3    0    0  0.17812032230E+03  0.16000612560E+03 -0.51561489302E+03  0.56849584638E+03  0.00000000000E+00 0.  1.
         22    1    1    2    0    0 -0.20143408192E+03 -0.16768595188E+03  0.95062810776E+03  0.98609739229E+03  0.00000000000E+00 0. -1.
<mgrwt>
<rscale>  0 0.16946742E+04</rscale>
<asrwt>0</asrwt>
<pdfrwt beam="1">  1        2 0.15319035E+00 0.16946742E+04</pdfrwt>
<pdfrwt beam="2">  1       -2 0.11093136E+00 0.16946742E+04</pdfrwt>
<totfact> 0.15534973E+01</totfact>
</mgrwt>
</event>
<event>
 6    1  0.1885829E-005  0.1803324E+04  0.7818608E-02  0.8704534E-01
         -2   -1    0    0    0  501 -0.00000000000E+00  0.00000000000E+00  0.33341991076E+03  0.33341991076E+03  0.00000000000E+00 0.  1.
          2   -1    0    0  501    0  0.00000000000E+00 -0.00000000000E+00 -0.24383495802E+04  0.24383495802E+04  0.00000000000E+00 0. -1.
         23    2    1    2    0    0  0.62133822021E+03 -0.56302949419E+03 -0.55534282429E+03  0.10098719951E+04  0.91500813058E+02 0.  0.
         13    1    3    3    0    0  0.56895474881E+03 -0.50491614566E+03 -0.53186758856E+03  0.92818799394E+03  0.00000000000E+00 0. -1.
        -13    1    3    3    0    0  0.52383471404E+02 -0.58113348532E+02 -0.23475235728E+02  0.81684001166E+02  0.00000000000E+00 0.  1.
         22    1    1    2    0    0 -0.62133822021E+03  0.56302949419E+03 -0.15495868452E+04  0.17618974959E+04  0.00000000000E+00 0. -1.
<mgrwt>
<rscale>  0 0.18033239E+04</rscale>
<asrwt>0</asrwt>
<pdfrwt beam="1">  1        2 0.37513070E+00 0.18033239E+04</pdfrwt>
<pdfrwt beam="2">  1       -2 0.51295371E-01 0.18033239E+04</pdfrwt>
<totfact> 0.12819685E+01</totfact>
</mgrwt>
</event>
<event>
 6    1  0.1885829E-005  0.6021720E+04  0.7818608E-02  0.7687715E-01
          2   -1    0    0  501    0  0.00000000000E+00  0.00000000000E+00  0.32330673857E+04  0.32330673857E+04  0.00000000000E+00 0. -1.
         -2   -1    0    0    0  501 -0.00000000000E+00 -0.00000000000E+00 -0.28039248745E+04  0.28039248745E+04  0.00000000000E+00 0.  1.
         23    2    1    2    0    0  0.65872671840E+03 -0.18022589308E+04 -0.21105540709E+04  0.28538936327E+04  0.90621397936E+02 0.  0.
         11    1    3    3    0    0  0.27097419982E+03 -0.83999647025E+03 -0.10146756097E+04  0.13448374176E+04  0.00000000000E+00 0.  1.
        -11    1    3    3    0    0  0.38775251858E+03 -0.96226246052E+03 -0.10958784612E+04  0.15090562151E+04  0.00000000000E+00 0. -1.
         22    1    1    2    0    0 -0.65872671840E+03  0.18022589308E+04  0.25396965821E+04  0.31830986274E+04  0.00000000000E+00 0. -1.
<mgrwt>
<rscale>  0 0.60217200E+04</rscale>
<asrwt>0</asrwt>
<pdfrwt beam="1">  1        2 0.49739498E+00 0.60217200E+04</pdfrwt>
<pdfrwt beam="2">  1       -2 0.43137306E+00 0.60217200E+04</pdfrwt>
<totfact> 0.38303904E-03</totfact>
</mgrwt>
</event>
<event>
 6    1  0.1885829E-005  0.7959306E+03  0.7818608E-02  0.9565926E-01
         -1   -1    0    0    0  501 -0.00000000000E+00  0.00000000000E+00  0.65946768503E+03  0.65946768503E+03  0.00000000000E+00 0.  1.
          1   -1    0    0  501    0  0.00000000000E+00 -0.00000000000E+00 -0.24015788708E+03  0.24015788708E+03  0.00000000000E+00 0. -1.
         23    2    1    2    0    0  0.17436842387E+03 -0.82235402586E+02 -0.17284576062E+03  0.27687745751E+03  0.98073751989E+02 0.  0.
         13    1    3    3    0    0  0.90179903103E+02 -0.13965240908E+02 -0.13320566897E+03  0.16146576455E+03  0.00000000000E+00 0.  1.
        -13    1    3    3    0    0  0.84188520768E+02 -0.68270161678E+02 -0.39640091656E+02  0.11541169296E+03  0.00000000000E+00 0. -1.
         22    1    1    2    0    0 -0.17436842387E+03  0.82235402586E+02  0.59215555857E+03  0.62274811459E+03  0.00000000000E+00 0.  1.
<mgrwt>
<rscale>  0 0.79593056E+03</rscale>
<asrwt>0</asrwt>
<pdfrwt beam="1">  1        1 0.36947367E-01 0.79593056E+03</pdfrwt>
<pdfrwt beam="2">  1       -1 0.10145657E+00 0.79593056E+03</pdfrwt>
<totfact> 0.10942766E+02</totfact>
</mgrwt>
</event>
<event>
 6    1  0.1885829E-005  0.1285481E+04  0.7818608E-02  0.9041159E-01
          2   -1    0    0  501    0  0.00000000000E+00  0.00000000000E+00  0.75865403687E+03  0.75865403687E+03  0.00000000000E+00 0. -1.
         -2   -1    0    0    0  501 -0.00000000000E+00 -0.00000000000E+00 -0.54453701923E+03  0.54453701923E+03  0.00000000000E+00 0.  1.
         23    2    1    2    0    0 -0.26388537544E+03  0.57526893272E+03  0.14440425189E+02  0.63953408304E+03  0.90694438435E+02 0.  0.
         13    1    3    3    0    0 -0.35781358070E+02  0.12306565652E+03 -0.28324728248E+02  0.13125452994E+03  0.00000000000E+00 0. -1.
        -13    1    3    3    0    0 -0.22810401737E+03  0.45220327620E+03  0.42765153436E+02  0.50827955310E+03  0.00000000000E+00 0.  1.
         22    1    1    2    0    0  0.26388537544E+03 -0.57526893272E+03  0.19967659245E+03  0.66365697307E+03  0.00000000000E+00 0. -1.
<mgrwt>
<rscale>  0 0.12854808E+04</rscale>
<asrwt>0</asrwt>
<pdfrwt beam="1">  1        2 0.11671601E+00 0.12854808E+04</pdfrwt>
<pdfrwt beam="2">  1       -2 0.83774926E-01 0.12854808E+04</pdfrwt>
<totfact> 0.45161070E+01</totfact>
</mgrwt>
</event>
<event>
 6    1  0.1885829E-005  0.7269959E+03  0.7818608E-02  0.9672148E-01
         -2   -1    0    0    0  501 -0.00000000000E+00  0.00000000000E+00  0.10502099478E+03  0.10502099478E+03  0.00000000000E+00 0. -1.
          2   -1    0    0  501    0  0.00000000000E+00 -0.00000000000E+00 -0.12581367721E+04  0.12581367721E+04  0.00000000000E+00 0.  1.
         23    2    1    2    0    0  0.11727351400E+03  0.28660849109E+03 -0.92123200449E+03  0.97628881185E+03  0.92595538779E+02 0.  0.
         11    1    3    3    0    0  0.10364178974E+03  0.18442834937E+03 -0.50584210294E+03  0.54829888723E+03  0.00000000000E+00 0.  1.
        -11    1    3    3    0    0  0.13631724258E+02  0.10218014172E+03 -0.41538990155E+03  0.42798992462E+03  0.00000000000E+00 0. -1.
         22    1    1    2    0    0 -0.11727351400E+03 -0.28660849109E+03 -0.23188377278E+03  0.38686895499E+03  0.00000000000E+00 0. -1.
<mgrwt>
<rscale>  0 0.72699594E+03</rscale>
<asrwt>0</asrwt>
<pdfrwt beam="1">  1        2 0.19355949E+00 0.72699594E+03</pdfrwt>
<pdfrwt beam="2">  1       -2 0.16157077E-01 0.72699594E+03</pdfrwt>
<totfact> 0.54520460E+02</totfact>
</mgrwt>
</event>
<event>
 6    1  0.1885829E-005  0.3668446E+04  0.7818608E-02  0.8074991E-01
         -2   -1    0    0    0  501 -0.00000000000E+00  0.00000000000E+00  0.12224615097E+04  0.12224615097E+04  0.00000000000E+00 0.  1.
          2   -1    0    0  501    0  0.00000000000E+00 -0.00000000000E+00 -0.27521312529E+04  0.27521312529E+04  0.00000000000E+00 0. -1.
         23    2    1    2    0    0  0.13219138694E+04 -0.65833298277E+03 -0.19418904654E+04  0.24413659307E+04  0.92034958699E+02 0.  0.
         13    1    3    3    0    0  0.88766305439E+03 -0.48740534012E+03 -0.13069394008E+04  0.16533602938E+04  0.00000000000E+00 0. -1.
        -13    1    3    3    0    0  0.43425081500E+03 -0.17092764265E+03 -0.63495106463E+03  0.78800563693E+03  0.00000000000E+00 0.  1.
         22    1    1    2    0    0 -0.13219138694E+04  0.65833298277E+03  0.41222072226E+03  0.15332268319E+04  0.00000000000E+00 0.  1.
<mgrwt>
<rscale>  0 0.36684463E+04</rscale>
<asrwt>0</asrwt>
<pdfrwt beam="1">  1        2 0.42340481E+00 0.36684463E+04</pdfrwt>
<pdfrwt beam="2">  1       -2 0.18807100E+00 0.36684463E+04</pdfrwt>
<totfact> 0.31979972E-01</totfact>
</mgrwt>
</event>
<event>
 6    1  0.1885829E-005  0.2708756E+04  0.7818608E-02  0.8332170E-01
         -2   -1    0    0    0  501 -0.00000000000E+00  0.00000000000E+00  0.14960022474E+04  0.14960022474E+04  0.00000000000E+00 0.  1.
          2   -1    0    0  501    0  0.00000000000E+00 -0.00000000000E+00 -0.12261611910E+04  0.12261611910E+04  0.00000000000E+00 0. -1.
         23    2    1    2    0    0  0.10323481619E+04  0.23223170508E+03  0.98223720803E+03  0.14465527731E+04  0.89725694875E+02 0.  0.
         11    1    3    3    0    0  0.44680656639E+03  0.10952747870E+03  0.48680752381E+03  0.66978648956E+03  0.00000000000E+00 0. -1.
        -11    1    3    3    0    0  0.58554159556E+03  0.12270422638E+03  0.49542968422E+03  0.77676628358E+03  0.00000000000E+00 0.  1.
         22    1    1    2    0    0 -0.10323481619E+04 -0.23223170508E+03 -0.71239615172E+03  0.12756106653E+04  0.00000000000E+00 0. -1.
<mgrwt>
<rscale>  0 0.27087561E+04</rscale>
<asrwt>0</asrwt>
<pdfrwt beam="1">  1        2 0.18864018E+00 0.27087561E+04</pdfrwt>
<pdfrwt beam="2">  1       -2 0.23015419E+00 0.27087561E+04</pdfrwt>
<totfact> 0.13665358E+00</totfact>
</mgrwt>
</event>
<event>
 6    1  0.1885829E-005  0.5044694E+04  0.7818608E-02  0.7821650E-01
          2   -1    0    0  501    0  0.00000000000E+00  0.00000000000E+00  0.27112073262E+04  0.27112073262E+04  0.00000000000E+00 0. -1.
         -2   -1    0    0    0  501 -0.00000000000E+00 -0.00000000000E+00 -0.23466422734E+04  0.23466422734E+04  0.00000000000E+00 0.  1.
         23    2    1    2    0    0  0.48903721734E+03 -0.21908776253E+04  0.13338194509E+04  0.26127409605E+04  0.90768002929E+02 0.  0.
         13    1    3    3    0    0  0.30246926115E+03 -0.13458719804E+04  0.87071772631E+03  0.16312597587E+04  0.00000000000E+00 0.  1.
        -13    1    3    3    0    0  0.18656795619E+03 -0.84500564490E+03  0.46310172455E+03  0.98148120179E+03  0.00000000000E+00 0. -1.
         22    1    1    2    0    0 -0.48903721734E+03  0.21908776253E+04 -0.96925439805E+03  0.24451086391E+04  0.00000000000E+00 0.  1.
<mgrwt>
<rscale>  0 0.50446937E+04</rscale>
<asrwt>0</asrwt>
<pdfrwt beam="1">  1        2 0.41710882E+00 0.50446937E+04</pdfrwt>
<pdfrwt beam="2">  1       -2 0.36102189E+00 0.50446937E+04</pdfrwt>
<totfact> 0.25132874E-02</totfact>
</mgrwt>
</event>
<event>
 6    1  0.1885829E-005  0.1895134E+04  0.7818608E-02  0.8657282E-01
          2   -1    0    0  501    0  0.00000000000E+00  0.00000000000E+00  0.81209547835E+03  0.81209547835E+03  0.00000000000E+00 0. -1.
         -2   -1    0    0    0  501 -0.00000000000E+00 -0.00000000000E+00 -0.11056374880E+04  0.11056374880E+04  0.00000000000E+00 0.  1.
         23    2    1    2    0    0 -0.75679139531E+03 -0.30627045366E+02 -0.71919993094E+03  0.10489085320E+04  0.96381200800E+02 0.  0.
         13    1    3    3    0    0 -0.40854739254E+03 -0.21424144908E+02 -0.32233091763E+03  0.52083316561E+03  0.00000000000E+00 0.  1.
        -13    1    3    3    0    0 -0.34824400277E+03 -0.92029004580E+01 -0.39686901331E+03  0.52807536637E+03  0.00000000000E+00 0. -1.
         22    1    1    2    0    0  0.75679139531E+03  0.30627045366E+02  0.42565792125E+03  0.86882443442E+03  0.00000000000E+00 0.  1.
<mgrwt>
<rscale>  0 0.18951340E+04</rscale>
<asrwt>0</asrwt>
<pdfrwt beam="1">  1        2 0.12493777E+00 0.18951340E+04</pdfrwt>
<pdfrwt beam="2">  1       -2 0.17009807E+00 0.18951340E+04</pdfrwt>
<totfact> 0.67278691E+00</totfact>
</mgrwt>
</event>
<event>
 6    1  0.2009136E-005  0.4474904E+04  0.7818608E-02  0.7915045E-01
          2   -1    0    0  501    0  0.00000000000E+00  0.00000000000E+00  0.21459165792E+04  0.21459165792E+04  0.00000000000E+00 0. -1.
         -2   -1    0    0    0  501 -0.00000000000E+00 -0.00000000000E+00 -0.23328921003E+04  0.23328921003E+04  0.00000000000E+00 0.  1.
         23    2    1    2    0    0 -0.21610417032E+04  0.42732904038E+03 -0.48023084495E+03  0.22564878123E+04  0.91674592615E+02 0.  0.
         11    1    3    3    0    0 -0.15994309649E+04  0.27973223914E+03 -0.33467450342E+03  0.16578409334E+04  0.00000000000E+00 0. -1.
        -11    1    3    3    0    0 -0.56161073829E+03  0.14759680124E+03 -0.14555634153E+03  0.59864687894E+03  0.00000000000E+00 0.  1.
         22    1    1    2    0    0  0.21610417032E+04 -0.42732904038E+03  0.29325532391E+03  0.22223208672E+04  0.00000000000E+00 0.  1.
<mgrwt>
<rscale>  0 0.44749042E+04</rscale>
<asrwt>0</asrwt>
<pdfrwt beam="1">  1        2 0.33014101E+00 0.44749042E+04</pdfrwt>
<pdfrwt beam="2">  1       -2 0.35890647E+00 0.44749042E+04</pdfrwt>
<totfact> 0.57453489E-02</totfact>
</mgrwt>
</event>
<event>
 6    1  0.1885829E-005  0.3004823E+04  0.7818608E-02  0.8242355E-01
         -2   -1    0    0    0  501 -0.00000000000E+00  0.00000000000E+00  0.86175718967E+03  0.86175718967E+03  0.00000000000E+00 0.  1.
          2   -1    0    0  501    0  0.00000000000E+00 -0.00000000000E+00 -0.26193457993E+04  0.26193457993E+04  0.00000000000E+00 0. -1.
         23    2    1    2    0    0  0.76071480959E+03 -0.12877392965E+04 -0.10183982771E+04  0.18127619372E+04  0.10959595419E+03 0.  0.
         13    1    3    3    0    0  0.26479474345E+03 -0.54481088003E+03 -0.38515346370E+03  0.71782890842E+03  0.00000000000E+00 0. -1.
        -13    1    3    3    0    0  0.49592006614E+03 -0.74292841643E+03 -0.63324481336E+03  0.10949330288E+04  0.00000000000E+00 0.  1.
         22    1    1    2    0    0 -0.76071480959E+03  0.12877392965E+04 -0.73919033257E+03  0.16683410517E+04  0.00000000000E+00 0.  1.
<mgrwt>
<rscale>  0 0.30048228E+04</rscale>
<asrwt>0</asrwt>
<pdfrwt beam="1">  1        2 0.40297627E+00 0.30048228E+04</pdfrwt>
<pdfrwt beam="2">  1       -2 0.13257803E+00 0.30048228E+04</pdfrwt>
<totfact> 0.10477433E+00</totfact>
</mgrwt>
</event>
<event>
 6    1  0.1885829E-005  0.4944136E+04  0.7818608E-02  0.7837183E-01
         -2   -1    0    0    0  501 -0.00000000000E+00  0.00000000000E+00  0.26921531341E+04  0.26921531341E+04  0.00000000000E+00 0.  1.
          2   -1    0    0  501    0  0.00000000000E+00 -0.00000000000E+00 -0.22699746746E+04  0.22699746746E+04  0.00000000000E+00 0. -1.
         23    2    1    2    0    0 -0.20914882456E+04  0.97735126105E+02 -0.11062972472E+04  0.23698096911E+04  0.90714588750E+02 0.  0.
         11    1    3    3    0    0 -0.10118227211E+04  0.52649368267E+02 -0.48446881779E+03  0.11230615345E+04  0.00000000000E+00 0. -1.
        -11    1    3    3    0    0 -0.10796655245E+04  0.45085757838E+02 -0.62182842945E+03  0.12467481566E+04  0.00000000000E+00 0.  1.
         22    1    1    2    0    0  0.20914882456E+04 -0.97735126105E+02  0.15284757068E+04  0.25923181175E+04  0.00000000000E+00 0.  1.
<mgrwt>
<rscale>  0 0.49441357E+04</rscale>
<asrwt>0</asrwt>
<pdfrwt beam="1">  1        2 0.34922687E+00 0.49441357E+04</pdfrwt>
<pdfrwt beam="2">  1       -2 0.41417741E+00 0.49441357E+04</pdfrwt>
<totfact> 0.20673795E-02</totfact>
</mgrwt>
</event>
<event>
 6    1  0.1885829E-005  0.1104639E+04  0.7818608E-02  0.9200682E-01
         -1   -1    0    0    0  501 -0.00000000000E+00  0.00000000000E+00  0.30575908578E+03  0.30575908578E+03  0.00000000000E+00 0.  1.
          1   -1    0    0  501    0  0.00000000000E+00 -0.00000000000E+00 -0.99770394400E+03  0.99770394400E+03  0.00000000000E+00 0. -1.
         23    2    1    2    0    0 -0.48470018712E+02 -0.18292984589E+03 -0.95567384769E+03  0.97886227329E+03  0.95111385606E+02 0.  0.
         11    1    3    3    0    0  0.20851977073E+02 -0.62830478222E+01 -0.84575945817E+02  0.87334828383E+02  0.00000000000E+00 0. -1.
        -11    1    3    3    0    0 -0.69321995786E+02 -0.17664679807E+03 -0.87109790187E+03  0.89152744490E+03  0.00000000000E+00 0.  1.
         22    1    1    2    0    0  0.48470018712E+02  0.18292984589E+03  0.26372898947E+03  0.32460075650E+03  0.00000000000E+00 0.  1.
<mgrwt>
<rscale>  0 0.11046394E+04</rscale>
<asrwt>0</asrwt>
<pdfrwt beam="1">  1        1 0.15349291E+00 0.11046394E+04</pdfrwt>
<pdfrwt beam="2">  1       -1 0.47039859E-01 0.11046394E+04</pdfrwt>
<totfact> 0.68173206E+01</totfact>
</mgrwt>
</event>
<event>
 6    1  0.1885829E-005  0.4555529E+03  0.7818608E-02  0.1026079E+00
         -2   -1    0    0    0  501 -0.00000000000E+00  0.00000000000E+00  0.16663633454E+03  0.16663633454E+03  0.00000000000E+00 0.  1.
          2   -1    0    0  501    0  0.00000000000E+00 -0.00000000000E+00 -0.31134929367E+03  0.31134929367E+03  0.00000000000E+00 0. -1.
         23    2    1    2    0    0  0.37781917916E+02 -0.15807748412E+03 -0.22963538449E+03  0.29460683271E+03  0.87434614223E+02 0.  0.
         11    1    3    3    0    0  0.31151357552E+02 -0.70818939026E+02 -0.17526525514E+03  0.19158193772E+03  0.00000000000E+00 0. -1.
        -11    1    3    3    0    0  0.66305603643E+01 -0.87258545094E+02 -0.54370129354E+02  0.10302489499E+03  0.00000000000E+00 0.  1.
         22    1    1    2    0    0 -0.37781917916E+02  0.15807748412E+03  0.84922425360E+02  0.18337879549E+03  0.00000000000E+00 0.  1.
<mgrwt>
<rscale>  0 0.45555287E+03</rscale>
<asrwt>0</asrwt>
<pdfrwt beam="1">  1        2 0.47899891E-01 0.45555287E+03</pdfrwt>
<pdfrwt beam="2">  1       -2 0.25636359E-01 0.45555287E+03</pdfrwt>
<totfact> 0.14370309E+03</totfact>
</mgrwt>
</event>
<event>
 6    1  0.2041023E-005  0.2650308E+04  0.7818608E-02  0.8351311E-01
          2   -1    0    0  501    0  0.00000000000E+00  0.00000000000E+00  0.13416003164E+04  0.13416003164E+04  0.00000000000E+00 0. -1.
         -2   -1    0    0    0  501 -0.00000000000E+00 -0.00000000000E+00 -0.13089097785E+04  0.13089097785E+04  0.00000000000E+00 0.  1.
         23    2    1    2    0    0  0.10705430301E+04  0.62372257388E+03 -0.44922224390E+03  0.13210996400E+04  0.91713718228E+02 0.  0.
         11    1    3    3    0    0  0.48662114186E+03  0.31505572265E+03 -0.24912232733E+03  0.63096923701E+03  0.00000000000E+00 0. -1.
        -11    1    3    3    0    0  0.58392188821E+03  0.30866685122E+03 -0.20009991657E+03  0.69013040303E+03  0.00000000000E+00 0.  1.
         22    1    1    2    0    0 -0.10705430301E+04 -0.62372257388E+03  0.48191278182E+03  0.13294104549E+04  0.00000000000E+00 0. -1.
<mgrwt>
<rscale>  0 0.26503085E+04</rscale>
<asrwt>0</asrwt>
<pdfrwt beam="1">  1        2 0.20640005E+00 0.26503085E+04</pdfrwt>
<pdfrwt beam="2">  1       -2 0.20137073E+00 0.26503085E+04</pdfrwt>
<totfact> 0.17944385E+00</totfact>
</mgrwt>
</event>
<event>
 6    1  0.1885829E-005  0.4301118E+04  0.7818608E-02  0.7946411E-01
         -2   -1    0    0    0  501 -0.00000000000E+00  0.00000000000E+00  0.19406721146E+04  0.19406721146E+04  0.00000000000E+00 0.  1.
          2   -1    0    0  501    0  0.00000000000E+00 -0.00000000000E+00 -0.23831449576E+04  0.23831449576E+04  0.00000000000E+00 0. -1.
         23    2    1    2    0    0 -0.82258078692E+03 -0.17909127837E+04  0.64160097438E+03  0.20745452364E+04  0.89879795237E+02 0.  0.
         13    1    3    3    0    0 -0.20754883182E+03 -0.53946432524E+03  0.16878272186E+03  0.60215104666E+03  0.00000000000E+00 0. -1.
        -13    1    3    3    0    0 -0.61503195510E+03 -0.12514484585E+04  0.47281825252E+03  0.14723941897E+04  0.00000000000E+00 0.  1.
         22    1    1    2    0    0  0.82258078692E+03  0.17909127837E+04 -0.10840738174E+04  0.22492718359E+04  0.00000000000E+00 0. -1.
<mgrwt>
<rscale>  0 0.43011175E+04</rscale>
<asrwt>0</asrwt>
<pdfrwt beam="1">  1        2 0.36663769E+00 0.43011175E+04</pdfrwt>
<pdfrwt beam="2">  1       -2 0.29856494E+00 0.43011175E+04</pdfrwt>
<totfact> 0.10151271E-01</totfact>
</mgrwt>
</event>
<event>
 6    1  0.1885829E-005  0.4615507E+04  0.7818608E-02  0.7890721E-01
          1   -1    0    0  501    0  0.00000000000E+00  0.00000000000E+00  0.32410756069E+04  0.32410756069E+04  0.00000000000E+00 0. -1.
         -1   -1    0    0    0  501 -0.00000000000E+00 -0.00000000000E+00 -0.16431973487E+04  0.16431973487E+04  0.00000000000E+00 0.  1.
         23    2    1    2    0    0  0.16767317411E+04  0.13032296919E+04 -0.15402840098E+03  0.21312720650E+04  0.93589022465E+02 0.  0.
         13    1    3    3    0    0  0.10882366728E+04  0.89078937758E+03 -0.12844580070E+03  0.14121838035E+04  0.00000000000E+00 0.  1.
        -13    1    3    3    0    0  0.58849506835E+03  0.41244031429E+03 -0.25582600280E+02  0.71908826146E+03  0.00000000000E+00 0. -1.
         22    1    1    2    0    0 -0.16767317411E+04 -0.13032296919E+04  0.17519066591E+04  0.27530008906E+04  0.00000000000E+00 0. -1.
<mgrwt>
<rscale>  0 0.46155073E+04</rscale>
<asrwt>0</asrwt>
<pdfrwt beam="1">  1        1 0.49862702E+00 0.46155073E+04</pdfrwt>
<pdfrwt beam="2">  1       -1 0.25279959E+00 0.46155073E+04</pdfrwt>
<totfact> 0.19685576E-02</totfact>
</mgrwt>
</event>
<event>
 6    1  0.1885829E-005  0.4481187E+03  0.7818608E-02  0.1028285E+00
         -1   -1    0    0    0  501 -0.00000000000E+00  0.00000000000E+00  0.27877108607E+03  0.27877108607E+03  0.00000000000E+00 0.  1.
          1   -1    0    0  501    0  0.00000000000E+00 -0.00000000000E+00 -0.18008539606E+03  0.18008539606E+03  0.00000000000E+00 0. -1.
         23    2    1    2    0    0 -0.51565090457E+02  0.19654977012E+02  0.26391175012E+03  0.28465852688E+03  0.91300538895E+02 0.  0.
         13    1    3    3    0    0 -0.40637949006E+00  0.37231060649E+02  0.41462330084E+02  0.55726491342E+02  0.00000000000E+00 0. -1.
        -13    1    3    3    0    0 -0.51158710967E+02 -0.17576083637E+02  0.22244942003E+03  0.22893203554E+03  0.00000000000E+00 0.  1.
         22    1    1    2    0    0  0.51565090457E+02 -0.19654977012E+02 -0.16522606010E+03  0.17419795525E+03  0.00000000000E+00 0. -1.
<mgrwt>
<rscale>  0 0.44811874E+03</rscale>
<asrwt>0</asrwt>
<pdfrwt beam="1">  1        1 0.27705446E-01 0.44811874E+03</pdfrwt>
<pdfrwt beam="2">  1       -1 0.42887859E-01 0.44811874E+03</pdfrwt>
<totfact> 0.91664434E+02</totfact>
</mgrwt>
</event>
<event>
 6    1  0.1885829E-005  0.1095908E+04  0.7818608E-02  0.9209189E-01
         -2   -1    0    0    0  501 -0.00000000000E+00  0.00000000000E+00  0.33956393413E+03  0.33956393413E+03  0.00000000000E+00 0.  1.
          2   -1    0    0  501    0  0.00000000000E+00 -0.00000000000E+00 -0.88423354435E+03  0.88423354435E+03  0.00000000000E+00 0. -1.
         23    2    1    2    0    0 -0.45334057284E+03  0.13444778388E+03  0.26643693202E+02  0.48218250274E+03  0.90532855847E+02 0.  0.
         13    1    3    3    0    0 -0.40299135970E+03  0.12953975734E+03 -0.34626512793E+01  0.42331380166E+03  0.00000000000E+00 0. -1.
        -13    1    3    3    0    0 -0.50349213138E+02  0.49080265365E+01  0.30106344481E+02  0.58868701074E+02  0.00000000000E+00 0.  1.
         22    1    1    2    0    0  0.45334057284E+03 -0.13444778388E+03 -0.57131330342E+03  0.74161497574E+03  0.00000000000E+00 0. -1.
<mgrwt>
<rscale>  0 0.10959084E+04</rscale>
<asrwt>0</asrwt>
<pdfrwt beam="1">  1        2 0.13603592E+00 0.10959084E+04</pdfrwt>
<pdfrwt beam="2">  1       -2 0.52240607E-01 0.10959084E+04</pdfrwt>
<totfact> 0.10323645E+02</totfact>
</mgrwt>
</event>
<event>
 6    1  0.1885829E-005  0.5472781E+04  0.7818608E-02  0.7759446E-01
          2   -1    0    0  501    0  0.00000000000E+00  0.00000000000E+00  0.32887899181E+04  0.32887899181E+04  0.00000000000E+00 0.  1.
         -2   -1    0    0    0  501 -0.00000000000E+00 -0.00000000000E+00 -0.22767745976E+04  0.22767745976E+04  0.00000000000E+00 0. -1.
         23    2    1    2    0    0 -0.98869517156E+03  0.12015290414E+04  0.27942833501E+04  0.31996250598E+04  0.91601875137E+02 0.  0.
         11    1    3    3    0    0 -0.73832157161E+03  0.91919162186E+03  0.21899753740E+04  0.24871719119E+04  0.00000000000E+00 0. -1.
        -11    1    3    3    0    0 -0.25037359995E+03  0.28233741951E+03  0.60430797604E+03  0.71245314787E+03  0.00000000000E+00 0.  1.
         22    1    1    2    0    0  0.98869517156E+03 -0.12015290414E+04 -0.17822680296E+04  0.23659394559E+04  0.00000000000E+00 0. -1.
<mgrwt>
<rscale>  0 0.54727811E+04</rscale>
<asrwt>0</asrwt>
<pdfrwt beam="1">  1        2 0.50596768E+00 0.54727811E+04</pdfrwt>
<pdfrwt beam="2">  1       -2 0.35027302E+00 0.54727811E+04</pdfrwt>
<totfact> 0.12301841E-02</totfact>
</mgrwt>
</event>
<event>
 6    1  0.1885829E-005  0.2125404E+04  0.7818608E-02  0.8550134E-01
          2   -1    0    0  501    0  0.00000000000E+00  0.00000000000E+00  0.12666516650E+04  0.12666516650E+04  0.00000000000E+00 0. -1.
         -2   -1    0    0    0  501 -0.00000000000E+00 -0.00000000000E+00 -0.89159159452E+03  0.89159159452E+03  0.00000000000E+00 0.  1.
         23    2    1    2    0    0  0.23257176806E+03 -0.43028010030E+03 -0.76791553504E+03  0.91501205544E+03  0.91226096286E+02 0.  0.
         11    1    3    3    0    0  0.14237030086E+03 -0.34566102747E+03 -0.57234221490E+03  0.68361279935E+03  0.00000000000E+00 0. -1.
        -11    1    3    3    0    0  0.90201467197E+02 -0.84619072832E+02 -0.19557332014E+03  0.23139925609E+03  0.00000000000E+00 0.  1.
         22    1    1    2    0    0 -0.23257176806E+03  0.43028010030E+03  0.11429756055E+04  0.12432312041E+04  0.00000000000E+00 0. -1.
<mgrwt>
<rscale>  0 0.21254044E+04</rscale>
<asrwt>0</asrwt>
<pdfrwt beam="1">  1        2 0.19486949E+00 0.21254044E+04</pdfrwt>
<pdfrwt beam="2">  1       -2 0.13716794E+00 0.21254044E+04</pdfrwt>
<totfact> 0.60234225E+00</totfact>
</mgrwt>
</event>
<event>
 6    1  0.1885829E-005  0.4001448E+04  0.7818608E-02  0.8004254E-01
          2   -1    0    0  501    0  0.00000000000E+00  0.00000000000E+00  0.13943959931E+04  0.13943959931E+04  0.00000000000E+00 0. -1.
         -2   -1    0    0    0  501 -0.00000000000E+00 -0.00000000000E+00 -0.28707032974E+04  0.28707032974E+04  0.00000000000E+00 0.  1.
         23    2    1    2    0    0 -0.13423401041E+04  0.11688164403E+04 -0.17101278316E+04  0.24699166076E+04  0.89118023322E+02 0.  0.
         13    1    3    3    0    0 -0.10648269383E+04  0.97193392656E+03 -0.13963420089E+04  0.20070582881E+04  0.00000000000E+00 0.  1.
        -13    1    3    3    0    0 -0.27751316581E+03  0.19688251370E+03 -0.31378582271E+03  0.46285831951E+03  0.00000000000E+00 0. -1.
         22    1    1    2    0    0  0.13423401041E+04 -0.11688164403E+04  0.23382052722E+03  0.17951826829E+04  0.00000000000E+00 0. -1.
<mgrwt>
<rscale>  0 0.40014483E+04</rscale>
<asrwt>0</asrwt>
<pdfrwt beam="1">  1        2 0.21452246E+00 0.40014483E+04</pdfrwt>
<pdfrwt beam="2">  1       -2 0.44164666E+00 0.40014483E+04</pdfrwt>
<totfact> 0.45322069E-02</totfact>
</mgrwt>
</event>
<event>
 6    1  0.1885829E-005  0.5095116E+04  0.7818608E-02  0.7814000E-01
          1   -1    0    0  501    0  0.00000000000E+00  0.00000000000E+00  0.29717313347E+04  0.29717313347E+04  0.00000000000E+00 0. -1.
         -1   -1    0    0    0  501 -0.00000000000E+00 -0.00000000000E+00 -0.21839298062E+04  0.21839298062E+04  0.00000000000E+00 0.  1.
         23    2    1    2    0    0  0.23445580653E+03 -0.21231137985E+04 -0.10093112613E+04  0.23642106030E+04  0.90558413608E+02 0.  0.
         11    1    3    3    0    0  0.20722183532E+02 -0.45085826795E+03 -0.23883717513E+03  0.51063272799E+03  0.00000000000E+00 0.  1.
        -11    1    3    3    0    0  0.21373362299E+03 -0.16722555306E+04 -0.77047408620E+03  0.18535778750E+04  0.00000000000E+00 0. -1.
         22    1    1    2    0    0 -0.23445580653E+03  0.21231137985E+04  0.17971127898E+04  0.27914505379E+04  0.00000000000E+00 0. -1.
<mgrwt>
<rscale>  0 0.50951163E+04</rscale>
<asrwt>0</asrwt>
<pdfrwt beam="1">  1        1 0.45718944E+00 0.50951163E+04</pdfrwt>
<pdfrwt beam="2">  1       -1 0.33598920E+00 0.50951163E+04</pdfrwt>
<totfact> 0.86358619E-03</totfact>
</mgrwt>
</event>
<event>
 6    1  0.1885829E-005  0.2865389E+04  0.7818608E-02  0.8283250E-01
         -2   -1    0    0    0  501 -0.00000000000E+00  0.00000000000E+00  0.14346874549E+04  0.14346874549E+04  0.00000000000E+00 0.  1.
          2   -1    0    0  501    0  0.00000000000E+00 -0.00000000000E+00 -0.14307039101E+04  0.14307039101E+04  0.00000000000E+00 0. -1.
         23    2    1    2    0    0  0.18490269235E+03  0.10106041644E+04 -0.99444556919E+03  0.14327816909E+04  0.91823749570E+02 0.  0.
         13    1    3    3    0    0  0.54375580534E+02  0.43836772929E+03 -0.37506401901E+03  0.57947906623E+03  0.00000000000E+00 0. -1.
        -13    1    3    3    0    0  0.13052711182E+03  0.57223643513E+03 -0.61938155018E+03  0.85330262469E+03  0.00000000000E+00 0.  1.
         22    1    1    2    0    0 -0.18490269235E+03 -0.10106041644E+04  0.99842911392E+03  0.14326096741E+04  0.00000000000E+00 0.  1.
<mgrwt>
<rscale>  0 0.28653886E+04</rscale>
<asrwt>0</asrwt>
<pdfrwt beam="1">  1        2 0.22010829E+00 0.28653886E+04</pdfrwt>
<pdfrwt beam="2">  1       -2 0.22072115E+00 0.28653886E+04</pdfrwt>
<totfact> 0.11764556E+00</totfact>
</mgrwt>
</event>
<event>
 6    1  0.1885829E-005  0.5020032E+04  0.7818608E-02  0.7825425E-01
         -2   -1    0    0    0  501 -0.00000000000E+00  0.00000000000E+00  0.21591433982E+04  0.21591433982E+04  0.00000000000E+00 0.  1.
          2   -1    0    0  501    0  0.00000000000E+00 -0.00000000000E+00 -0.29179073576E+04  0.29179073576E+04  0.00000000000E+00 0. -1.
         23    2    1    2    0    0 -0.37875758494E+03  0.60047103772E+03  0.20545143623E+04  0.21755756671E+04  0.89874596594E+02 0.  0.
         11    1    3    3    0    0 -0.77859619454E+02  0.68271274174E+02  0.33256101826E+03  0.34831008898E+03  0.00000000000E+00 0.  1.
        -11    1    3    3    0    0 -0.30089796548E+03  0.53219976354E+03  0.17219533441E+04  0.18272655781E+04  0.00000000000E+00 0. -1.
         22    1    1    2    0    0  0.37875758494E+03 -0.60047103772E+03 -0.28132783216E+04  0.29014750887E+04  0.00000000000E+00 0. -1.
<mgrwt>
<rscale>  0 0.50200320E+04</rscale>
<asrwt>0</asrwt>
<pdfrwt beam="1">  1        2 0.44890882E+00 0.50200320E+04</pdfrwt>
<pdfrwt beam="2">  1       -2 0.33217591E+00 0.50200320E+04</pdfrwt>
<totfact> 0.28636639E-02</totfact>
</mgrwt>
</event>
<event>
 6    1  0.1885829E-005  0.2760829E+04  0.7818608E-02  0.8315534E-01
          2   -1    0    0  501    0  0.00000000000E+00  0.00000000000E+00  0.17477780312E+04  0.17477780312E+04  0.00000000000E+00 0. -1.
         -2   -1    0    0    0  501 -0.00000000000E+00 -0.00000000000E+00 -0.10902663566E+04  0.10902663566E+04  0.00000000000E+00 0.  1.
         23    2    1    2    0    0 -0.76185908891E+03  0.10802337735E+04 -0.75313067450E+02  0.13266323397E+04  0.83348843447E+02 0.  0.
         13    1    3    3    0    0 -0.13971030664E+03  0.18032706162E+03  0.16787354782E+02  0.22873266976E+03  0.00000000000E+00 0. -1.
        -13    1    3    3    0    0 -0.62214878226E+03  0.89990671192E+03 -0.92100422231E+02  0.10978996699E+04  0.00000000000E+00 0.  1.
         22    1    1    2    0    0  0.76185908891E+03 -0.10802337735E+04  0.73282474203E+03  0.15114120482E+04  0.00000000000E+00 0. -1.
<mgrwt>
<rscale>  0 0.27608286E+04</rscale>
<asrwt>0</asrwt>
<pdfrwt beam="1">  1        2 0.26888893E+00 0.27608286E+04</pdfrwt>
<pdfrwt beam="2">  1       -2 0.16773329E+00 0.27608286E+04</pdfrwt>
<totfact> 0.17818487E+00</totfact>
</mgrwt>
</event>
<event>
 6    1  0.1885829E-005  0.3218213E+04  0.7818608E-02  0.8184024E-01
         -2   -1    0    0    0  501 -0.00000000000E+00  0.00000000000E+00  0.10152321599E+04  0.10152321599E+04  0.00000000000E+00 0.  1.
          2   -1    0    0  501    0  0.00000000000E+00 -0.00000000000E+00 -0.25503767665E+04  0.25503767665E+04  0.00000000000E+00 0. -1.
         23    2    1    2    0    0 -0.12908226097E+04  0.16557673484E+03  0.27785218611E+03  0.13338840251E+04  0.91684732376E+02 0.  0.
         11    1    3    3    0    0 -0.42279764410E+03  0.82182169965E+02  0.12578771197E+03  0.44870291441E+03  0.00000000000E+00 0.  1.
        -11    1    3    3    0    0 -0.86802496563E+03  0.83394564871E+02  0.15206447413E+03  0.88518111067E+03  0.00000000000E+00 0. -1.
         22    1    1    2    0    0  0.12908226097E+04 -0.16557673484E+03 -0.18129967927E+04  0.22317249013E+04  0.00000000000E+00 0. -1.
<mgrwt>
<rscale>  0 0.32182135E+04</rscale>
<asrwt>0</asrwt>
<pdfrwt beam="1">  1        2 0.39236565E+00 0.32182135E+04</pdfrwt>
<pdfrwt beam="2">  1       -2 0.15618957E+00 0.32182135E+04</pdfrwt>
<totfact> 0.73555939E-01</totfact>
</mgrwt>
</event>
<event>
 6    1  0.1885829E-005  0.2816311E+04  0.7818608E-02  0.8298222E-01
         -2   -1    0    0    0  501 -0.00000000000E+00  0.00000000000E+00  0.99651419478E+03  0.99651419478E+03  0.00000000000E+00 0.  1.
          2   -1    0    0  501    0  0.00000000000E+00 -0.00000000000E+00 -0.19898379915E+04  0.19898379915E+04  0.00000000000E+00 0. -1.
         23    2    1    2    0    0  0.20826994427E+03 -0.83522211785E+03  0.68249620143E+03  0.11023816393E+04  0.92042695492E+02 0.  0.
         13    1    3    3    0    0  0.75998422943E+02 -0.41341541075E+03  0.38080167993E+03  0.56718425716E+03  0.00000000000E+00 0.  1.
        -13    1    3    3    0    0  0.13227152133E+03 -0.42180670709E+03  0.30169452151E+03  0.53519738210E+03  0.00000000000E+00 0. -1.
         22    1    1    2    0    0 -0.20826994427E+03  0.83522211785E+03 -0.16758199982E+04  0.18839705470E+04  0.00000000000E+00 0. -1.
<mgrwt>
<rscale>  0 0.28163109E+04</rscale>
<asrwt>0</asrwt>
<pdfrwt beam="1">  1        2 0.30612892E+00 0.28163109E+04</pdfrwt>
<pdfrwt beam="2">  1       -2 0.15330988E+00 0.28163109E+04</pdfrwt>
<totfact> 0.16629926E+00</totfact>
</mgrwt>
</event>
<event>
 6    1  0.1885829E-005  0.2424493E+04  0.7818608E-02  0.8430390E-01
         -2   -1    0    0    0  501 -0.00000000000E+00  0.00000000000E+00  0.90360848718E+03  0.90360848718E+03  0.00000000000E+00 0.  1.
          2   -1    0    0  501    0  0.00000000000E+00 -0.00000000000E+00 -0.16263039424E+04  0.16263039424E+04  0.00000000000E+00 0. -1.
         23    2    1    2    0    0 -0.33985901993E+03  0.50107941996E+03  0.73200216485E+03  0.95424434767E+03  0.90390083465E+02 0.  0.
         13    1    3    3    0    0 -0.16337767566E+03  0.24715973093E+03  0.28812469532E+03  0.41327477246E+03  0.00000000000E+00 0. -1.
        -13    1    3    3    0    0 -0.17648134427E+03  0.25391968903E+03  0.44387746953E+03  0.54096957521E+03  0.00000000000E+00 0.  1.
         22    1    1    2    0    0  0.33985901993E+03 -0.50107941996E+03 -0.14546976200E+04  0.15756680819E+04  0.00000000000E+00 0. -1.
<mgrwt>
<rscale>  0 0.24244934E+04</rscale>
<asrwt>0</asrwt>
<pdfrwt beam="1">  1        2 0.25020061E+00 0.24244934E+04</pdfrwt>
<pdfrwt beam="2">  1       -2 0.13901669E+00 0.24244934E+04</pdfrwt>
<totfact> 0.35395448E+00</totfact>
</mgrwt>
</event>
<event>
 6    1  0.2084110E-005  0.3373789E+04  0.7818608E-02  0.8144369E-01
          2   -1    0    0  501    0  0.00000000000E+00  0.00000000000E+00  0.21768970433E+04  0.21768970433E+04  0.00000000000E+00 0. -1.
         -2   -1    0    0    0  501 -0.00000000000E+00 -0.00000000000E+00 -0.13071878345E+04  0.13071878345E+04  0.00000000000E+00 0.  1.
         23    2    1    2    0    0 -0.13393064774E+04  0.39366703976E+03 -0.54067820826E+03  0.14996685291E+04  0.89203103140E+02 0.  0.
         13    1    3    3    0    0 -0.96850050765E+03  0.31917357677E+03 -0.37090040981E+03  0.10850954425E+04  0.00000000000E+00 0.  1.
        -13    1    3    3    0    0 -0.37080596976E+03  0.74493462986E+02 -0.16977779845E+03  0.41457308654E+03  0.00000000000E+00 0. -1.
         22    1    1    2    0    0  0.13393064774E+04 -0.39366703976E+03  0.14103874171E+04  0.19844163487E+04  0.00000000000E+00 0. -1.
<mgrwt>
<rscale>  0 0.33737892E+04</rscale>
<asrwt>0</asrwt>
<pdfrwt beam="1">  1        2 0.33490724E+00 0.33737892E+04</pdfrwt>
<pdfrwt beam="2">  1       -2 0.20110582E+00 0.33737892E+04</pdfrwt>
<totfact> 0.57777277E-01</totfact>
</mgrwt>
</event>
<event>
 6    1  0.1885829E-005  0.2586351E+04  0.7818608E-02  0.8372852E-01
          2   -1    0    0  501    0  0.00000000000E+00  0.00000000000E+00  0.12787676019E+04  0.12787676019E+04  0.00000000000E+00 0. -1.
         -2   -1    0    0    0  501 -0.00000000000E+00 -0.00000000000E+00 -0.13077459174E+04  0.13077459174E+04  0.00000000000E+00 0.  1.
         23    2    1    2    0    0  0.10063795426E+04 -0.18714124575E+03  0.77302722941E+03  0.12861156864E+04  0.93278249124E+02 0.  0.
         13    1    3    3    0    0  0.64386966504E+03 -0.96529400763E+02  0.44210915022E+03  0.78698575049E+03  0.00000000000E+00 0. -1.
        -13    1    3    3    0    0  0.36250987757E+03 -0.90611844984E+02  0.33091807919E+03  0.49912993591E+03  0.00000000000E+00 0.  1.
         22    1    1    2    0    0 -0.10063795426E+04  0.18714124575E+03 -0.80200554499E+03  0.13003978329E+04  0.00000000000E+00 0.  1.
<mgrwt>
<rscale>  0 0.25863512E+04</rscale>
<asrwt>0</asrwt>
<pdfrwt beam="1">  1        2 0.19673348E+00 0.25863512E+04</pdfrwt>
<pdfrwt beam="2">  1       -2 0.20119168E+00 0.25863512E+04</pdfrwt>
<totfact> 0.19678620E+00</totfact>
</mgrwt>
</event>
<event>
 6    1  0.1885829E-005  0.3153392E+04  0.7818608E-02  0.8201236E-01
         -2   -1    0    0    0  501 -0.00000000000E+00  0.00000000000E+00  0.16557502578E+04  0.16557502578E+04  0.00000000000E+00 0.  1.
          2   -1    0    0  501    0  0.00000000000E+00 -0.00000000000E+00 -0.15014163577E+04  0.15014163577E+04  0.00000000000E+00 0. -1.
         23    2    1    2    0    0  0.33566797856E+03 -0.69043051957E+03 -0.13001184535E+04  0.15125393193E+04  0.89999473070E+02 0.  0.
         11    1    3    3    0    0  0.63775238899E+02 -0.85225885607E+02 -0.13698638489E+03  0.17348199422E+03  0.00000000000E+00 0.  1.
        -11    1    3    3    0    0  0.27189273966E+03 -0.60520463396E+03 -0.11631320686E+04  0.13390573251E+04  0.00000000000E+00 0. -1.
         22    1    1    2    0    0 -0.33566797856E+03  0.69043051957E+03  0.14544523536E+04  0.16446272961E+04  0.00000000000E+00 0.  1.
<mgrwt>
<rscale>  0 0.31533922E+04</rscale>
<asrwt>0</asrwt>
<pdfrwt beam="1">  1        2 0.23098713E+00 0.31533922E+04</pdfrwt>
<pdfrwt beam="2">  1       -2 0.25473081E+00 0.31533922E+04</pdfrwt>
<totfact> 0.64369885E-01</totfact>
</mgrwt>
</event>
<event>
 6    1  0.1885829E-005  0.1166084E+04  0.7818608E-02  0.9143072E-01
         -2   -1    0    0    0  501 -0.00000000000E+00  0.00000000000E+00  0.46042676259E+03  0.46042676259E+03  0.00000000000E+00 0.  1.
          2   -1    0    0  501    0  0.00000000000E+00 -0.00000000000E+00 -0.73831109690E+03  0.73831109690E+03  0.00000000000E+00 0. -1.
         23    2    1    2    0    0  0.11606994143E+03 -0.38622886688E+03  0.28784610920E+03  0.50397465982E+03  0.92141772524E+02 0.  0.
         11    1    3    3    0    0  0.60655431788E+02 -0.18332134746E+03  0.82372289582E+02  0.20993092181E+03  0.00000000000E+00 0. -1.
        -11    1    3    3    0    0  0.55414509637E+02 -0.20290751942E+03  0.20547381961E+03  0.29404373801E+03  0.00000000000E+00 0.  1.
         22    1    1    2    0    0 -0.11606994143E+03  0.38622886688E+03 -0.56573044350E+03  0.69476319967E+03  0.00000000000E+00 0. -1.
<mgrwt>
<rscale>  0 0.11660844E+04</rscale>
<asrwt>0</asrwt>
<pdfrwt beam="1">  1        2 0.11358632E+00 0.11660844E+04</pdfrwt>
<pdfrwt beam="2">  1       -2 0.70834887E-01 0.11660844E+04</pdfrwt>
<totfact> 0.68584354E+01</totfact>
</mgrwt>
</event>
<event>
 6    1  0.1885829E-005  0.5967159E+04  0.7818608E-02  0.7694487E-01
         -2   -1    0    0    0  501 -0.00000000000E+00  0.00000000000E+00  0.32055124081E+04  0.32055124081E+04  0.00000000000E+00 0.  1.
          2   -1    0    0  501    0  0.00000000000E+00 -0.00000000000E+00 -0.27770119652E+04  0.27770119652E+04  0.00000000000E+00 0. -1.
         23    2    1    2    0    0 -0.15809034452E+04  0.70208427448E+03 -0.22219020506E+04  0.28175897121E+04  0.98919318952E+02 0.  0.
         11    1    3    3    0    0 -0.11783717688E+04  0.53345520621E+03 -0.15913917272E+04  0.20507711018E+04  0.00000000000E+00 0.  1.
        -11    1    3    3    0    0 -0.40253167637E+03  0.16862906827E+03 -0.63051032348E+03  0.76681861033E+03  0.00000000000E+00 0. -1.
         22    1    1    2    0    0  0.15809034452E+04 -0.70208427448E+03  0.26504024936E+04  0.31649346612E+04  0.00000000000E+00 0.  1.
<mgrwt>
<rscale>  0 0.59671589E+04</rscale>
<asrwt>0</asrwt>
<pdfrwt beam="1">  1        2 0.42723261E+00 0.59671589E+04</pdfrwt>
<pdfrwt beam="2">  1       -2 0.49315575E+00 0.59671589E+04</pdfrwt>
<totfact> 0.29629314E-03</totfact>
</mgrwt>
</event>
<event>
 6    1  0.1885829E-005  0.3685735E+04  0.7818608E-02  0.8071131E-01
          2   -1    0    0  501    0  0.00000000000E+00  0.00000000000E+00  0.32012939885E+04  0.32012939885E+04  0.00000000000E+00 0. -1.
         -2   -1    0    0    0  501 -0.00000000000E+00 -0.00000000000E+00 -0.10608711346E+04  0.10608711346E+04  0.00000000000E+00 0.  1.
         23    2    1    2    0    0  0.10696610202E+04 -0.91594073453E+03 -0.30125764379E+03  0.14434906509E+04  0.98929085954E+02 0.  0.
         11    1    3    3    0    0  0.14218217856E+03 -0.16658164849E+03 -0.57934251696E+02  0.22654270024E+03  0.00000000000E+00 0. -1.
        -11    1    3    3    0    0  0.92747884166E+03 -0.74935908604E+03 -0.24332339209E+03  0.12169479507E+04  0.00000000000E+00 0.  1.
         22    1    1    2    0    0 -0.10696610202E+04  0.91594073453E+03  0.24416804977E+04  0.28186744722E+04  0.00000000000E+00 0. -1.
<mgrwt>
<rscale>  0 0.36857349E+04</rscale>
<asrwt>0</asrwt>
<pdfrwt beam="1">  1        2 0.49250676E+00 0.36857349E+04</pdfrwt>
<pdfrwt beam="2">  1       -2 0.16321095E+00 0.36857349E+04</pdfrwt>
<totfact> 0.24963205E-01</totfact>
</mgrwt>
</event>
<event>
 6    1  0.1885829E-005  0.2705932E+04  0.7818608E-02  0.8333083E-01
          2   -1    0    0  501    0  0.00000000000E+00  0.00000000000E+00  0.15500816142E+04  0.15500816142E+04  0.00000000000E+00 0. -1.
         -2   -1    0    0    0  501 -0.00000000000E+00 -0.00000000000E+00 -0.11809167356E+04  0.11809167356E+04  0.00000000000E+00 0.  1.
         23    2    1    2    0    0  0.44733660489E+03  0.27062541879E+03 -0.10729092157E+04  0.11970733683E+04  0.92207964128E+02 0.  0.
         11    1    3    3    0    0  0.18330764319E+03  0.89861317871E+02 -0.51387122715E+03  0.55293795908E+03  0.00000000000E+00 0. -1.
        -11    1    3    3    0    0  0.26402896171E+03  0.18076410092E+03 -0.55903798855E+03  0.64413540924E+03  0.00000000000E+00 0.  1.
         22    1    1    2    0    0 -0.44733660489E+03 -0.27062541879E+03  0.14420740943E+04  0.15339249815E+04  0.00000000000E+00 0. -1.
<mgrwt>
<rscale>  0 0.27059322E+04</rscale>
<asrwt>0</asrwt>
<pdfrwt beam="1">  1        2 0.23847409E+00 0.27059322E+04</pdfrwt>
<pdfrwt beam="2">  1       -2 0.18167950E+00 0.27059322E+04</pdfrwt>
<totfact> 0.18417848E+00</totfact>
</mgrwt>
</event>
<event>
 6    1  0.1885829E-005  0.2562958E+04  0.7818608E-02  0.8380894E-01
          2   -1    0    0  501    0  0.00000000000E+00  0.00000000000E+00  0.15124749231E+04  0.15124749231E+04  0.00000000000E+00 0. -1.
         -2   -1    0    0    0  501 -0.00000000000E+00 -0.00000000000E+00 -0.10857620525E+04  0.10857620525E+04  0.00000000000E+00 0.  1.
         23    2    1    2    0    0  0.11366159790E+04  0.13852228809E+03 -0.36597984989E+03  0.12055970159E+04  0.91861886074E+02 0.  0.
         11    1    3    3    0    0  0.52314161886E+03  0.17684684726E+02 -0.16801734481E+03  0.54974514969E+03  0.00000000000E+00 0.  1.
        -11    1    3    3    0    0  0.61347436019E+03  0.12083760336E+03 -0.19796250507E+03  0.65585186621E+03  0.00000000000E+00 0. -1.
         22    1    1    2    0    0 -0.11366159790E+04 -0.13852228809E+03  0.79269272057E+03  0.13926399597E+04  0.00000000000E+00 0. -1.
<mgrwt>
<rscale>  0 0.25629576E+04</rscale>
<asrwt>0</asrwt>
<pdfrwt beam="1">  1        2 0.23268845E+00 0.25629576E+04</pdfrwt>
<pdfrwt beam="2">  1       -2 0.16704032E+00 0.25629576E+04</pdfrwt>
<totfact> 0.24803258E+00</totfact>
</mgrwt>
</event>
<event>
 6    1  0.1885829E-005  0.2040927E+04  0.7818608E-02  0.8587721E-01
          2   -1    0    0  501    0  0.00000000000E+00  0.00000000000E+00  0.19641256959E+04  0.19641256959E+04  0.00000000000E+00 0. -1.
         -2   -1    0    0    0  501 -0.00000000000E+00 -0.00000000000E+00 -0.53018306298E+03  0.53018306298E+03  0.00000000000E+00 0.  1.
         23    2    1    2    0    0 -0.18416019062E+03  0.56355742237E+03  0.17304167454E+04  0.18314295516E+04  0.90995306228E+02 0.  0.
         13    1    3    3    0    0 -0.14846811447E+03  0.32950468797E+03  0.97792362216E+03  0.10425692932E+04  0.00000000000E+00 0.  1.
        -13    1    3    3    0    0 -0.35692076149E+02  0.23405273440E+03  0.75249312323E+03  0.78886025840E+03  0.00000000000E+00 0. -1.
         22    1    1    2    0    0  0.18416019062E+03 -0.56355742237E+03 -0.29647411242E+03  0.66287920729E+03  0.00000000000E+00 0.  1.
<mgrwt>
<rscale>  0 0.20409274E+04</rscale>
<asrwt>0</asrwt>
<pdfrwt beam="1">  1        2 0.30217318E+00 0.20409274E+04</pdfrwt>
<pdfrwt beam="2">  1       -2 0.81566626E-01 0.20409274E+04</pdfrwt>
<totfact> 0.85699767E+00</totfact>
</mgrwt>
</event>
<event>
 6    1  0.1885829E-005  0.2097047E+04  0.7818608E-02  0.8562545E-01
          2   -1    0    0  501    0  0.00000000000E+00  0.00000000000E+00  0.19795466527E+04  0.19795466527E+04  0.00000000000E+00 0. -1.
         -2   -1    0    0    0  501 -0.00000000000E+00 -0.00000000000E+00 -0.55538065520E+03  0.55538065520E+03  0.00000000000E+00 0.  1.
         23    2    1    2    0    0  0.95637938882E+03  0.38930898212E+03  0.50804955519E+03  0.11545315839E+04  0.92767498766E+02 0.  0.
         11    1    3    3    0    0  0.67596072191E+03  0.31252265988E+03  0.33926226587E+03  0.81834723409E+03  0.00000000000E+00 0. -1.
        -11    1    3    3    0    0  0.28041866691E+03  0.76786322239E+02  0.16878728932E+03  0.33618434983E+03  0.00000000000E+00 0.  1.
         22    1    1    2    0    0 -0.95637938882E+03 -0.38930898212E+03  0.91611644232E+03  0.13803957240E+04  0.00000000000E+00 0.  1.
<mgrwt>
<rscale>  0 0.20970474E+04</rscale>
<asrwt>0</asrwt>
<pdfrwt beam="1">  1        2 0.30454564E+00 0.20970474E+04</pdfrwt>
<pdfrwt beam="2">  1       -2 0.85443179E-01 0.20970474E+04</pdfrwt>
<totfact> 0.75270419E+00</totfact>
</mgrwt>
</event>
<event>
 6    1  0.1885829E-005  0.1965684E+04  0.7818608E-02  0.8622835E-01
         -2   -1    0    0    0  501 -0.00000000000E+00  0.00000000000E+00  0.29586932016E+03  0.29586932016E+03  0.00000000000E+00 0.  1.
          2   -1    0    0  501    0  0.00000000000E+00 -0.00000000000E+00 -0.32648827638E+04  0.32648827638E+04  0.00000000000E+00 0. -1.
         23    2    1    2    0    0 -0.88641563818E+03 -0.21463747579E+03 -0.83475351826E+03  0.12397894908E+04  0.91992476392E+02 0.  0.
         11    1    3    3    0    0 -0.33392888401E+03 -0.59436946041E+02 -0.36406735908E+03  0.49758043779E+03  0.00000000000E+00 0.  1.
        -11    1    3    3    0    0 -0.55248675417E+03 -0.15520052975E+03 -0.47068615919E+03  0.74220905304E+03  0.00000000000E+00 0. -1.
         22    1    1    2    0    0  0.88641563818E+03  0.21463747579E+03 -0.21342599254E+04  0.23209625931E+04  0.00000000000E+00 0. -1.
<mgrwt>
<rscale>  0 0.19656843E+04</rscale>
<asrwt>0</asrwt>
<pdfrwt beam="1">  1        2 0.50228966E+00 0.19656843E+04</pdfrwt>
<pdfrwt beam="2">  1       -2 0.45518356E-01 0.19656843E+04</pdfrwt>
<totfact> 0.50331359E+00</totfact>
</mgrwt>
</event>
<event>
 6    1  0.1885829E-005  0.2758689E+04  0.7818608E-02  0.8316210E-01
          2   -1    0    0  501    0  0.00000000000E+00  0.00000000000E+00  0.20517446647E+04  0.20517446647E+04  0.00000000000E+00 0. -1.
         -2   -1    0    0    0  501 -0.00000000000E+00 -0.00000000000E+00 -0.92730420853E+03  0.92730420853E+03  0.00000000000E+00 0.  1.
         23    2    1    2    0    0  0.98116219393E+03 -0.79945105197E+03  0.11506477137E+04  0.17131547008E+04  0.95433918425E+02 0.  0.
         13    1    3    3    0    0  0.34160071632E+03 -0.33324868512E+03  0.45726629828E+03  0.66093736697E+03  0.00000000000E+00 0. -1.
        -13    1    3    3    0    0  0.63956147761E+03 -0.46620236685E+03  0.69338141538E+03  0.10522173339E+04  0.00000000000E+00 0.  1.
         22    1    1    2    0    0 -0.98116219393E+03  0.79945105197E+03 -0.26207257506E+02  0.12658941724E+04  0.00000000000E+00 0.  1.
<mgrwt>
<rscale>  0 0.27586892E+04</rscale>
<asrwt>0</asrwt>
<pdfrwt beam="1">  1        2 0.31565302E+00 0.27586892E+04</pdfrwt>
<pdfrwt beam="2">  1       -2 0.14266219E+00 0.27586892E+04</pdfrwt>
<totfact> 0.18666142E+00</totfact>
</mgrwt>
</event>
<event>
 6    1  0.1885829E-005  0.3585739E+04  0.7818608E-02  0.8093766E-01
         -2   -1    0    0    0  501 -0.00000000000E+00  0.00000000000E+00  0.18520921487E+04  0.18520921487E+04  0.00000000000E+00 0.  1.
          2   -1    0    0  501    0  0.00000000000E+00 -0.00000000000E+00 -0.17355407919E+04  0.17355407919E+04  0.00000000000E+00 0. -1.
         23    2    1    2    0    0  0.58468940648E+03 -0.13158189861E+04 -0.10085305020E+04  0.17603260437E+04  0.91502461780E+02 0.  0.
         11    1    3    3    0    0  0.21295511201E+03 -0.53771182915E+03 -0.45158228436E+03  0.73376457429E+03  0.00000000000E+00 0. -1.
        -11    1    3    3    0    0  0.37173429447E+03 -0.77810715698E+03 -0.55694821760E+03  0.10265614694E+04  0.00000000000E+00 0.  1.
         22    1    1    2    0    0 -0.58468940648E+03  0.13158189861E+04  0.11250818588E+04  0.18273068969E+04  0.00000000000E+00 0.  1.
<mgrwt>
<rscale>  0 0.35857392E+04</rscale>
<asrwt>0</asrwt>
<pdfrwt beam="1">  1        2 0.26700628E+00 0.35857392E+04</pdfrwt>
<pdfrwt beam="2">  1       -2 0.28493725E+00 0.35857392E+04</pdfrwt>
<totfact> 0.30041362E-01</totfact>
</mgrwt>
</event>
<event>
 6    1  0.1885829E-005  0.4751823E+04  0.7818608E-02  0.7867974E-01
         -1   -1    0    0    0  501 -0.00000000000E+00  0.00000000000E+00  0.13352151510E+04  0.13352151510E+04  0.00000000000E+00 0.  1.
          1   -1    0    0  501    0  0.00000000000E+00 -0.00000000000E+00 -0.42277501129E+04  0.42277501129E+04  0.00000000000E+00 0. -1.
         23    2    1    2    0    0  0.44193657293E+03 -0.21133060765E+04 -0.26049414097E+04  0.33848742284E+04  0.10140654160E+03 0.  0.
         13    1    3    3    0    0  0.37218316461E+03 -0.17261635062E+04 -0.21875633190E+04  0.28113331416E+04  0.00000000000E+00 0. -1.
        -13    1    3    3    0    0  0.69753408314E+02 -0.38714257032E+03 -0.41737809073E+03  0.57354108688E+03  0.00000000000E+00 0.  1.
         22    1    1    2    0    0 -0.44193657293E+03  0.21133060765E+04 -0.28759355212E+03  0.21780910355E+04  0.00000000000E+00 0.  1.
<mgrwt>
<rscale>  0 0.47518232E+04</rscale>
<asrwt>0</asrwt>
<pdfrwt beam="1">  1        1 0.65042309E+00 0.47518232E+04</pdfrwt>
<pdfrwt beam="2">  1       -1 0.20541772E+00 0.47518232E+04</pdfrwt>
<totfact> 0.60298131E-03</totfact>
</mgrwt>
</event>
<event>
 6    1  0.1885829E-005  0.1023255E+04  0.7818608E-02  0.9283401E-01
         -2   -1    0    0    0  501 -0.00000000000E+00  0.00000000000E+00  0.70557225772E+03  0.70557225772E+03  0.00000000000E+00 0. -1.
          2   -1    0    0  501    0  0.00000000000E+00 -0.00000000000E+00 -0.37099345241E+03  0.37099345241E+03  0.00000000000E+00 0.  1.
         23    2    1    2    0    0 -0.38895373856E+03  0.29642257313E+03  0.30822085217E+03  0.58682486612E+03  0.10105432784E+03 0.  0.
         13    1    3    3    0    0 -0.17318854858E+03  0.16858610510E+03  0.10282002895E+03  0.26265472876E+03  0.00000000000E+00 0.  1.
        -13    1    3    3    0    0 -0.21576518998E+03  0.12783646804E+03  0.20540082322E+03  0.32417013735E+03  0.00000000000E+00 0. -1.
         22    1    1    2    0    0  0.38895373856E+03 -0.29642257313E+03  0.26357953142E+02  0.48974084402E+03  0.00000000000E+00 0.  1.
<mgrwt>
<rscale>  0 0.10232550E+04</rscale>
<asrwt>0</asrwt>
<pdfrwt beam="1">  1        2 0.57075916E-01 0.10232550E+04</pdfrwt>
<pdfrwt beam="2">  1       -2 0.10854958E+00 0.10232550E+04</pdfrwt>
<totfact> 0.58560341E+01</totfact>
</mgrwt>
</event>
<event>
 6    1  0.1885829E-005  0.1725085E+04  0.7818608E-02  0.8747186E-01
          2   -1    0    0  501    0  0.00000000000E+00  0.00000000000E+00  0.10040106177E+04  0.10040106177E+04  0.00000000000E+00 0. -1.
         -2   -1    0    0    0  501 -0.00000000000E+00 -0.00000000000E+00 -0.74100726036E+03  0.74100726036E+03  0.00000000000E+00 0.  1.
         23    2    1    2    0    0 -0.59416845309E+03 -0.46439569771E+03  0.55050010422E+03  0.93795289045E+03  0.89474830367E+02 0.  0.
         13    1    3    3    0    0 -0.52039752732E+03 -0.43807546290E+03  0.47966492988E+03  0.83234736895E+03  0.00000000000E+00 0. -1.
        -13    1    3    3    0    0 -0.73770925766E+02 -0.26320234810E+02  0.70835174340E+02  0.10560552151E+03  0.00000000000E+00 0.  1.
         22    1    1    2    0    0  0.59416845309E+03  0.46439569771E+03 -0.28749674690E+03  0.80706498758E+03  0.00000000000E+00 0.  1.
<mgrwt>
<rscale>  0 0.17250845E+04</rscale>
<asrwt>0</asrwt>
<pdfrwt beam="1">  1        2 0.15446317E+00 0.17250845E+04</pdfrwt>
<pdfrwt beam="2">  1       -2 0.11400112E+00 0.17250845E+04</pdfrwt>
<totfact> 0.14324920E+01</totfact>
</mgrwt>
</event>
<event>
 6    1  0.1885829E-005  0.2449058E+04  0.7818608E-02  0.8421362E-01
         -1   -1    0    0    0  501 -0.00000000000E+00  0.00000000000E+00  0.63580593667E+03  0.63580593667E+03  0.00000000000E+00 0.  1.
          1   -1    0    0  501    0  0.00000000000E+00 -0.00000000000E+00 -0.23583791501E+04  0.23583791501E+04  0.00000000000E+00 0. -1.
         23    2    1    2    0    0 -0.10729324494E+03 -0.79075362875E+03  0.27005716406E+03  0.84770448749E+03  0.94174754888E+02 0.  0.
         11    1    3    3    0    0 -0.97508218394E+02 -0.43143289089E+03  0.12096517569E+03  0.45855726548E+03  0.00000000000E+00 0. -1.
        -11    1    3    3    0    0 -0.97850265471E+01 -0.35932073785E+03  0.14909198836E+03  0.38914722200E+03  0.00000000000E+00 0.  1.
         22    1    1    2    0    0  0.10729324494E+03  0.79075362875E+03 -0.19926303775E+04  0.21464805993E+04  0.00000000000E+00 0. -1.
<mgrwt>
<rscale>  0 0.24490582E+04</rscale>
<asrwt>0</asrwt>
<pdfrwt beam="1">  1        1 0.36282756E+00 0.24490582E+04</pdfrwt>
<pdfrwt beam="2">  1       -1 0.97816298E-01 0.24490582E+04</pdfrwt>
<totfact> 0.15174613E+00</totfact>
</mgrwt>
</event>
<event>
 6    1  0.1885829E-005  0.7096135E+03  0.7818608E-02  0.9700932E-01
         -2   -1    0    0    0  501 -0.00000000000E+00  0.00000000000E+00  0.38761334895E+02  0.38761334895E+02  0.00000000000E+00 0.  1.
          2   -1    0    0  501    0  0.00000000000E+00 -0.00000000000E+00 -0.32477681353E+04  0.32477681353E+04  0.00000000000E+00 0. -1.
         23    2    1    2    0    0  0.14922322212E+03  0.25468764410E+03 -0.24940928224E+04  0.25130727086E+04  0.88893565469E+02 0.  0.
         13    1    3    3    0    0  0.50492322313E+02  0.14165333343E+03 -0.96713590194E+03  0.97875788339E+03  0.00000000000E+00 0.  1.
        -13    1    3    3    0    0  0.98730899811E+02  0.11303431067E+03 -0.15269569205E+04  0.15343148252E+04  0.00000000000E+00 0. -1.
         22    1    1    2    0    0 -0.14922322212E+03 -0.25468764410E+03 -0.71491397799E+03  0.77345676157E+03  0.00000000000E+00 0.  1.
<mgrwt>
<rscale>  0 0.70961350E+03</rscale>
<asrwt>0</asrwt>
<pdfrwt beam="1">  1        2 0.49965681E+00 0.70961350E+03</pdfrwt>
<pdfrwt beam="2">  1       -2 0.59632802E-02 0.70961350E+03</pdfrwt>
<totfact> 0.20245785E+02</totfact>
</mgrwt>
</event>
<event>
 6    1  0.1885829E-005  0.2799656E+04  0.7818608E-02  0.8303375E-01
          2   -1    0    0  501    0  0.00000000000E+00  0.00000000000E+00  0.17638660059E+04  0.17638660059E+04  0.00000000000E+00 0.  1.
         -2   -1    0    0    0  501 -0.00000000000E+00 -0.00000000000E+00 -0.11109228034E+04  0.11109228034E+04  0.00000000000E+00 0. -1.
         23    2    1    2    0    0 -0.36206678530E+03  0.13452285228E+04  0.45050911358E+03  0.14670559881E+04  0.92534724723E+02 0.  0.
         11    1    3    3    0    0 -0.66529346537E+02  0.40791391058E+03  0.12690644840E+03  0.43234842319E+03  0.00000000000E+00 0.  1.
        -11    1    3    3    0    0 -0.29553743876E+03  0.93731461222E+03  0.32360266518E+03  0.10347075649E+04  0.00000000000E+00 0. -1.
         22    1    1    2    0    0  0.36206678530E+03 -0.13452285228E+04  0.20243408891E+03  0.14077328212E+04  0.00000000000E+00 0. -1.
<mgrwt>
<rscale>  0 0.27996564E+04</rscale>
<asrwt>0</asrwt>
<pdfrwt beam="1">  1        2 0.27136400E+00 0.27996564E+04</pdfrwt>
<pdfrwt beam="2">  1       -2 0.17091120E+00 0.27996564E+04</pdfrwt>
<totfact> 0.16514498E+00</totfact>
</mgrwt>
</event>
<event>
 6    1  0.1885829E-005  0.5312887E+03  0.7818608E-02  0.1005920E+00
         -2   -1    0    0    0  501 -0.00000000000E+00  0.00000000000E+00  0.23651550961E+02  0.23651550961E+02  0.00000000000E+00 0.  1.
          2   -1    0    0  501    0  0.00000000000E+00 -0.00000000000E+00 -0.29836060011E+04  0.29836060011E+04  0.00000000000E+00 0. -1.
         23    2    1    2    0    0  0.34903629491E+01 -0.24156600700E+03 -0.20337722047E+04  0.20500846993E+04  0.90838181103E+02 0.  0.
         11    1    3    3    0    0  0.16660000975E+02 -0.12644116158E+03 -0.14007879333E+04  0.14065815857E+04  0.00000000000E+00 0. -1.
        -11    1    3    3    0    0 -0.13169638026E+02 -0.11512484542E+03 -0.63298427141E+03  0.64350311363E+03  0.00000000000E+00 0.  1.
         22    1    1    2    0    0 -0.34903629491E+01  0.24156600700E+03 -0.92618224537E+03  0.95717285273E+03  0.00000000000E+00 0.  1.
<mgrwt>
<rscale>  0 0.53128866E+03</rscale>
<asrwt>0</asrwt>
<pdfrwt beam="1">  1        2 0.45901625E+00 0.53128866E+03</pdfrwt>
<pdfrwt beam="2">  1       -2 0.36387006E-02 0.53128866E+03</pdfrwt>
<totfact> 0.64869256E+02</totfact>
</mgrwt>
</event>
<event>
 6    1  0.1885829E-005  0.3700273E+04  0.7818608E-02  0.8067901E-01
          2   -1    0    0  501    0  0.00000000000E+00  0.00000000000E+00  0.39731326561E+04  0.39731326561E+04  0.00000000000E+00 0. -1.
         -2   -1    0    0    0  501 -0.00000000000E+00 -0.00000000000E+00 -0.86153829554E+03  0.86153829554E+03  0.00000000000E+00 0.  1.
         23    2    1    2    0    0  0.35936319373E+03  0.13607328730E+04 -0.10098139177E+02  0.14103900170E+04  0.91444906104E+02 0.  0.
         11    1    3    3    0    0  0.16375757322E+03  0.54518741577E+03 -0.44690139610E+02  0.57100181233E+03  0.00000000000E+00 0. -1.
        -11    1    3    3    0    0  0.19560562051E+03  0.81554545723E+03  0.34592000433E+02  0.83938820463E+03  0.00000000000E+00 0.  1.
         22    1    1    2    0    0 -0.35936319373E+03 -0.13607328730E+04  0.31216924997E+04  0.34242809346E+04  0.00000000000E+00 0. -1.
<mgrwt>
<rscale>  0 0.37002735E+04</rscale>
<asrwt>0</asrwt>
<pdfrwt beam="1">  1        2 0.61125117E+00 0.37002735E+04</pdfrwt>
<pdfrwt beam="2">  1       -2 0.13254436E+00 0.37002735E+04</pdfrwt>
<totfact> 0.11982527E-01</totfact>
</mgrwt>
</event>
<event>
 6    1  0.1885829E-005  0.4192842E+04  0.7818608E-02  0.7966735E-01
          2   -1    0    0  501    0  0.00000000000E+00  0.00000000000E+00  0.20572847639E+04  0.20572847639E+04  0.00000000000E+00 0. -1.
         -2   -1    0    0    0  501 -0.00000000000E+00 -0.00000000000E+00 -0.21363014375E+04  0.21363014375E+04  0.00000000000E+00 0.  1.
         23    2    1    2    0    0  0.45053939493E+03 -0.20537214915E+03  0.19969069614E+04  0.20594300674E+04  0.91931083344E+02 0.  0.
         13    1    3    3    0    0  0.23294854872E+03 -0.11335171070E+03  0.85706481870E+03  0.89536235130E+03  0.00000000000E+00 0.  1.
        -13    1    3    3    0    0  0.21759084621E+03 -0.92020438444E+02  0.11398421427E+04  0.11640677161E+04  0.00000000000E+00 0. -1.
         22    1    1    2    0    0 -0.45053939493E+03  0.20537214915E+03 -0.20759236349E+04  0.21341561340E+04  0.00000000000E+00 0.  1.
<mgrwt>
<rscale>  0 0.41928417E+04</rscale>
<asrwt>0</asrwt>
<pdfrwt beam="1">  1        2 0.31650535E+00 0.41928417E+04</pdfrwt>
<pdfrwt beam="2">  1       -2 0.32866176E+00 0.41928417E+04</pdfrwt>
<totfact> 0.10202024E-01</totfact>
</mgrwt>
</event>
<event>
 6    1  0.1885829E-005  0.1556958E+04  0.7818608E-02  0.8847435E-01
          2   -1    0    0  501    0  0.00000000000E+00  0.00000000000E+00  0.38310043019E+04  0.38310043019E+04  0.00000000000E+00 0.  1.
         -2   -1    0    0    0  501 -0.00000000000E+00 -0.00000000000E+00 -0.15819087393E+03  0.15819087393E+03  0.00000000000E+00 0. -1.
         23    2    1    2    0    0  0.27935314258E+03 -0.52239772393E+03  0.31264069084E+04  0.31832810087E+04  0.88995858552E+02 0.  0.
         11    1    3    3    0    0  0.14208810736E+03 -0.18604436961E+03  0.13428662260E+04  0.13631182042E+04  0.00000000000E+00 0. -1.
        -11    1    3    3    0    0  0.13726503522E+03 -0.33635335432E+03  0.17835406825E+04  0.18201628045E+04  0.00000000000E+00 0.  1.
         22    1    1    2    0    0 -0.27935314258E+03  0.52239772393E+03  0.54640651956E+03  0.80591416718E+03  0.00000000000E+00 0. -1.
<mgrwt>
<rscale>  0 0.15569585E+04</rscale>
<asrwt>0</asrwt>
<pdfrwt beam="1">  1        2 0.58938520E+00 0.15569585E+04</pdfrwt>
<pdfrwt beam="2">  1       -2 0.24337061E-01 0.15569585E+04</pdfrwt>
<totfact> 0.68635367E+00</totfact>
</mgrwt>
</event>
<event>
 6    1  0.1885829E-005  0.5552999E+03  0.7818608E-02  0.1000275E+00
          2   -1    0    0  501    0  0.00000000000E+00  0.00000000000E+00  0.63461391887E+03  0.63461391887E+03  0.00000000000E+00 0. -1.
         -2   -1    0    0    0  501 -0.00000000000E+00 -0.00000000000E+00 -0.12147464639E+03  0.12147464639E+03  0.00000000000E+00 0.  1.
         23    2    1    2    0    0 -0.26886049661E+03  0.14679721511E+02  0.22588962268E+03  0.36237061778E+03  0.88231979074E+02 0.  0.
         11    1    3    3    0    0 -0.13600537629E+03  0.26725429051E+02  0.64195887679E+02  0.15275085248E+03  0.00000000000E+00 0.  1.
        -11    1    3    3    0    0 -0.13285512033E+03 -0.12045707540E+02  0.16169373500E+03  0.20961976530E+03  0.00000000000E+00 0. -1.
         22    1    1    2    0    0  0.26886049661E+03 -0.14679721511E+02  0.28724964979E+03  0.39371794748E+03  0.00000000000E+00 0.  1.
<mgrwt>
<rscale>  0 0.55529992E+03</rscale>
<asrwt>0</asrwt>
<pdfrwt beam="1">  1        2 0.97632909E-01 0.55529992E+03</pdfrwt>
<pdfrwt beam="2">  1       -2 0.18688407E-01 0.55529992E+03</pdfrwt>
<totfact> 0.11160871E+03</totfact>
</mgrwt>
</event>
<event>
 6    1  0.1885829E-005  0.2109893E+04  0.7818608E-02  0.8556898E-01
         -2   -1    0    0    0  501 -0.00000000000E+00  0.00000000000E+00  0.70958348158E+03  0.70958348158E+03  0.00000000000E+00 0.  1.
          2   -1    0    0  501    0  0.00000000000E+00 -0.00000000000E+00 -0.15684023306E+04  0.15684023306E+04  0.00000000000E+00 0. -1.
         23    2    1    2    0    0 -0.10396123676E+04 -0.17806050698E+01 -0.61078450001E+03  0.12091929961E+04  0.91065640056E+02 0.  0.
         11    1    3    3    0    0 -0.74181688317E+03  0.39517070413E+02 -0.42798308034E+03  0.85733505939E+03  0.00000000000E+00 0. -1.
        -11    1    3    3    0    0 -0.29779548446E+03 -0.41297675483E+02 -0.18280141968E+03  0.35185793667E+03  0.00000000000E+00 0.  1.
         22    1    1    2    0    0  0.10396123676E+04  0.17806050698E+01 -0.24803434899E+03  0.10687928161E+04  0.00000000000E+00 0.  1.
<mgrwt>
<rscale>  0 0.21098933E+04</rscale>
<asrwt>0</asrwt>
<pdfrwt beam="1">  1        2 0.24129266E+00 0.21098933E+04</pdfrwt>
<pdfrwt beam="2">  1       -2 0.10916669E+00 0.21098933E+04</pdfrwt>
<totfact> 0.71591772E+00</totfact>
</mgrwt>
</event>
<event>
 6    1  0.1885829E-005  0.2538523E+04  0.7818608E-02  0.8389389E-01
         -1   -1    0    0    0  501 -0.00000000000E+00  0.00000000000E+00  0.75568736921E+03  0.75568736921E+03  0.00000000000E+00 0.  1.
          1   -1    0    0  501    0  0.00000000000E+00 -0.00000000000E+00 -0.21318661228E+04  0.21318661228E+04  0.00000000000E+00 0. -1.
         23    2    1    2    0    0 -0.87143348062E+03 -0.41255269989E+03 -0.16248267801E+04  0.18918517885E+04  0.97185816773E+02 0.  0.
         11    1    3    3    0    0 -0.74695862470E+03 -0.32112964804E+03 -0.14027678559E+04  0.16213664285E+04  0.00000000000E+00 0. -1.
        -11    1    3    3    0    0 -0.12447485592E+03 -0.91423051851E+02 -0.22205892420E+03  0.27048536002E+03  0.00000000000E+00 0.  1.
         22    1    1    2    0    0  0.87143348062E+03  0.41255269989E+03  0.24864802650E+03  0.99570170353E+03  0.00000000000E+00 0.  1.
<mgrwt>
<rscale>  0 0.25385226E+04</rscale>
<asrwt>0</asrwt>
<pdfrwt beam="1">  1        1 0.32797940E+00 0.25385226E+04</pdfrwt>
<pdfrwt beam="2">  1       -1 0.11625960E+00 0.25385226E+04</pdfrwt>
<totfact> 0.14349784E+00</totfact>
</mgrwt>
</event>
<event>
 6    1  0.1885829E-005  0.1530756E+04  0.7818608E-02  0.8864254E-01
         -2   -1    0    0    0  501 -0.00000000000E+00  0.00000000000E+00  0.35270186653E+03  0.35270186653E+03  0.00000000000E+00 0. -1.
          2   -1    0    0  501    0  0.00000000000E+00 -0.00000000000E+00 -0.16609031476E+04  0.16609031476E+04  0.00000000000E+00 0.  1.
         23    2    1    2    0    0 -0.53987896161E+03  0.40636593710E+03 -0.19107085504E+03  0.70800823228E+03  0.90360485338E+02 0.  0.
         13    1    3    3    0    0 -0.37211321206E+03  0.32072752624E+03 -0.11285128484E+03  0.50405337135E+03  0.00000000000E+00 0. -1.
        -13    1    3    3    0    0 -0.16776574955E+03  0.85638410860E+02 -0.78219570200E+02  0.20395486093E+03  0.00000000000E+00 0.  1.
         22    1    1    2    0    0  0.53987896161E+03 -0.40636593710E+03 -0.11171304261E+04  0.13055967819E+04  0.00000000000E+00 0.  1.
<mgrwt>
<rscale>  0 0.15307562E+04</rscale>
<asrwt>0</asrwt>
<pdfrwt beam="1">  1        2 0.25552356E+00 0.15307562E+04</pdfrwt>
<pdfrwt beam="2">  1       -2 0.54261826E-01 0.15307562E+04</pdfrwt>
<totfact> 0.31778476E+01</totfact>
</mgrwt>
</event>
<event>
 6    1  0.1885829E-005  0.5300493E+04  0.7818608E-02  0.7783754E-01
         -2   -1    0    0    0  501 -0.00000000000E+00  0.00000000000E+00  0.30934435127E+04  0.30934435127E+04  0.00000000000E+00 0.  1.
          2   -1    0    0  501    0  0.00000000000E+00 -0.00000000000E+00 -0.22705464058E+04  0.22705464058E+04  0.00000000000E+00 0. -1.
         23    2    1    2    0    0  0.15899098385E+04 -0.36168065068E+03  0.25249089079E+04  0.30069853876E+04  0.90387721218E+02 0.  0.
         13    1    3    3    0    0  0.56309693634E+03 -0.84727890806E+02  0.86548239005E+03  0.10360100109E+04  0.00000000000E+00 0.  1.
        -13    1    3    3    0    0  0.10268129021E+04 -0.27695275987E+03  0.16594265179E+04  0.19709753767E+04  0.00000000000E+00 0. -1.
         22    1    1    2    0    0 -0.15899098385E+04  0.36168065068E+03 -0.17020118011E+04  0.23570045309E+04  0.00000000000E+00 0. -1.
<mgrwt>
<rscale>  0 0.53004932E+04</rscale>
<asrwt>0</asrwt>
<pdfrwt beam="1">  1        2 0.34931483E+00 0.53004932E+04</pdfrwt>
<pdfrwt beam="2">  1       -2 0.47591439E+00 0.53004932E+04</pdfrwt>
<totfact> 0.79054462E-03</totfact>
</mgrwt>
</event>
<event>
 6    1  0.1885829E-005  0.2418170E+04  0.7818608E-02  0.8432732E-01
         -1   -1    0    0    0  501 -0.00000000000E+00  0.00000000000E+00  0.11419630241E+04  0.11419630241E+04  0.00000000000E+00 0.  1.
          1   -1    0    0  501    0  0.00000000000E+00 -0.00000000000E+00 -0.12801524951E+04  0.12801524951E+04  0.00000000000E+00 0. -1.
         23    2    1    2    0    0 -0.32512722924E+03  0.17425878162E+03  0.10823092375E+04  0.11470896624E+04  0.91365035931E+02 0.  0.
         11    1    3    3    0    0 -0.27056943605E+03  0.17977030550E+03  0.90807007621E+03  0.96442544853E+03  0.00000000000E+00 0.  1.
        -11    1    3    3    0    0 -0.54557793189E+02 -0.55115238863E+01  0.17423916126E+03  0.18266421382E+03  0.00000000000E+00 0. -1.
         22    1    1    2    0    0  0.32512722924E+03 -0.17425878162E+03 -0.12204987085E+04  0.12750258568E+04  0.00000000000E+00 0. -1.
<mgrwt>
<rscale>  0 0.24181702E+04</rscale>
<asrwt>0</asrwt>
<pdfrwt beam="1">  1        1 0.19694654E+00 0.24181702E+04</pdfrwt>
<pdfrwt beam="2">  1       -1 0.17568662E+00 0.24181702E+04</pdfrwt>
<totfact> 0.18700741E+00</totfact>
</mgrwt>
</event>
<event>
 6    1  0.1885829E-005  0.1891846E+04  0.7818608E-02  0.8658926E-01
          2   -1    0    0  501    0  0.00000000000E+00  0.00000000000E+00  0.22851500990E+04  0.22851500990E+04  0.00000000000E+00 0. -1.
         -2   -1    0    0    0  501 -0.00000000000E+00 -0.00000000000E+00 -0.39155868520E+03  0.39155868520E+03  0.00000000000E+00 0.  1.
         23    2    1    2    0    0 -0.21506580812E+02  0.82167321362E+03  0.16053240720E+04  0.18056706316E+04  0.88156965272E+02 0.  0.
         13    1    3    3    0    0 -0.52194923695E+02  0.45578190129E+03  0.85376059950E+03  0.96921030373E+03  0.00000000000E+00 0. -1.
        -13    1    3    3    0    0  0.30688342884E+02  0.36589131233E+03  0.75156347250E+03  0.83646032782E+03  0.00000000000E+00 0.  1.
         22    1    1    2    0    0  0.21506580812E+02 -0.82167321362E+03  0.28826734180E+03  0.87103815264E+03  0.00000000000E+00 0. -1.
<mgrwt>
<rscale>  0 0.18918460E+04</rscale>
<asrwt>0</asrwt>
<pdfrwt beam="1">  1        2 0.35156155E+00 0.18918460E+04</pdfrwt>
<pdfrwt beam="2">  1       -2 0.60239799E-01 0.18918460E+04</pdfrwt>
<totfact> 0.11128583E+01</totfact>
</mgrwt>
</event>
<event>
 6    1  0.1885829E-005  0.2952118E+04  0.7818608E-02  0.8257538E-01
         -2   -1    0    0    0  501 -0.00000000000E+00  0.00000000000E+00  0.14747366078E+04  0.14747366078E+04  0.00000000000E+00 0.  1.
          2   -1    0    0  501    0  0.00000000000E+00 -0.00000000000E+00 -0.14773827748E+04  0.14773827748E+04  0.00000000000E+00 0. -1.
         23    2    1    2    0    0 -0.80500677481E+03  0.29776790237E+03 -0.12004134526E+04  0.14785698918E+04  0.92058875121E+02 0.  0.
         13    1    3    3    0    0 -0.54461916224E+03  0.24229784113E+03 -0.86084041778E+03  0.10470742574E+04  0.00000000000E+00 0. -1.
        -13    1    3    3    0    0 -0.26038761257E+03  0.55470061235E+02 -0.33957303484E+03  0.43149563435E+03  0.00000000000E+00 0.  1.
         22    1    1    2    0    0  0.80500677481E+03 -0.29776790237E+03  0.11977672856E+04  0.14735494908E+04  0.00000000000E+00 0.  1.
<mgrwt>
<rscale>  0 0.29521182E+04</rscale>
<asrwt>0</asrwt>
<pdfrwt beam="1">  1        2 0.22728966E+00 0.29521182E+04</pdfrwt>
<pdfrwt beam="2">  1       -2 0.22688256E+00 0.29521182E+04</pdfrwt>
<totfact> 0.10048722E+00</totfact>
</mgrwt>
</event>
<event>
 6    1  0.1885829E-005  0.3257680E+04  0.7818608E-02  0.8173748E-01
          2   -1    0    0  501    0  0.00000000000E+00  0.00000000000E+00  0.16228056801E+04  0.16228056801E+04  0.00000000000E+00 0. -1.
         -2   -1    0    0    0  501 -0.00000000000E+00 -0.00000000000E+00 -0.16348964343E+04  0.16348964343E+04  0.00000000000E+00 0.  1.
         23    2    1    2    0    0  0.37482331067E+02  0.15799929602E+04  0.38285986060E+03  0.16286629290E+04  0.90435524689E+02 0.  0.
         13    1    3    3    0    0  0.43802813504E+02  0.39170000784E+03  0.11435527082E+03  0.41039579747E+03  0.00000000000E+00 0.  1.
        -13    1    3    3    0    0 -0.63204824364E+01  0.11882929523E+04  0.26850458977E+03  0.12182671316E+04  0.00000000000E+00 0. -1.
         22    1    1    2    0    0 -0.37482331067E+02 -0.15799929602E+04 -0.39495061473E+03  0.16290391854E+04  0.00000000000E+00 0.  1.
<mgrwt>
<rscale>  0 0.32576797E+04</rscale>
<asrwt>0</asrwt>
<pdfrwt beam="1">  1        2 0.24966241E+00 0.32576797E+04</pdfrwt>
<pdfrwt beam="2">  1       -2 0.25152253E+00 0.32576797E+04</pdfrwt>
<totfact> 0.57079273E-01</totfact>
</mgrwt>
</event>
<event>
 6    1  0.1885829E-005  0.3589623E+04  0.7818608E-02  0.8092873E-01
         -2   -1    0    0    0  501 -0.00000000000E+00  0.00000000000E+00  0.19271373172E+04  0.19271373172E+04  0.00000000000E+00 0.  1.
          2   -1    0    0  501    0  0.00000000000E+00 -0.00000000000E+00 -0.16715719018E+04  0.16715719018E+04  0.00000000000E+00 0. -1.
         23    2    1    2    0    0  0.57042116562E+03 -0.66867533777E+02  0.18314572992E+04  0.19214236731E+04  0.88212920911E+02 0.  0.
         11    1    3    3    0    0  0.40336471905E+03 -0.84945083575E+02  0.13462537492E+04  0.14079481244E+04  0.00000000000E+00 0. -1.
        -11    1    3    3    0    0  0.16705644658E+03  0.18077549798E+02  0.48520355001E+03  0.51347554868E+03  0.00000000000E+00 0.  1.
         22    1    1    2    0    0 -0.57042116562E+03  0.66867533777E+02 -0.15758918838E+04  0.16772855460E+04  0.00000000000E+00 0. -1.
<mgrwt>
<rscale>  0 0.35896232E+04</rscale>
<asrwt>0</asrwt>
<pdfrwt beam="1">  1        2 0.25716491E+00 0.35896232E+04</pdfrwt>
<pdfrwt beam="2">  1       -2 0.29648266E+00 0.35896232E+04</pdfrwt>
<totfact> 0.27708579E-01</totfact>
</mgrwt>
</event>
<event>
 6    1  0.1885829E-005  0.1704121E+04  0.7818608E-02  0.8759017E-01
         -2   -1    0    0    0  501 -0.00000000000E+00  0.00000000000E+00  0.26099028380E+03  0.26099028380E+03  0.00000000000E+00 0.  1.
          2   -1    0    0  501    0  0.00000000000E+00 -0.00000000000E+00 -0.27817401379E+04  0.27817401379E+04  0.00000000000E+00 0. -1.
         23    2    1    2    0    0  0.10074363821E+03 -0.27633807491E+03 -0.26872196347E+04  0.27047597126E+04  0.89798248479E+02 0.  0.
         13    1    3    3    0    0  0.64885734317E+02 -0.62961632027E+02 -0.88083395430E+03  0.88546190244E+03  0.00000000000E+00 0.  1.
        -13    1    3    3    0    0  0.35857903891E+02 -0.21337644289E+03 -0.18063856804E+04  0.18192978102E+04  0.00000000000E+00 0. -1.
         22    1    1    2    0    0 -0.10074363821E+03  0.27633807491E+03  0.16646978069E+03  0.33797070904E+03  0.00000000000E+00 0.  1.
<mgrwt>
<rscale>  0 0.17041211E+04</rscale>
<asrwt>0</asrwt>
<pdfrwt beam="1">  1        2 0.42796001E+00 0.17041211E+04</pdfrwt>
<pdfrwt beam="2">  1       -2 0.40152352E-01 0.17041211E+04</pdfrwt>
<totfact> 0.13287715E+01</totfact>
</mgrwt>
</event>
<event>
 6    1  0.1885829E-005  0.1376657E+04  0.7818608E-02  0.8970891E-01
         -1   -1    0    0    0  501 -0.00000000000E+00  0.00000000000E+00  0.44536564934E+03  0.44536564934E+03  0.00000000000E+00 0.  1.
          1   -1    0    0  501    0  0.00000000000E+00 -0.00000000000E+00 -0.10638368639E+04  0.10638368639E+04  0.00000000000E+00 0. -1.
         23    2    1    2    0    0  0.61435657244E+02  0.67075979173E+03 -0.44877869579E+03  0.81458852759E+03  0.91973438076E+02 0.  0.
         11    1    3    3    0    0  0.84697758369E+02  0.46441097609E+03 -0.30552772449E+03  0.56231526336E+03  0.00000000000E+00 0. -1.
        -11    1    3    3    0    0 -0.23262101125E+02  0.20634881564E+03 -0.14325097131E+03  0.25227326423E+03  0.00000000000E+00 0.  1.
         22    1    1    2    0    0 -0.61435657244E+02 -0.67075979173E+03 -0.16969251882E+03  0.69461398569E+03  0.00000000000E+00 0.  1.
<mgrwt>
<rscale>  0 0.13766574E+04</rscale>
<asrwt>0</asrwt>
<pdfrwt beam="1">  1        1 0.16366721E+00 0.13766574E+04</pdfrwt>
<pdfrwt beam="2">  1       -1 0.68517793E-01 0.13766574E+04</pdfrwt>
<totfact> 0.28444868E+01</totfact>
</mgrwt>
</event>
<event>
 6    1  0.1885829E-005  0.1935249E+04  0.7818608E-02  0.8637507E-01
         -2   -1    0    0    0  501 -0.00000000000E+00  0.00000000000E+00  0.43606593084E+03  0.43606593084E+03  0.00000000000E+00 0. -1.
          2   -1    0    0  501    0  0.00000000000E+00 -0.00000000000E+00 -0.21471469898E+04  0.21471469898E+04  0.00000000000E+00 0.  1.
         23    2    1    2    0    0 -0.68918615388E+03 -0.50751621397E+02 -0.17574401500E+04  0.18906073713E+04  0.90813378805E+02 0.  0.
         13    1    3    3    0    0 -0.86464602571E+02 -0.35389681843E+02 -0.20914221522E+03  0.22906117799E+03  0.00000000000E+00 0. -1.
        -13    1    3    3    0    0 -0.60272155131E+03 -0.15361939553E+02 -0.15482979348E+04  0.16615461933E+04  0.00000000000E+00 0.  1.
         22    1    1    2    0    0  0.68918615388E+03  0.50751621397E+02  0.46359090960E+02  0.69260554942E+03  0.00000000000E+00 0. -1.
<mgrwt>
<rscale>  0 0.19352495E+04</rscale>
<asrwt>0</asrwt>
<pdfrwt beam="1">  1        2 0.33033031E+00 0.19352495E+04</pdfrwt>
<pdfrwt beam="2">  1       -2 0.67087066E-01 0.19352495E+04</pdfrwt>
<totfact> 0.10530144E+01</totfact>
</mgrwt>
</event>
<event>
 6    1  0.1885829E-005  0.6903579E+03  0.7818608E-02  0.9733865E-01
         -1   -1    0    0    0  501 -0.00000000000E+00  0.00000000000E+00  0.45624128833E+02  0.45624128833E+02  0.00000000000E+00 0.  1.
          1   -1    0    0  501    0  0.00000000000E+00 -0.00000000000E+00 -0.26115239615E+04  0.26115239615E+04  0.00000000000E+00 0. -1.
         23    2    1    2    0    0  0.30424262698E+02  0.23999986683E+03 -0.22201277581E+04  0.22351482095E+04  0.91622510641E+02 0.  0.
         13    1    3    3    0    0  0.23706793011E+02  0.17086086431E+03 -0.11609657740E+04  0.11737107716E+04  0.00000000000E+00 0.  1.
        -13    1    3    3    0    0  0.67174696871E+01  0.69139002519E+02 -0.10591619841E+04  0.10614374379E+04  0.00000000000E+00 0. -1.
         22    1    1    2    0    0 -0.30424262698E+02 -0.23999986683E+03 -0.34577207455E+03  0.42199988078E+03  0.00000000000E+00 0.  1.
<mgrwt>
<rscale>  0 0.69035789E+03</rscale>
<asrwt>0</asrwt>
<pdfrwt beam="1">  1        1 0.40177302E+00 0.69035789E+03</pdfrwt>
<pdfrwt beam="2">  1       -1 0.70190949E-02 0.69035789E+03</pdfrwt>
<totfact> 0.13108487E+02</totfact>
</mgrwt>
</event>
<event>
 6    1  0.1885829E-005  0.1237253E+04  0.7818608E-02  0.9080860E-01
          2   -1    0    0  501    0  0.00000000000E+00  0.00000000000E+00  0.19800090077E+04  0.19800090077E+04  0.00000000000E+00 0. -1.
         -2   -1    0    0    0  501 -0.00000000000E+00 -0.00000000000E+00 -0.19328129113E+03  0.19328129113E+03  0.00000000000E+00 0.  1.
         23    2    1    2    0    0 -0.46332664618E+03  0.20037037282E+03  0.28028201362E+03  0.58451765201E+03  0.91011048684E+02 0.  0.
         13    1    3    3    0    0 -0.12850317305E+03  0.65579012260E+02  0.12765051736E+03  0.19263521722E+03  0.00000000000E+00 0. -1.
        -13    1    3    3    0    0 -0.33482347313E+03  0.13479136056E+03  0.15263149627E+03  0.39188243479E+03  0.00000000000E+00 0.  1.
         22    1    1    2    0    0  0.46332664618E+03 -0.20037037282E+03  0.15064457029E+04  0.15887726468E+04  0.00000000000E+00 0. -1.
<mgrwt>
<rscale>  0 0.12372529E+04</rscale>
<asrwt>0</asrwt>
<pdfrwt beam="1">  1        2 0.30461675E+00 0.12372529E+04</pdfrwt>
<pdfrwt beam="2">  1       -2 0.29735585E-01 0.12372529E+04</pdfrwt>
<totfact> 0.70414434E+01</totfact>
</mgrwt>
</event>
<event>
 6    1  0.1885829E-005  0.2674163E+04  0.7818608E-02  0.8343437E-01
          2   -1    0    0  501    0  0.00000000000E+00  0.00000000000E+00  0.74974391108E+03  0.74974391108E+03  0.00000000000E+00 0. -1.
         -2   -1    0    0    0  501 -0.00000000000E+00 -0.00000000000E+00 -0.23845305899E+04  0.23845305899E+04  0.00000000000E+00 0.  1.
         23    2    1    2    0    0  0.93213090711E+03  0.62615207111E+03 -0.16657111269E+04  0.20109353867E+04  0.91285962849E+02 0.  0.
         13    1    3    3    0    0  0.43221299279E+03  0.32446117905E+03 -0.73699714667E+03  0.91391899096E+03  0.00000000000E+00 0. -1.
        -13    1    3    3    0    0  0.49991791432E+03  0.30169089206E+03 -0.92871398027E+03  0.10970163958E+04  0.00000000000E+00 0.  1.
         22    1    1    2    0    0 -0.93213090711E+03 -0.62615207111E+03  0.30924448109E+02  0.11233391143E+04  0.00000000000E+00 0. -1.
<mgrwt>
<rscale>  0 0.26741633E+04</rscale>
<asrwt>0</asrwt>
<pdfrwt beam="1">  1        2 0.11534522E+00 0.26741633E+04</pdfrwt>
<pdfrwt beam="2">  1       -2 0.36685086E+00 0.26741633E+04</pdfrwt>
<totfact> 0.40114550E-01</totfact>
</mgrwt>
</event>
<event>
 6    1  0.1885829E-005  0.3118392E+04  0.7818608E-02  0.8210709E-01
          1   -1    0    0  501    0  0.00000000000E+00  0.00000000000E+00  0.17571229531E+04  0.17571229531E+04  0.00000000000E+00 0. -1.
         -1   -1    0    0    0  501 -0.00000000000E+00 -0.00000000000E+00 -0.13835637052E+04  0.13835637052E+04  0.00000000000E+00 0.  1.
         23    2    1    2    0    0  0.12044759112E+04  0.22379723593E+03 -0.78303859118E+03  0.14558822232E+04  0.74807680131E+02 0.  0.
         13    1    3    3    0    0  0.52940970156E+03  0.10711717682E+03 -0.38822586771E+03  0.66518271628E+03  0.00000000000E+00 0.  1.
        -13    1    3    3    0    0  0.67506620963E+03  0.11668005911E+03 -0.39481272346E+03  0.79069950689E+03  0.00000000000E+00 0. -1.
         22    1    1    2    0    0 -0.12044759112E+04 -0.22379723593E+03  0.11565978391E+04  0.16848044352E+04  0.00000000000E+00 0. -1.
<mgrwt>
<rscale>  0 0.31183916E+04</rscale>
<asrwt>0</asrwt>
<pdfrwt beam="1">  1        1 0.27032661E+00 0.31183916E+04</pdfrwt>
<pdfrwt beam="2">  1       -1 0.21285595E+00 0.31183916E+04</pdfrwt>
<totfact> 0.45136455E-01</totfact>
</mgrwt>
</event>
<event>
 6    1  0.1885829E-005  0.8103734E+03  0.7818608E-02  0.9545122E-01
         -1   -1    0    0    0  501 -0.00000000000E+00  0.00000000000E+00  0.30395315606E+03  0.30395315606E+03  0.00000000000E+00 0.  1.
          1   -1    0    0  501    0  0.00000000000E+00 -0.00000000000E+00 -0.54013675047E+03  0.54013675047E+03  0.00000000000E+00 0. -1.
         23    2    1    2    0    0  0.37184677657E+03  0.12127999664E+03 -0.20384150289E+03  0.45162987835E+03  0.97156193281E+02 0.  0.
         13    1    3    3    0    0  0.86444287516E+02  0.65219343917E+02 -0.84016037974E+02  0.13705791587E+03  0.00000000000E+00 0.  1.
        -13    1    3    3    0    0  0.28540248905E+03  0.56060652727E+02 -0.11982546492E+03  0.31457196249E+03  0.00000000000E+00 0. -1.
         22    1    1    2    0    0 -0.37184677657E+03 -0.12127999664E+03 -0.32342091521E+02  0.39246002817E+03  0.00000000000E+00 0.  1.
<mgrwt>
<rscale>  0 0.81037342E+03</rscale>
<asrwt>0</asrwt>
<pdfrwt beam="1">  1        1 0.83097961E-01 0.81037342E+03</pdfrwt>
<pdfrwt beam="2">  1       -1 0.46762024E-01 0.81037342E+03</pdfrwt>
<totfact> 0.18331834E+02</totfact>
</mgrwt>
</event>
<event>
 6    1  0.1885829E-005  0.2511370E+04  0.7818608E-02  0.8398946E-01
          2   -1    0    0  501    0  0.00000000000E+00  0.00000000000E+00  0.17563411036E+04  0.17563411036E+04  0.00000000000E+00 0. -1.
         -2   -1    0    0    0  501 -0.00000000000E+00 -0.00000000000E+00 -0.89774423511E+03  0.89774423511E+03  0.00000000000E+00 0.  1.
         23    2    1    2    0    0  0.53919297889E+03  0.11134179158E+04  0.21362195565E+03  0.12589433525E+04  0.94209878032E+02 0.  0.
         11    1    3    3    0    0  0.52066959570E+03  0.10903140874E+04  0.22129276611E+03  0.12283534204E+04  0.00000000000E+00 0. -1.
        -11    1    3    3    0    0  0.18523383194E+02  0.23103828352E+02 -0.76708104589E+01  0.30589932046E+02  0.00000000000E+00 0.  1.
         22    1    1    2    0    0 -0.53919297889E+03 -0.11134179158E+04  0.64497491287E+03  0.13951419863E+04  0.00000000000E+00 0.  1.
<mgrwt>
<rscale>  0 0.25113702E+04</rscale>
<asrwt>0</asrwt>
<pdfrwt beam="1">  1        2 0.27020632E+00 0.25113702E+04</pdfrwt>
<pdfrwt beam="2">  1       -2 0.13811450E+00 0.25113702E+04</pdfrwt>
<totfact> 0.30250551E+00</totfact>
</mgrwt>
</event>
<event>
 6    1  0.1885829E-005  0.1123834E+04  0.7818608E-02  0.9182268E-01
         -1   -1    0    0    0  501 -0.00000000000E+00  0.00000000000E+00  0.42688678690E+03  0.42688678690E+03  0.00000000000E+00 0.  1.
          1   -1    0    0  501    0  0.00000000000E+00 -0.00000000000E+00 -0.73965930464E+03  0.73965930464E+03  0.00000000000E+00 0. -1.
         23    2    1    2    0    0 -0.53847020319E+03  0.13690864881E+03 -0.10612990641E+03  0.57376003683E+03  0.96139923999E+02 0.  0.
         11    1    3    3    0    0 -0.15048185440E+03  0.43391948415E+02  0.13292812154E+02  0.15717617042E+03  0.00000000000E+00 0. -1.
        -11    1    3    3    0    0 -0.38798834879E+03  0.93516700394E+02 -0.11942271856E+03  0.41658386641E+03  0.00000000000E+00 0.  1.
         22    1    1    2    0    0  0.53847020319E+03 -0.13690864881E+03 -0.20664261134E+03  0.59278605471E+03  0.00000000000E+00 0. -1.
<mgrwt>
<rscale>  0 0.11238341E+04</rscale>
<asrwt>0</asrwt>
<pdfrwt beam="1">  1        1 0.11379374E+00 0.11238341E+04</pdfrwt>
<pdfrwt beam="2">  1       -1 0.65674890E-01 0.11238341E+04</pdfrwt>
<totfact> 0.58535655E+01</totfact>
</mgrwt>
</event>
<event>
 6    1  0.1885829E-005  0.8005452E+03  0.7818608E-02  0.9559228E-01
          2   -1    0    0  501    0  0.00000000000E+00  0.00000000000E+00  0.11532691683E+04  0.11532691683E+04  0.00000000000E+00 0. -1.
         -2   -1    0    0    0  501 -0.00000000000E+00 -0.00000000000E+00 -0.13892520304E+03  0.13892520304E+03  0.00000000000E+00 0.  1.
         23    2    1    2    0    0 -0.25782838231E+03  0.14289054461E+02  0.30465446195E+02  0.27499400166E+03  0.89520420774E+02 0.  0.
         13    1    3    3    0    0 -0.11282253273E+03  0.50542224773E+02  0.84800114037E+01  0.12391670981E+03  0.00000000000E+00 0. -1.
        -13    1    3    3    0    0 -0.14500584958E+03 -0.36253170312E+02  0.21985434791E+02  0.15107729185E+03  0.00000000000E+00 0.  1.
         22    1    1    2    0    0  0.25782838231E+03 -0.14289054461E+02  0.98387851907E+03  0.10172003697E+04  0.00000000000E+00 0. -1.
<mgrwt>
<rscale>  0 0.80054520E+03</rscale>
<asrwt>0</asrwt>
<pdfrwt beam="1">  1        2 0.17742602E+00 0.80054520E+03</pdfrwt>
<pdfrwt beam="2">  1       -2 0.21373109E-01 0.80054520E+03</pdfrwt>
<totfact> 0.38574200E+02</totfact>
</mgrwt>
</event>
<event>
 6    1  0.1885829E-005  0.2011852E+04  0.7818608E-02  0.8601100E-01
          1   -1    0    0  501    0  0.00000000000E+00  0.00000000000E+00  0.19022087705E+04  0.19022087705E+04  0.00000000000E+00 0. -1.
         -1   -1    0    0    0  501 -0.00000000000E+00 -0.00000000000E+00 -0.53195350550E+03  0.53195350550E+03  0.00000000000E+00 0.  1.
         23    2    1    2    0    0 -0.26446592016E+03  0.11838320060E+03  0.18493847939E+04  0.18742320031E+04  0.92545559064E+02 0.  0.
         11    1    3    3    0    0 -0.21417645756E+03  0.12168007396E+03  0.13480906411E+04  0.13704108770E+04  0.00000000000E+00 0. -1.
        -11    1    3    3    0    0 -0.50289462604E+02 -0.32968733642E+01  0.50129415281E+03  0.50382112606E+03  0.00000000000E+00 0.  1.
         22    1    1    2    0    0  0.26446592016E+03 -0.11838320060E+03 -0.47912952886E+03  0.55993027292E+03  0.00000000000E+00 0.  1.
<mgrwt>
<rscale>  0 0.20118515E+04</rscale>
<asrwt>0</asrwt>
<pdfrwt beam="1">  1        1 0.29264750E+00 0.20118515E+04</pdfrwt>
<pdfrwt beam="2">  1       -1 0.81839002E-01 0.20118515E+04</pdfrwt>
<totfact> 0.47803581E+00</totfact>
</mgrwt>
</event>
<event>
 6    1  0.1885829E-005  0.3114520E+04  0.7818608E-02  0.8211764E-01
         -2   -1    0    0    0  501 -0.00000000000E+00  0.00000000000E+00  0.16275257685E+04  0.16275257685E+04  0.00000000000E+00 0.  1.
          2   -1    0    0  501    0  0.00000000000E+00 -0.00000000000E+00 -0.14900275011E+04  0.14900275011E+04  0.00000000000E+00 0. -1.
         23    2    1    2    0    0 -0.12684773341E+04  0.32202979070E+03  0.91109539554E+03  0.15972932753E+04  0.92266214764E+02 0.  0.
         11    1    3    3    0    0 -0.71678238829E+03  0.19444449542E+03  0.46299459838E+03  0.87518549582E+03  0.00000000000E+00 0. -1.
        -11    1    3    3    0    0 -0.55169494583E+03  0.12758529528E+03  0.44810079715E+03  0.72210777952E+03  0.00000000000E+00 0.  1.
         22    1    1    2    0    0  0.12684773341E+04 -0.32202979070E+03 -0.77359712817E+03  0.15202599942E+04  0.00000000000E+00 0. -1.
<mgrwt>
<rscale>  0 0.31145196E+04</rscale>
<asrwt>0</asrwt>
<pdfrwt beam="1">  1        2 0.22923500E+00 0.31145196E+04</pdfrwt>
<pdfrwt beam="2">  1       -2 0.25038858E+00 0.31145196E+04</pdfrwt>
<totfact> 0.69694968E-01</totfact>
</mgrwt>
</event>
<event>
 6    1  0.1885829E-005  0.1382600E+04  0.7818608E-02  0.8966511E-01
          2   -1    0    0  501    0  0.00000000000E+00  0.00000000000E+00  0.95622099382E+03  0.95622099382E+03  0.00000000000E+00 0. -1.
         -2   -1    0    0    0  501 -0.00000000000E+00 -0.00000000000E+00 -0.49977502907E+03  0.49977502907E+03  0.00000000000E+00 0.  1.
         23    2    1    2    0    0  0.22059721898E+03  0.35229272556E+03  0.80696866625E+03  0.91226864472E+03  0.90897493444E+02 0.  0.
         11    1    3    3    0    0  0.77328210910E+02  0.13396189374E+03  0.39840813836E+03  0.42738096107E+03  0.00000000000E+00 0.  1.
        -11    1    3    3    0    0  0.14326900807E+03  0.21833083182E+03  0.40856052790E+03  0.48488768364E+03  0.00000000000E+00 0. -1.
         22    1    1    2    0    0 -0.22059721898E+03 -0.35229272556E+03 -0.35052270151E+03  0.54372737817E+03  0.00000000000E+00 0.  1.
<mgrwt>
<rscale>  0 0.13825995E+04</rscale>
<asrwt>0</asrwt>
<pdfrwt beam="1">  1        2 0.14711092E+00 0.13825995E+04</pdfrwt>
<pdfrwt beam="2">  1       -2 0.76888466E-01 0.13825995E+04</pdfrwt>
<totfact> 0.39610314E+01</totfact>
</mgrwt>
</event>
<event>
 6    1  0.1885829E-005  0.7400125E+03  0.7818608E-02  0.9651151E-01
         -2   -1    0    0    0  501 -0.00000000000E+00  0.00000000000E+00  0.11069282590E+03  0.11069282590E+03  0.00000000000E+00 0.  1.
          2   -1    0    0  501    0  0.00000000000E+00 -0.00000000000E+00 -0.12367976864E+04  0.12367976864E+04  0.00000000000E+00 0. -1.
         23    2    1    2    0    0  0.25726903072E+03  0.12406738046E+03 -0.98349300152E+03  0.10282441946E+04  0.91910666073E+02 0.  0.
         11    1    3    3    0    0  0.12937780291E+03  0.20882806527E+02 -0.34829126939E+03  0.37213104658E+03  0.00000000000E+00 0.  1.
        -11    1    3    3    0    0  0.12789122781E+03  0.10318457393E+03 -0.63520173213E+03  0.65611314798E+03  0.00000000000E+00 0. -1.
         22    1    1    2    0    0 -0.25726903072E+03 -0.12406738046E+03 -0.14261185895E+03  0.31924631771E+03  0.00000000000E+00 0.  1.
<mgrwt>
<rscale>  0 0.74001252E+03</rscale>
<asrwt>0</asrwt>
<pdfrwt beam="1">  1        2 0.19027655E+00 0.74001252E+03</pdfrwt>
<pdfrwt beam="2">  1       -2 0.17029667E-01 0.74001252E+03</pdfrwt>
<totfact> 0.51250219E+02</totfact>
</mgrwt>
</event>
<event>
 6    1  0.1885829E-005  0.3321422E+04  0.7818608E-02  0.8157466E-01
          1   -1    0    0  501    0  0.00000000000E+00  0.00000000000E+00  0.92364867536E+03  0.92364867536E+03  0.00000000000E+00 0. -1.
         -1   -1    0    0    0  501 -0.00000000000E+00 -0.00000000000E+00 -0.29859423592E+04  0.29859423592E+04  0.00000000000E+00 0.  1.
         23    2    1    2    0    0  0.10248580905E+04 -0.84792403590E+03  0.13600731273E+03  0.13401871061E+04  0.91072575070E+02 0.  0.
         11    1    3    3    0    0  0.71885969738E+03 -0.58131443887E+03  0.13526054650E+03  0.93433460644E+03  0.00000000000E+00 0.  1.
        -11    1    3    3    0    0  0.30599839308E+03 -0.26660959703E+03  0.74676622322E+00  0.40585249963E+03  0.00000000000E+00 0. -1.
         22    1    1    2    0    0 -0.10248580905E+04  0.84792403590E+03 -0.21983009966E+04  0.25694039285E+04  0.00000000000E+00 0.  1.
<mgrwt>
<rscale>  0 0.33214224E+04</rscale>
<asrwt>0</asrwt>
<pdfrwt beam="1">  1        1 0.14209980E+00 0.33214224E+04</pdfrwt>
<pdfrwt beam="2">  1       -1 0.45937574E+00 0.33214224E+04</pdfrwt>
<totfact> 0.40159833E-02</totfact>
</mgrwt>
</event>
<event>
 6    1  0.1885829E-005  0.2943560E+04  0.7818608E-02  0.8260034E-01
          2   -1    0    0  501    0  0.00000000000E+00  0.00000000000E+00  0.14609748743E+04  0.14609748743E+04  0.00000000000E+00 0. -1.
         -2   -1    0    0    0  501 -0.00000000000E+00 -0.00000000000E+00 -0.14826650434E+04  0.14826650434E+04  0.00000000000E+00 0.  1.
         23    2    1    2    0    0 -0.13197749509E+04 -0.59064545379E+03 -0.27787405069E+03  0.14752060056E+04  0.91382699983E+02 0.  0.
         13    1    3    3    0    0 -0.10061144779E+04 -0.49031063403E+03 -0.20310008959E+03  0.11375062667E+04  0.00000000000E+00 0.  1.
        -13    1    3    3    0    0 -0.31366047297E+03 -0.10033481975E+03 -0.74773961101E+02  0.33769973884E+03  0.00000000000E+00 0. -1.
         22    1    1    2    0    0  0.13197749509E+04  0.59064545379E+03  0.25618388167E+03  0.14684339121E+04  0.00000000000E+00 0.  1.
<mgrwt>
<rscale>  0 0.29435600E+04</rscale>
<asrwt>0</asrwt>
<pdfrwt beam="1">  1        2 0.22476536E+00 0.29435600E+04</pdfrwt>
<pdfrwt beam="2">  1       -2 0.22810232E+00 0.29435600E+04</pdfrwt>
<totfact> 0.10094264E+00</totfact>
</mgrwt>
</event>
<event>
 6    1  0.1885829E-005  0.1394824E+04  0.7818608E-02  0.8957574E-01
          2   -1    0    0  501    0  0.00000000000E+00  0.00000000000E+00  0.92293175714E+03  0.92293175714E+03  0.00000000000E+00 0. -1.
         -2   -1    0    0    0  501 -0.00000000000E+00 -0.00000000000E+00 -0.52699834301E+03  0.52699834301E+03  0.00000000000E+00 0.  1.
         23    2    1    2    0    0  0.67559142435E+03 -0.13401477710E+03  0.10622525962E+03  0.70272561146E+03  0.90309169464E+02 0.  0.
         11    1    3    3    0    0  0.44267097498E+03 -0.11526741721E+03  0.36572462103E+02  0.45889183317E+03  0.00000000000E+00 0.  1.
        -11    1    3    3    0    0  0.23292044937E+03 -0.18747359885E+02  0.69652797520E+02  0.24383377830E+03  0.00000000000E+00 0. -1.
         22    1    1    2    0    0 -0.67559142435E+03  0.13401477710E+03  0.28970815451E+03  0.74720448869E+03  0.00000000000E+00 0.  1.
<mgrwt>
<rscale>  0 0.13948240E+04</rscale>
<asrwt>0</asrwt>
<pdfrwt beam="1">  1        2 0.14198950E+00 0.13948240E+04</pdfrwt>
<pdfrwt beam="2">  1       -2 0.81076668E-01 0.13948240E+04</pdfrwt>
<totfact> 0.36966260E+01</totfact>
</mgrwt>
</event>
<event>
 6    1  0.1885829E-005  0.2289899E+04  0.7818608E-02  0.8481914E-01
          2   -1    0    0  501    0  0.00000000000E+00  0.00000000000E+00  0.18550827397E+04  0.18550827397E+04  0.00000000000E+00 0. -1.
         -2   -1    0    0    0  501 -0.00000000000E+00 -0.00000000000E+00 -0.70665817273E+03  0.70665817273E+03  0.00000000000E+00 0.  1.
         23    2    1    2    0    0  0.95011526130E+03 -0.45717883780E+03  0.81677168020E+02  0.10618470786E+04  0.95480674180E+02 0.  0.
         11    1    3    3    0    0  0.68820920678E+03 -0.36690668829E+03  0.87201046554E+02  0.78476522140E+03  0.00000000000E+00 0. -1.
        -11    1    3    3    0    0  0.26190605453E+03 -0.90272149517E+02 -0.55238785334E+01  0.27708185724E+03  0.00000000000E+00 0.  1.
         22    1    1    2    0    0 -0.95011526130E+03  0.45717883780E+03  0.10667473990E+04  0.14998938338E+04  0.00000000000E+00 0. -1.
<mgrwt>
<rscale>  0 0.22898990E+04</rscale>
<asrwt>0</asrwt>
<pdfrwt beam="1">  1        2 0.28539734E+00 0.22898990E+04</pdfrwt>
<pdfrwt beam="2">  1       -2 0.10871664E+00 0.22898990E+04</pdfrwt>
<totfact> 0.49326283E+00</totfact>
</mgrwt>
</event>
<event>
 6    1  0.1885829E-005  0.3078178E+04  0.7818608E-02  0.8221752E-01
         -2   -1    0    0    0  501 -0.00000000000E+00  0.00000000000E+00  0.87623638354E+03  0.87623638354E+03  0.00000000000E+00 0.  1.
          2   -1    0    0  501    0  0.00000000000E+00 -0.00000000000E+00 -0.27033739756E+04  0.27033739756E+04  0.00000000000E+00 0. -1.
         23    2    1    2    0    0  0.34936065004E+03 -0.62694983998E+03  0.66714744542E+03  0.98411872673E+03  0.91021913405E+02 0.  0.
         11    1    3    3    0    0  0.16372058263E+03 -0.34668815892E+03  0.30434178682E+03  0.48951101307E+03  0.00000000000E+00 0. -1.
        -11    1    3    3    0    0  0.18564006741E+03 -0.28026168107E+03  0.36280565860E+03  0.49460771366E+03  0.00000000000E+00 0.  1.
         22    1    1    2    0    0 -0.34936065004E+03  0.62694983998E+03 -0.24942850375E+04  0.25954916324E+04  0.00000000000E+00 0. -1.
<mgrwt>
<rscale>  0 0.30781778E+04</rscale>
<asrwt>0</asrwt>
<pdfrwt beam="1">  1        2 0.41590368E+00 0.30781778E+04</pdfrwt>
<pdfrwt beam="2">  1       -2 0.13480560E+00 0.30781778E+04</pdfrwt>
<totfact> 0.88987745E-01</totfact>
</mgrwt>
</event>
<event>
 6    1  0.1885829E-005  0.2801370E+04  0.7818608E-02  0.8302843E-01
         -2   -1    0    0    0  501 -0.00000000000E+00  0.00000000000E+00  0.10304252496E+04  0.10304252496E+04  0.00000000000E+00 0.  1.
          2   -1    0    0  501    0  0.00000000000E+00 -0.00000000000E+00 -0.19039897195E+04  0.19039897195E+04  0.00000000000E+00 0. -1.
         23    2    1    2    0    0  0.52127575918E+03  0.36621976352E+03  0.86766652765E+03  0.10803031281E+04  0.91456618464E+02 0.  0.
         13    1    3    3    0    0  0.16452751662E+03  0.13088960826E+03  0.21970122620E+03  0.30408883911E+03  0.00000000000E+00 0. -1.
        -13    1    3    3    0    0  0.35674824257E+03  0.23533015527E+03  0.64796530144E+03  0.77621428899E+03  0.00000000000E+00 0.  1.
         22    1    1    2    0    0 -0.52127575918E+03 -0.36621976352E+03 -0.17412309975E+04  0.18541118410E+04  0.00000000000E+00 0. -1.
<mgrwt>
<rscale>  0 0.28013704E+04</rscale>
<asrwt>0</asrwt>
<pdfrwt beam="1">  1        2 0.29292149E+00 0.28013704E+04</pdfrwt>
<pdfrwt beam="2">  1       -2 0.15852697E+00 0.28013704E+04</pdfrwt>
<totfact> 0.16981156E+00</totfact>
</mgrwt>
</event>
<event>
 6    1  0.1885829E-005  0.6944501E+04  0.7818608E-02  0.7583186E-01
          1   -1    0    0  501    0  0.00000000000E+00  0.00000000000E+00  0.33709809759E+04  0.33709809759E+04  0.00000000000E+00 0. -1.
         -1   -1    0    0    0  501 -0.00000000000E+00 -0.00000000000E+00 -0.35765625811E+04  0.35765625811E+04  0.00000000000E+00 0.  1.
         23    2    1    2    0    0  0.12984823360E+04  0.22894256718E+04 -0.23675798100E+04  0.35414075466E+04  0.92773758853E+02 0.  0.
         13    1    3    3    0    0  0.86585083032E+03  0.14518145456E+04 -0.15531591994E+04  0.22955972282E+04  0.00000000000E+00 0.  1.
        -13    1    3    3    0    0  0.43263150570E+03  0.83761112620E+03 -0.81442061061E+03  0.12458103184E+04  0.00000000000E+00 0. -1.
         22    1    1    2    0    0 -0.12984823360E+04 -0.22894256718E+04  0.21619982048E+04  0.34061360104E+04  0.00000000000E+00 0. -1.
<mgrwt>
<rscale>  0 0.69445013E+04</rscale>
<asrwt>0</asrwt>
<pdfrwt beam="1">  1        1 0.51861246E+00 0.69445013E+04</pdfrwt>
<pdfrwt beam="2">  1       -1 0.55024039E+00 0.69445013E+04</pdfrwt>
<totfact> 0.15009628E-04</totfact>
</mgrwt>
</event>
<event>
 6    1  0.1885829E-005  0.2838880E+04  0.7818608E-02  0.8291298E-01
         -2   -1    0    0    0  501 -0.00000000000E+00  0.00000000000E+00  0.53054774635E+03  0.53054774635E+03  0.00000000000E+00 0.  1.
          2   -1    0    0  501    0  0.00000000000E+00 -0.00000000000E+00 -0.37976024616E+04  0.37976024616E+04  0.00000000000E+00 0. -1.
         23    2    1    2    0    0 -0.11340306423E+04  0.46124038041E+02 -0.29311974387E+04  0.31445315891E+04  0.89485004643E+02 0.  0.
         11    1    3    3    0    0 -0.81411757845E+03 -0.68684258417E+01 -0.21120913618E+04  0.22635733978E+04  0.00000000000E+00 0. -1.
        -11    1    3    3    0    0 -0.31991306383E+03  0.52992463882E+02 -0.81910607692E+03  0.88095819134E+03  0.00000000000E+00 0.  1.
         22    1    1    2    0    0  0.11340306423E+04 -0.46124038041E+02 -0.33585727654E+03  0.11836186188E+04  0.00000000000E+00 0.  1.
<mgrwt>
<rscale>  0 0.28388797E+04</rscale>
<asrwt>0</asrwt>
<pdfrwt beam="1">  1        2 0.58424652E+00 0.28388797E+04</pdfrwt>
<pdfrwt beam="2">  1       -2 0.81622732E-01 0.28388797E+04</pdfrwt>
<totfact> 0.56517964E-01</totfact>
</mgrwt>
</event>
<event>
 6    1  0.1885829E-005  0.7817722E+03  0.7818608E-02  0.9586782E-01
          2   -1    0    0  501    0  0.00000000000E+00  0.00000000000E+00  0.12083448870E+04  0.12083448870E+04  0.00000000000E+00 0. -1.
         -2   -1    0    0    0  501 -0.00000000000E+00 -0.00000000000E+00 -0.12644729966E+03  0.12644729966E+03  0.00000000000E+00 0.  1.
         23    2    1    2    0    0 -0.37562009204E+03 -0.77193900868E+02  0.48238326811E+03  0.62312739841E+03  0.92438008517E+02 0.  0.
         13    1    3    3    0    0 -0.13247266182E+03 -0.34908176341E+02  0.24497425174E+03  0.28067769936E+03  0.00000000000E+00 0.  1.
        -13    1    3    3    0    0 -0.24314743022E+03 -0.42285724527E+02  0.23740901638E+03  0.34244969905E+03  0.00000000000E+00 0. -1.
         22    1    1    2    0    0  0.37562009204E+03  0.77193900868E+02  0.59951431918E+03  0.71166478821E+03  0.00000000000E+00 0. -1.
<mgrwt>
<rscale>  0 0.78177221E+03</rscale>
<asrwt>0</asrwt>
<pdfrwt beam="1">  1        2 0.18589921E+00 0.78177221E+03</pdfrwt>
<pdfrwt beam="2">  1       -2 0.19453432E-01 0.78177221E+03</pdfrwt>
<totfact> 0.42229510E+02</totfact>
</mgrwt>
</event>
<event>
 6    1  0.1885829E-005  0.1502214E+04  0.7818608E-02  0.8882982E-01
         -2   -1    0    0    0  501 -0.00000000000E+00  0.00000000000E+00  0.46658400020E+03  0.46658400020E+03  0.00000000000E+00 0.  1.
          2   -1    0    0  501    0  0.00000000000E+00 -0.00000000000E+00 -0.12091314420E+04  0.12091314420E+04  0.00000000000E+00 0. -1.
         23    2    1    2    0    0 -0.25301002100E+03  0.44289649221E+03 -0.98352590816E+03  0.11115860290E+04  0.90160492402E+02 0.  0.
         13    1    3    3    0    0 -0.13899250622E+03  0.15498796549E+03 -0.38319409968E+03  0.43609391679E+03  0.00000000000E+00 0. -1.
        -13    1    3    3    0    0 -0.11401751478E+03  0.28790852672E+03 -0.60033180849E+03  0.67549211226E+03  0.00000000000E+00 0.  1.
         22    1    1    2    0    0  0.25301002100E+03 -0.44289649221E+03  0.24097846637E+03  0.56412941316E+03  0.00000000000E+00 0.  1.
<mgrwt>
<rscale>  0 0.15022135E+04</rscale>
<asrwt>0</asrwt>
<pdfrwt beam="1">  1        2 0.18602022E+00 0.15022135E+04</pdfrwt>
<pdfrwt beam="2">  1       -2 0.71782154E-01 0.15022135E+04</pdfrwt>
<totfact> 0.31790225E+01</totfact>
</mgrwt>
</event>
<event>
 6    1  0.1885829E-005  0.5447424E+03  0.7818608E-02  0.1002718E+00
         -2   -1    0    0    0  501 -0.00000000000E+00  0.00000000000E+00  0.64802340143E+03  0.64802340143E+03  0.00000000000E+00 0.  1.
          2   -1    0    0  501    0  0.00000000000E+00 -0.00000000000E+00 -0.11448054913E+03  0.11448054913E+03  0.00000000000E+00 0. -1.
         23    2    1    2    0    0  0.11713075271E+02 -0.11342992060E+03  0.60843385827E+03  0.62607739230E+03  0.93688837323E+02 0.  0.
         13    1    3    3    0    0  0.11068708464E+01 -0.12699931496E+03  0.48098937555E+03  0.49747445217E+03  0.00000000000E+00 0.  1.
        -13    1    3    3    0    0  0.10606204425E+02  0.13569394361E+02  0.12744448272E+03  0.12860294014E+03  0.00000000000E+00 0. -1.
         22    1    1    2    0    0 -0.11713075271E+02  0.11342992060E+03 -0.74891005975E+02  0.13642655825E+03  0.00000000000E+00 0. -1.
<mgrwt>
<rscale>  0 0.54474242E+03</rscale>
<asrwt>0</asrwt>
<pdfrwt beam="1">  1        2 0.17612392E-01 0.54474242E+03</pdfrwt>
<pdfrwt beam="2">  1       -2 0.99695906E-01 0.54474242E+03</pdfrwt>
<totfact> 0.27823954E+02</totfact>
</mgrwt>
</event>
<event>
 6    1  0.1885829E-005  0.4203654E+04  0.7818608E-02  0.7964678E-01
         -2   -1    0    0    0  501 -0.00000000000E+00  0.00000000000E+00  0.13356694866E+04  0.13356694866E+04  0.00000000000E+00 0.  1.
          2   -1    0    0  501    0  0.00000000000E+00 -0.00000000000E+00 -0.33074622051E+04  0.33074622051E+04  0.00000000000E+00 0. -1.
         23    2    1    2    0    0  0.21485182824E+03 -0.19789414825E+04 -0.17282720714E+04  0.26377207600E+04  0.90971180211E+02 0.  0.
         11    1    3    3    0    0  0.10528591621E+03 -0.12424707941E+04 -0.11251781490E+04  0.16795370390E+04  0.00000000000E+00 0.  1.
        -11    1    3    3    0    0  0.10956591203E+03 -0.73647068842E+03 -0.60309392236E+03  0.95818372099E+03  0.00000000000E+00 0. -1.
         22    1    1    2    0    0 -0.21485182824E+03  0.19789414825E+04 -0.24352064714E+03  0.20054109317E+04  0.00000000000E+00 0.  1.
<mgrwt>
<rscale>  0 0.42036538E+04</rscale>
<asrwt>0</asrwt>
<pdfrwt beam="1">  1        2 0.50884033E+00 0.42036538E+04</pdfrwt>
<pdfrwt beam="2">  1       -2 0.20548762E+00 0.42036538E+04</pdfrwt>
<totfact> 0.10451482E-01</totfact>
</mgrwt>
</event>
<event>
 6    1  0.1885829E-005  0.1531908E+04  0.7818608E-02  0.8863507E-01
          2   -1    0    0  501    0  0.00000000000E+00  0.00000000000E+00  0.16534835677E+04  0.16534835677E+04  0.00000000000E+00 0. -1.
         -2   -1    0    0    0  501 -0.00000000000E+00 -0.00000000000E+00 -0.35481809663E+03  0.35481809663E+03  0.00000000000E+00 0.  1.
         23    2    1    2    0    0 -0.32699725736E+03  0.67485148857E+03  0.46834751202E+03  0.88947207450E+03  0.97259659488E+02 0.  0.
         13    1    3    3    0    0 -0.25117007840E+03  0.53386646753E+03  0.31986124847E+03  0.67112668827E+03  0.00000000000E+00 0.  1.
        -13    1    3    3    0    0 -0.75827178956E+02  0.14098502103E+03  0.14848626355E+03  0.21834538622E+03  0.00000000000E+00 0. -1.
         22    1    1    2    0    0  0.32699725736E+03 -0.67485148857E+03  0.83031795903E+03  0.11188295898E+04  0.00000000000E+00 0. -1.
<mgrwt>
<rscale>  0 0.15319085E+04</rscale>
<asrwt>0</asrwt>
<pdfrwt beam="1">  1        2 0.25438208E+00 0.15319085E+04</pdfrwt>
<pdfrwt beam="2">  1       -2 0.54587400E-01 0.15319085E+04</pdfrwt>
<totfact> 0.31683783E+01</totfact>
</mgrwt>
</event>
<event>
 6    1  0.1885829E-005  0.2565475E+04  0.7818608E-02  0.8380024E-01
         -2   -1    0    0    0  501 -0.00000000000E+00  0.00000000000E+00  0.66793551965E+03  0.66793551965E+03  0.00000000000E+00 0.  1.
          2   -1    0    0  501    0  0.00000000000E+00 -0.00000000000E+00 -0.24634346925E+04  0.24634346925E+04  0.00000000000E+00 0. -1.
         23    2    1    2    0    0 -0.91812845055E+03 -0.89036473669E+03 -0.99073022529E+03  0.16202903747E+04  0.89918313549E+02 0.  0.
         11    1    3    3    0    0 -0.61153639494E+03 -0.62576632415E+03 -0.63291244391E+03  0.10798788897E+04  0.00000000000E+00 0.  1.
        -11    1    3    3    0    0 -0.30659205562E+03 -0.26459841255E+03 -0.35781778138E+03  0.54041148504E+03  0.00000000000E+00 0. -1.
         22    1    1    2    0    0  0.91812845055E+03  0.89036473669E+03 -0.80476894756E+03  0.15110798374E+04  0.00000000000E+00 0. -1.
<mgrwt>
<rscale>  0 0.25654750E+04</rscale>
<asrwt>0</asrwt>
<pdfrwt beam="1">  1        2 0.37898995E+00 0.25654750E+04</pdfrwt>
<pdfrwt beam="2">  1       -2 0.10275931E+00 0.25654750E+04</pdfrwt>
<totfact> 0.25093333E+00</totfact>
</mgrwt>
</event>
<event>
 6    1  0.1885829E-005  0.1887773E+04  0.7818608E-02  0.8660967E-01
         -2   -1    0    0    0  501 -0.00000000000E+00  0.00000000000E+00  0.45762574610E+03  0.45762574610E+03  0.00000000000E+00 0. -1.
          2   -1    0    0  501    0  0.00000000000E+00 -0.00000000000E+00 -0.19468346060E+04  0.19468346060E+04  0.00000000000E+00 0.  1.
         23    2    1    2    0    0  0.28328614741E+03 -0.26778228230E+03  0.34553873305E+03  0.52875858426E+03  0.90720628143E+02 0.  0.
         11    1    3    3    0    0  0.96084794705E+02 -0.36789716283E+02  0.91369481713E+02  0.13760142872E+03  0.00000000000E+00 0. -1.
        -11    1    3    3    0    0  0.18720135270E+03 -0.23099256601E+03  0.25416925133E+03  0.39115715554E+03  0.00000000000E+00 0.  1.
         22    1    1    2    0    0 -0.28328614741E+03  0.26778228230E+03 -0.18347475929E+04  0.18757017678E+04  0.00000000000E+00 0.  1.
<mgrwt>
<rscale>  0 0.18877729E+04</rscale>
<asrwt>0</asrwt>
<pdfrwt beam="1">  1        2 0.29951302E+00 0.18877729E+04</pdfrwt>
<pdfrwt beam="2">  1       -2 0.70403960E-01 0.18877729E+04</pdfrwt>
<totfact> 0.12306729E+01</totfact>
</mgrwt>
</event>
<event>
 6    1  0.1885829E-005  0.2426599E+04  0.7818608E-02  0.8429612E-01
         -2   -1    0    0    0  501 -0.00000000000E+00  0.00000000000E+00  0.55773862233E+03  0.55773862233E+03  0.00000000000E+00 0. -1.
          2   -1    0    0  501    0  0.00000000000E+00 -0.00000000000E+00 -0.26394004764E+04  0.26394004764E+04  0.00000000000E+00 0.  1.
         23    2    1    2    0    0  0.68688489813E+03 -0.49384966013E+03  0.10057230870E+03  0.85665959845E+03  0.89735880490E+02 0.  0.
         13    1    3    3    0    0  0.48482721822E+03 -0.37427585268E+03  0.37934510591E+02  0.61366022563E+03  0.00000000000E+00 0.  1.
        -13    1    3    3    0    0  0.20205767991E+03 -0.11957380745E+03  0.62637798110E+02  0.24299937282E+03  0.00000000000E+00 0. -1.
         22    1    1    2    0    0 -0.68688489813E+03  0.49384966013E+03 -0.21822341628E+04  0.23404795003E+04  0.00000000000E+00 0.  1.
<mgrwt>
<rscale>  0 0.24265989E+04</rscale>
<asrwt>0</asrwt>
<pdfrwt beam="1">  1        2 0.40606161E+00 0.24265989E+04</pdfrwt>
<pdfrwt beam="2">  1       -2 0.85805943E-01 0.24265989E+04</pdfrwt>
<totfact> 0.30522208E+00</totfact>
</mgrwt>
</event>
<event>
 6    1  0.1885829E-005  0.2671425E+03  0.7818608E-02  0.1102926E+00
          2   -1    0    0  501    0  0.00000000000E+00  0.00000000000E+00  0.47589349071E+03  0.47589349071E+03  0.00000000000E+00 0. -1.
         -2   -1    0    0    0  501 -0.00000000000E+00 -0.00000000000E+00 -0.37490066036E+02  0.37490066036E+02  0.00000000000E+00 0.  1.
         23    2    1    2    0    0 -0.84413120015E+02  0.23145475834E+02  0.39840509485E+03  0.41714866561E+03  0.87321828532E+02 0.  0.
         13    1    3    3    0    0 -0.65258107640E+02  0.12997093441E+02  0.11459924384E+03  0.13251615653E+03  0.00000000000E+00 0. -1.
        -13    1    3    3    0    0 -0.19155012375E+02  0.10148382393E+02  0.28380585101E+03  0.28463250909E+03  0.00000000000E+00 0.  1.
         22    1    1    2    0    0  0.84413120015E+02 -0.23145475834E+02  0.39998329822E+02  0.96234891130E+02  0.00000000000E+00 0.  1.
<mgrwt>
<rscale>  0 0.26714250E+03</rscale>
<asrwt>0</asrwt>
<pdfrwt beam="1">  1        2 0.73214379E-01 0.26714250E+03</pdfrwt>
<pdfrwt beam="2">  1       -2 0.57677028E-02 0.26714250E+03</pdfrwt>
<totfact> 0.10273489E+04</totfact>
</mgrwt>
</event>
<event>
 6    1  0.1885829E-005  0.4458749E+04  0.7818608E-02  0.7917899E-01
         -2   -1    0    0    0  501 -0.00000000000E+00  0.00000000000E+00  0.21248826594E+04  0.21248826594E+04  0.00000000000E+00 0.  1.
          2   -1    0    0  501    0  0.00000000000E+00 -0.00000000000E+00 -0.23390043137E+04  0.23390043137E+04  0.00000000000E+00 0. -1.
         23    2    1    2    0    0 -0.20724254787E+04 -0.65686367379E+02  0.71025459105E+03  0.21937033887E+04  0.92794988029E+02 0.  0.
         11    1    3    3    0    0 -0.28347330438E+03 -0.12357742628E+02  0.64147542369E+02  0.29090330918E+03  0.00000000000E+00 0.  1.
        -11    1    3    3    0    0 -0.17889521743E+04 -0.53328624751E+02  0.64610704868E+03  0.19028000795E+04  0.00000000000E+00 0. -1.
         22    1    1    2    0    0  0.20724254787E+04  0.65686367379E+02 -0.92437624535E+03  0.22701835844E+04  0.00000000000E+00 0. -1.
<mgrwt>
<rscale>  0 0.44587486E+04</rscale>
<asrwt>0</asrwt>
<pdfrwt beam="1">  1        2 0.35984682E+00 0.44587486E+04</pdfrwt>
<pdfrwt beam="2">  1       -2 0.32690503E+00 0.44587486E+04</pdfrwt>
<totfact> 0.71061608E-02</totfact>
</mgrwt>
</event>
<event>
 6    1  0.1885829E-005  0.3170406E+04  0.7818608E-02  0.8196677E-01
          2   -1    0    0  501    0  0.00000000000E+00  0.00000000000E+00  0.15386507701E+04  0.15386507701E+04  0.00000000000E+00 0. -1.
         -2   -1    0    0    0  501 -0.00000000000E+00 -0.00000000000E+00 -0.16331639455E+04  0.16331639455E+04  0.00000000000E+00 0.  1.
         23    2    1    2    0    0 -0.13169067890E+04  0.11824167600E+03  0.82522832505E+03  0.15611785020E+04  0.89732612387E+02 0.  0.
         13    1    3    3    0    0 -0.87453268256E+03  0.95247568140E+02  0.50244856747E+03  0.10130814750E+04  0.00000000000E+00 0. -1.
        -13    1    3    3    0    0 -0.44237410642E+03  0.22994107863E+02  0.32277975759E+03  0.54809702693E+03  0.00000000000E+00 0.  1.
         22    1    1    2    0    0  0.13169067890E+04 -0.11824167600E+03 -0.91974150049E+03  0.16106362136E+04  0.00000000000E+00 0.  1.
<mgrwt>
<rscale>  0 0.31704063E+04</rscale>
<asrwt>0</asrwt>
<pdfrwt beam="1">  1        2 0.23671550E+00 0.31704063E+04</pdfrwt>
<pdfrwt beam="2">  1       -2 0.25125599E+00 0.31704063E+04</pdfrwt>
<totfact> 0.64332055E-01</totfact>
</mgrwt>
</event>
<event>
 6    1  0.1885829E-005  0.1232920E+04  0.7818608E-02  0.9084520E-01
          2   -1    0    0  501    0  0.00000000000E+00  0.00000000000E+00  0.18165332390E+04  0.18165332390E+04  0.00000000000E+00 0. -1.
         -2   -1    0    0    0  501 -0.00000000000E+00 -0.00000000000E+00 -0.20920222415E+03  0.20920222415E+03  0.00000000000E+00 0.  1.
         23    2    1    2    0    0 -0.14273042311E+03 -0.40650722761E+03  0.91936120057E+02  0.45028575372E+03  0.93192864813E+02 0.  0.
         11    1    3    3    0    0 -0.39869747780E+02 -0.22830405261E+03  0.76035901446E+02  0.24391350011E+03  0.00000000000E+00 0. -1.
        -11    1    3    3    0    0 -0.10286067533E+03 -0.17820317500E+03  0.15900218610E+02  0.20637225361E+03  0.00000000000E+00 0.  1.
         22    1    1    2    0    0  0.14273042311E+03  0.40650722761E+03  0.15153948948E+04  0.15754497095E+04  0.00000000000E+00 0. -1.
<mgrwt>
<rscale>  0 0.12329198E+04</rscale>
<asrwt>0</asrwt>
<pdfrwt beam="1">  1        2 0.27946664E+00 0.12329198E+04</pdfrwt>
<pdfrwt beam="2">  1       -2 0.32184959E-01 0.12329198E+04</pdfrwt>
<totfact> 0.74764175E+01</totfact>
</mgrwt>
</event>
<event>
 6    1  0.1885829E-005  0.2736531E+04  0.7818608E-02  0.8323248E-01
         -2   -1    0    0    0  501 -0.00000000000E+00  0.00000000000E+00  0.75038974682E+03  0.75038974682E+03  0.00000000000E+00 0.  1.
          2   -1    0    0  501    0  0.00000000000E+00 -0.00000000000E+00 -0.24949042433E+04  0.24949042433E+04  0.00000000000E+00 0. -1.
         23    2    1    2    0    0 -0.73309135112E+03 -0.42019102269E+03  0.40043079401E+03  0.93991468860E+03  0.95453530173E+02 0.  0.
         13    1    3    3    0    0 -0.34157064336E+03 -0.20106168760E+03  0.24038387680E+03  0.46355227844E+03  0.00000000000E+00 0. -1.
        -13    1    3    3    0    0 -0.39152070776E+03 -0.21912933510E+03  0.16004691721E+03  0.47636241016E+03  0.00000000000E+00 0.  1.
         22    1    1    2    0    0  0.73309135112E+03  0.42019102269E+03 -0.21449452905E+04  0.23053793015E+04  0.00000000000E+00 0. -1.
<mgrwt>
<rscale>  0 0.27365311E+04</rscale>
<asrwt>0</asrwt>
<pdfrwt beam="1">  1        2 0.38383142E+00 0.27365311E+04</pdfrwt>
<pdfrwt beam="2">  1       -2 0.11544458E+00 0.27365311E+04</pdfrwt>
<totfact> 0.17902787E+00</totfact>
</mgrwt>
</event>
<event>
 6    1  0.1885829E-005  0.2549388E+04  0.7818608E-02  0.8385599E-01
          1   -1    0    0  501    0  0.00000000000E+00  0.00000000000E+00  0.11405116569E+04  0.11405116569E+04  0.00000000000E+00 0. -1.
         -1   -1    0    0    0  501 -0.00000000000E+00 -0.00000000000E+00 -0.14246627611E+04  0.14246627611E+04  0.00000000000E+00 0.  1.
         23    2    1    2    0    0 -0.10246240154E+04  0.57362730199E+03 -0.63694000750E+03  0.13390575130E+04  0.92085804944E+02 0.  0.
         13    1    3    3    0    0 -0.15952167036E+02  0.23497155751E+02 -0.94375991574E+01  0.29927516425E+02  0.00000000000E+00 0. -1.
        -13    1    3    3    0    0 -0.10086718483E+04  0.55013014624E+03 -0.62750240834E+03  0.13091299966E+04  0.00000000000E+00 0.  1.
         22    1    1    2    0    0  0.10246240154E+04 -0.57362730199E+03  0.35278890332E+03  0.12261169050E+04  0.00000000000E+00 0. -1.
<mgrwt>
<rscale>  0 0.25493878E+04</rscale>
<asrwt>0</asrwt>
<pdfrwt beam="1">  1        1 0.17546333E+00 0.25493878E+04</pdfrwt>
<pdfrwt beam="2">  1       -1 0.21917889E+00 0.25493878E+04</pdfrwt>
<totfact> 0.11656567E+00</totfact>
</mgrwt>
</event>
<event>
 6    1  0.1885829E-005  0.2782298E+04  0.7818608E-02  0.8308785E-01
          2   -1    0    0  501    0  0.00000000000E+00  0.00000000000E+00  0.36289127073E+04  0.36289127073E+04  0.00000000000E+00 0. -1.
         -2   -1    0    0    0  501 -0.00000000000E+00 -0.00000000000E+00 -0.53329908042E+03  0.53329908042E+03  0.00000000000E+00 0.  1.
         23    2    1    2    0    0  0.17106484771E+02  0.42597820071E+03  0.35280999517E+04  0.35549272741E+04  0.90931818825E+02 0.  0.
         11    1    3    3    0    0  0.14483274980E+02  0.36430309503E+03  0.26960308098E+04  0.27205713808E+04  0.00000000000E+00 0.  1.
        -11    1    3    3    0    0  0.26232097909E+01  0.61675105679E+02  0.83206914186E+03  0.83435589332E+03  0.00000000000E+00 0. -1.
         22    1    1    2    0    0 -0.17106484771E+02 -0.42597820071E+03 -0.43248632483E+03  0.60728451361E+03  0.00000000000E+00 0.  1.
<mgrwt>
<rscale>  0 0.27822982E+04</rscale>
<asrwt>0</asrwt>
<pdfrwt beam="1">  1        2 0.55829425E+00 0.27822982E+04</pdfrwt>
<pdfrwt beam="2">  1       -2 0.82046014E-01 0.27822982E+04</pdfrwt>
<totfact> 0.74873081E-01</totfact>
</mgrwt>
</event>
<event>
 6    1  0.1885829E-005  0.2588584E+04  0.7818608E-02  0.8372089E-01
         -2   -1    0    0    0  501 -0.00000000000E+00  0.00000000000E+00  0.14027419657E+04  0.14027419657E+04  0.00000000000E+00 0. -1.
          2   -1    0    0  501    0  0.00000000000E+00 -0.00000000000E+00 -0.11942261679E+04  0.11942261679E+04  0.00000000000E+00 0.  1.
         23    2    1    2    0    0 -0.69693700348E+03 -0.10832407273E+04  0.21527105572E+03  0.13088775725E+04  0.87676748722E+02 0.  0.
         11    1    3    3    0    0 -0.34645147738E+03 -0.46447831357E+03  0.79151967513E+02  0.58483652752E+03  0.00000000000E+00 0.  1.
        -11    1    3    3    0    0 -0.35048552610E+03 -0.61876241373E+03  0.13611908821E+03  0.72404104499E+03  0.00000000000E+00 0. -1.
         22    1    1    2    0    0  0.69693700348E+03  0.10832407273E+04 -0.67552580020E+01  0.12880905611E+04  0.00000000000E+00 0. -1.
<mgrwt>
<rscale>  0 0.25885835E+04</rscale>
<asrwt>0</asrwt>
<pdfrwt beam="1">  1        2 0.18372710E+00 0.25885835E+04</pdfrwt>
<pdfrwt beam="2">  1       -2 0.21580646E+00 0.25885835E+04</pdfrwt>
<totfact> 0.17765112E+00</totfact>
</mgrwt>
</event>
<event>
 6    1  0.1885829E-005  0.1091188E+04  0.7818608E-02  0.9213823E-01
         -2   -1    0    0    0  501 -0.00000000000E+00  0.00000000000E+00  0.50253670549E+03  0.50253670549E+03  0.00000000000E+00 0.  1.
          2   -1    0    0  501    0  0.00000000000E+00 -0.00000000000E+00 -0.59234051733E+03  0.59234051733E+03  0.00000000000E+00 0. -1.
         23    2    1    2    0    0  0.29672779283E+02  0.45765748161E+03  0.24456419879E+03  0.52730977234E+03  0.88955631459E+02 0.  0.
         11    1    3    3    0    0  0.61329239180E+02  0.28111303352E+03  0.15540150179E+03  0.32700984688E+03  0.00000000000E+00 0. -1.
        -11    1    3    3    0    0 -0.31656459897E+02  0.17654444809E+03  0.89162696999E+02  0.20029992546E+03  0.00000000000E+00 0.  1.
         22    1    1    2    0    0 -0.29672779283E+02 -0.45765748161E+03 -0.33436801064E+03  0.56756745048E+03  0.00000000000E+00 0. -1.
<mgrwt>
<rscale>  0 0.10911881E+04</rscale>
<asrwt>0</asrwt>
<pdfrwt beam="1">  1        2 0.91129310E-01 0.10911881E+04</pdfrwt>
<pdfrwt beam="2">  1       -2 0.77313340E-01 0.10911881E+04</pdfrwt>
<totfact> 0.74726416E+01</totfact>
</mgrwt>
</event>
<event>
 6    1  0.1885829E-005  0.8956455E+03  0.7818608E-02  0.9431041E-01
          2   -1    0    0  501    0  0.00000000000E+00  0.00000000000E+00  0.80450578166E+03  0.80450578166E+03  0.00000000000E+00 0. -1.
         -2   -1    0    0    0  501 -0.00000000000E+00 -0.00000000000E+00 -0.24927755789E+03  0.24927755789E+03  0.00000000000E+00 0.  1.
         23    2    1    2    0    0 -0.23071391428E+03  0.35434347193E+03  0.43583790696E+03  0.61441759886E+03  0.93627444192E+02 0.  0.
         13    1    3    3    0    0 -0.56113414207E+01  0.67556984213E+02  0.56042699086E+02  0.87955769506E+02  0.00000000000E+00 0.  1.
        -13    1    3    3    0    0 -0.22510257285E+03  0.28678648772E+03  0.37979520788E+03  0.52646182936E+03  0.00000000000E+00 0. -1.
         22    1    1    2    0    0  0.23071391428E+03 -0.35434347193E+03  0.11939031681E+03  0.43936574069E+03  0.00000000000E+00 0.  1.
<mgrwt>
<rscale>  0 0.89564555E+03</rscale>
<asrwt>0</asrwt>
<pdfrwt beam="1">  1        2 0.12377012E+00 0.89564555E+03</pdfrwt>
<pdfrwt beam="2">  1       -2 0.38350394E-01 0.89564555E+03</pdfrwt>
<totfact> 0.22003035E+02</totfact>
</mgrwt>
</event>
<event>
 6    1  0.1885829E-005  0.3828041E+04  0.7818608E-02  0.8040164E-01
         -2   -1    0    0    0  501 -0.00000000000E+00  0.00000000000E+00  0.12418538923E+04  0.12418538923E+04  0.00000000000E+00 0.  1.
          2   -1    0    0  501    0  0.00000000000E+00 -0.00000000000E+00 -0.29500050588E+04  0.29500050588E+04  0.00000000000E+00 0. -1.
         23    2    1    2    0    0  0.66680958178E+03  0.62439932507E+03 -0.26950079547E+04  0.28470928539E+04  0.91434716304E+02 0.  0.
         11    1    3    3    0    0  0.26453903632E+03  0.30763480289E+03 -0.11537422619E+04  0.12230050207E+04  0.00000000000E+00 0.  1.
        -11    1    3    3    0    0  0.40227054547E+03  0.31676452218E+03 -0.15412656928E+04  0.16240878332E+04  0.00000000000E+00 0. -1.
         22    1    1    2    0    0 -0.66680958178E+03 -0.62439932507E+03  0.98685678821E+03  0.13447660971E+04  0.00000000000E+00 0.  1.
<mgrwt>
<rscale>  0 0.38280414E+04</rscale>
<asrwt>0</asrwt>
<pdfrwt beam="1">  1        2 0.45384692E+00 0.38280414E+04</pdfrwt>
<pdfrwt beam="2">  1       -2 0.19105445E+00 0.38280414E+04</pdfrwt>
<totfact> 0.22811437E-01</totfact>
</mgrwt>
</event>
<event>
 6    1  0.1885829E-005  0.1750834E+04  0.7818608E-02  0.8732891E-01
          1   -1    0    0  501    0  0.00000000000E+00  0.00000000000E+00  0.68927833799E+03  0.68927833799E+03  0.00000000000E+00 0. -1.
         -1   -1    0    0    0  501 -0.00000000000E+00 -0.00000000000E+00 -0.11118220318E+04  0.11118220318E+04  0.00000000000E+00 0.  1.
         23    2    1    2    0    0 -0.22781332527E+03  0.15746325873E+03  0.63974873226E+03  0.70330312645E+03  0.93076625521E+02 0.  0.
         11    1    3    3    0    0 -0.22040264264E+03  0.16806890448E+03  0.58941141093E+03  0.65132963457E+03  0.00000000000E+00 0. -1.
        -11    1    3    3    0    0 -0.74106826301E+01 -0.10605645752E+02  0.50337321329E+02  0.51973491873E+02  0.00000000000E+00 0.  1.
         22    1    1    2    0    0  0.22781332527E+03 -0.15746325873E+03 -0.10622924261E+04  0.10977972434E+04  0.00000000000E+00 0.  1.
<mgrwt>
<rscale>  0 0.17508339E+04</rscale>
<asrwt>0</asrwt>
<pdfrwt beam="1">  1        1 0.10604282E+00 0.17508339E+04</pdfrwt>
<pdfrwt beam="2">  1       -1 0.17104954E+00 0.17508339E+04</pdfrwt>
<totfact> 0.63880586E+00</totfact>
</mgrwt>
</event>
<event>
 6    1  0.1885829E-005  0.1127029E+04  0.7818608E-02  0.9179241E-01
          2   -1    0    0  501    0  0.00000000000E+00  0.00000000000E+00  0.16655290712E+04  0.16655290712E+04  0.00000000000E+00 0. -1.
         -2   -1    0    0    0  501 -0.00000000000E+00 -0.00000000000E+00 -0.19065921594E+03  0.19065921594E+03  0.00000000000E+00 0.  1.
         23    2    1    2    0    0  0.19091044832E+03  0.45567832904E+03  0.30686198594E+03  0.58798801839E+03  0.86464400297E+02 0.  0.
         13    1    3    3    0    0  0.77264036551E+01  0.29220428214E+02  0.47499780241E+02  0.56300620436E+02  0.00000000000E+00 0. -1.
        -13    1    3    3    0    0  0.18318404467E+03  0.42645790083E+03  0.25936220570E+03  0.53168739795E+03  0.00000000000E+00 0.  1.
         22    1    1    2    0    0 -0.19091044832E+03 -0.45567832904E+03  0.11680078693E+04  0.12682002687E+04  0.00000000000E+00 0. -1.
<mgrwt>
<rscale>  0 0.11270288E+04</rscale>
<asrwt>0</asrwt>
<pdfrwt beam="1">  1        2 0.25623523E+00 0.11270288E+04</pdfrwt>
<pdfrwt beam="2">  1       -2 0.29332188E-01 0.11270288E+04</pdfrwt>
<totfact> 0.10863597E+02</totfact>
</mgrwt>
</event>
<event>
 6    1  0.1885829E-005  0.1768771E+04  0.7818608E-02  0.8723085E-01
          2   -1    0    0  501    0  0.00000000000E+00  0.00000000000E+00  0.13790394845E+04  0.13790394845E+04  0.00000000000E+00 0. -1.
         -2   -1    0    0    0  501 -0.00000000000E+00 -0.00000000000E+00 -0.56716125924E+03  0.56716125924E+03  0.00000000000E+00 0.  1.
         23    2    1    2    0    0  0.24783887558E+02  0.17346408309E+03  0.13583147211E+04  0.13723567987E+04  0.87408649908E+02 0.  0.
         11    1    3    3    0    0 -0.92827297685E+01  0.11861729540E+03  0.62638288894E+03  0.63758274396E+03  0.00000000000E+00 0. -1.
        -11    1    3    3    0    0  0.34066617327E+02  0.54846787689E+02  0.73193183218E+03  0.73477405472E+03  0.00000000000E+00 0.  1.
         22    1    1    2    0    0 -0.24783887558E+02 -0.17346408309E+03 -0.54643649589E+03  0.57384394503E+03  0.00000000000E+00 0.  1.
<mgrwt>
<rscale>  0 0.17687711E+04</rscale>
<asrwt>0</asrwt>
<pdfrwt beam="1">  1        2 0.21215992E+00 0.17687711E+04</pdfrwt>
<pdfrwt beam="2">  1       -2 0.87255579E-01 0.17687711E+04</pdfrwt>
<totfact> 0.15980274E+01</totfact>
</mgrwt>
</event>
<event>
 6    1  0.1885829E-005  0.1719828E+04  0.7818608E-02  0.8750136E-01
         -2   -1    0    0    0  501 -0.00000000000E+00  0.00000000000E+00  0.10733657257E+04  0.10733657257E+04  0.00000000000E+00 0.  1.
          2   -1    0    0  501    0  0.00000000000E+00 -0.00000000000E+00 -0.68890990402E+03  0.68890990402E+03  0.00000000000E+00 0. -1.
         23    2    1    2    0    0 -0.30506511799E+03  0.49227547544E+03 -0.45521844313E+03  0.74224977665E+03  0.91164850890E+02 0.  0.
         11    1    3    3    0    0 -0.17715219114E+03  0.27082374113E+03 -0.31008815729E+03  0.44819980240E+03  0.00000000000E+00 0. -1.
        -11    1    3    3    0    0 -0.12791292685E+03  0.22145173431E+03 -0.14513028584E+03  0.29404997425E+03  0.00000000000E+00 0.  1.
         22    1    1    2    0    0  0.30506511799E+03 -0.49227547544E+03  0.83967426477E+03  0.10200258530E+04  0.00000000000E+00 0.  1.
<mgrwt>
<rscale>  0 0.17198282E+04</rscale>
<asrwt>0</asrwt>
<pdfrwt beam="1">  1        2 0.10598614E+00 0.17198282E+04</pdfrwt>
<pdfrwt beam="2">  1       -2 0.16513319E+00 0.17198282E+04</pdfrwt>
<totfact> 0.91695406E+00</totfact>
</mgrwt>
</event>
<event>
 6    1  0.1885829E-005  0.3710762E+04  0.7818608E-02  0.8065581E-01
          2   -1    0    0  501    0  0.00000000000E+00  0.00000000000E+00  0.21537714393E+04  0.21537714393E+04  0.00000000000E+00 0. -1.
         -2   -1    0    0    0  501 -0.00000000000E+00 -0.00000000000E+00 -0.15983302777E+04  0.15983302777E+04  0.00000000000E+00 0.  1.
         23    2    1    2    0    0 -0.12579396909E+04 -0.13287118883E+04 -0.26350905818E+02  0.18321096447E+04  0.89687411404E+02 0.  0.
         13    1    3    3    0    0 -0.11357451645E+03 -0.15917509546E+03 -0.89456939378E+01  0.19574449479E+03  0.00000000000E+00 0. -1.
        -13    1    3    3    0    0 -0.11443651744E+04 -0.11695367929E+04 -0.17405211880E+02  0.16363651499E+04  0.00000000000E+00 0.  1.
         22    1    1    2    0    0  0.12579396909E+04  0.13287118883E+04  0.58179206746E+03  0.19199920724E+04  0.00000000000E+00 0.  1.
<mgrwt>
<rscale>  0 0.37107617E+04</rscale>
<asrwt>0</asrwt>
<pdfrwt beam="1">  1        2 0.33134945E+00 0.37107617E+04</pdfrwt>
<pdfrwt beam="2">  1       -2 0.24589697E+00 0.37107617E+04</pdfrwt>
<totfact> 0.30161995E-01</totfact>
</mgrwt>
</event>
<event>
 6    1  0.1885829E-005  0.1652680E+04  0.7818608E-02  0.8788823E-01
         -2   -1    0    0    0  501 -0.00000000000E+00  0.00000000000E+00  0.62172271943E+03  0.62172271943E+03  0.00000000000E+00 0.  1.
          2   -1    0    0  501    0  0.00000000000E+00 -0.00000000000E+00 -0.10982993023E+04  0.10982993023E+04  0.00000000000E+00 0. -1.
         23    2    1    2    0    0 -0.28063729826E+03  0.67129179170E+03 -0.64076059145E+03  0.97413573586E+03  0.94743514467E+02 0.  0.
         11    1    3    3    0    0 -0.63408641320E+02  0.24747252772E+03 -0.25869365514E+03  0.36357353449E+03  0.00000000000E+00 0. -1.
        -11    1    3    3    0    0 -0.21722865694E+03  0.42381926398E+03 -0.38206693632E+03  0.61056220137E+03  0.00000000000E+00 0.  1.
         22    1    1    2    0    0  0.28063729826E+03 -0.67129179170E+03  0.16418400858E+03  0.74588628587E+03  0.00000000000E+00 0.  1.
<mgrwt>
<rscale>  0 0.16526798E+04</rscale>
<asrwt>0</asrwt>
<pdfrwt beam="1">  1        2 0.16896912E+00 0.16526798E+04</pdfrwt>
<pdfrwt beam="2">  1       -2 0.95649651E-01 0.16526798E+04</pdfrwt>
<totfact> 0.19135280E+01</totfact>
</mgrwt>
</event>
<event>
 6    1  0.1885829E-005  0.2610924E+04  0.7818608E-02  0.8364500E-01
         -2   -1    0    0    0  501 -0.00000000000E+00  0.00000000000E+00  0.68988106480E+03  0.68988106480E+03  0.00000000000E+00 0.  1.
          2   -1    0    0  501    0  0.00000000000E+00 -0.00000000000E+00 -0.24703267843E+04  0.24703267843E+04  0.00000000000E+00 0. -1.
         23    2    1    2    0    0 -0.12091284643E+04 -0.26748444396E+03 -0.39734923674E+03  0.13037339194E+04  0.91083180012E+02 0.  0.
         13    1    3    3    0    0 -0.96722256873E+03 -0.18589254465E+03 -0.28946753486E+03  0.10265802401E+04  0.00000000000E+00 0.  1.
        -13    1    3    3    0    0 -0.24190589559E+03 -0.81591899313E+02 -0.10788170188E+03  0.27715367931E+03  0.00000000000E+00 0. -1.
         22    1    1    2    0    0  0.12091284643E+04  0.26748444396E+03 -0.13830964828E+04  0.18564739297E+04  0.00000000000E+00 0. -1.
<mgrwt>
<rscale>  0 0.26109245E+04</rscale>
<asrwt>0</asrwt>
<pdfrwt beam="1">  1        2 0.38005027E+00 0.26109245E+04</pdfrwt>
<pdfrwt beam="2">  1       -2 0.10613555E+00 0.26109245E+04</pdfrwt>
<totfact> 0.22921592E+00</totfact>
</mgrwt>
</event>
<event>
 6    1  0.1885829E-005  0.4661405E+04  0.7818608E-02  0.7882973E-01
          2   -1    0    0  501    0  0.00000000000E+00  0.00000000000E+00  0.28959654416E+04  0.28959654416E+04  0.00000000000E+00 0. -1.
         -2   -1    0    0    0  501 -0.00000000000E+00 -0.00000000000E+00 -0.18757731903E+04  0.18757731903E+04  0.00000000000E+00 0.  1.
         23    2    1    2    0    0 -0.14601977596E+04 -0.33808053377E+03  0.23362083271E+04  0.27771523950E+04  0.90720080274E+02 0.  0.
         13    1    3    3    0    0 -0.60541547481E+03 -0.16238017176E+03  0.10495712803E+04  0.12224954354E+04  0.00000000000E+00 0. -1.
        -13    1    3    3    0    0 -0.85478228480E+03 -0.17570036201E+03  0.12866370469E+04  0.15546569596E+04  0.00000000000E+00 0.  1.
         22    1    1    2    0    0  0.14601977596E+04  0.33808053377E+03 -0.13160160758E+04  0.19945862369E+04  0.00000000000E+00 0.  1.
<mgrwt>
<rscale>  0 0.46614051E+04</rscale>
<asrwt>0</asrwt>
<pdfrwt beam="1">  1        2 0.44553314E+00 0.46614051E+04</pdfrwt>
<pdfrwt beam="2">  1       -2 0.28858049E+00 0.46614051E+04</pdfrwt>
<totfact> 0.56390743E-02</totfact>
</mgrwt>
</event>
<event>
 6    1  0.2695008E-005  0.2264616E+04  0.7818608E-02  0.8492005E-01
          2   -1    0    0  501    0  0.00000000000E+00  0.00000000000E+00  0.16402665004E+04  0.16402665004E+04  0.00000000000E+00 0. -1.
         -2   -1    0    0    0  501 -0.00000000000E+00 -0.00000000000E+00 -0.78165405801E+03  0.78165405801E+03  0.00000000000E+00 0.  1.
         23    2    1    2    0    0  0.36603346892E+02 -0.89229750282E+03 -0.31113827575E+03  0.95023737879E+03  0.92786911129E+02 0.  0.
         13    1    3    3    0    0  0.13801823058E+02 -0.48457853170E+03 -0.21723851929E+03  0.53122445159E+03  0.00000000000E+00 0. -1.
        -13    1    3    3    0    0  0.22801523834E+02 -0.40771897112E+03 -0.93899756463E+02  0.41901292720E+03  0.00000000000E+00 0.  1.
         22    1    1    2    0    0 -0.36603346892E+02  0.89229750282E+03  0.11697507181E+04  0.14716831796E+04  0.00000000000E+00 0. -1.
<mgrwt>
<rscale>  0 0.22646156E+04</rscale>
<asrwt>0</asrwt>
<pdfrwt beam="1">  1        2 0.25234869E+00 0.22646156E+04</pdfrwt>
<pdfrwt beam="2">  1       -2 0.12025447E+00 0.22646156E+04</pdfrwt>
<totfact> 0.50859666E+00</totfact>
</mgrwt>
</event>
<event>
 6    1  0.1885829E-005  0.1343773E+04  0.7818608E-02  0.8995555E-01
          2   -1    0    0  501    0  0.00000000000E+00  0.00000000000E+00  0.23958000112E+04  0.23958000112E+04  0.00000000000E+00 0. -1.
         -2   -1    0    0    0  501 -0.00000000000E+00 -0.00000000000E+00 -0.18842623299E+03  0.18842623299E+03  0.00000000000E+00 0.  1.
         23    2    1    2    0    0  0.23077839752E+03  0.53340086823E+03  0.47145892885E+03  0.75360462320E+03  0.88720074029E+02 0.  0.
         11    1    3    3    0    0  0.19454559302E+03  0.36743659320E+03  0.36406512872E+03  0.55263103038E+03  0.00000000000E+00 0. -1.
        -11    1    3    3    0    0  0.36232804496E+02  0.16596427503E+03  0.10739380013E+03  0.20097359282E+03  0.00000000000E+00 0.  1.
         22    1    1    2    0    0 -0.23077839752E+03 -0.53340086823E+03  0.17359148494E+04  0.18306216210E+04  0.00000000000E+00 0. -1.
<mgrwt>
<rscale>  0 0.13437732E+04</rscale>
<asrwt>0</asrwt>
<pdfrwt beam="1">  1        2 0.36858459E+00 0.13437732E+04</pdfrwt>
<pdfrwt beam="2">  1       -2 0.28988653E-01 0.13437732E+04</pdfrwt>
<totfact> 0.42843637E+01</totfact>
</mgrwt>
</event>
<event>
 6    1  0.1885829E-005  0.1983904E+04  0.7818608E-02  0.8614183E-01
         -2   -1    0    0    0  501 -0.00000000000E+00  0.00000000000E+00  0.42474206695E+03  0.42474206695E+03  0.00000000000E+00 0. -1.
          2   -1    0    0  501    0  0.00000000000E+00 -0.00000000000E+00 -0.23166261832E+04  0.23166261832E+04  0.00000000000E+00 0.  1.
         23    2    1    2    0    0  0.43617839048E+03 -0.88172718191E+03 -0.11003893450E+04  0.14787683988E+04  0.90580655602E+02 0.  0.
         11    1    3    3    0    0  0.34941976260E+03 -0.70993150639E+03 -0.82842547930E+03  0.11455940332E+04  0.00000000000E+00 0.  1.
        -11    1    3    3    0    0  0.86758627885E+02 -0.17179567552E+03 -0.27196386570E+03  0.33317436559E+03  0.00000000000E+00 0. -1.
         22    1    1    2    0    0 -0.43617839048E+03  0.88172718191E+03 -0.79149477126E+03  0.12625998513E+04  0.00000000000E+00 0. -1.
<mgrwt>
<rscale>  0 0.19839038E+04</rscale>
<asrwt>0</asrwt>
<pdfrwt beam="1">  1        2 0.35640402E+00 0.19839038E+04</pdfrwt>
<pdfrwt beam="2">  1       -2 0.65344934E-01 0.19839038E+04</pdfrwt>
<totfact> 0.89089642E+00</totfact>
</mgrwt>
</event>
<event>
 6    1  0.1885829E-005  0.8551641E+03  0.7818608E-02  0.9483432E-01
         -2   -1    0    0    0  501 -0.00000000000E+00  0.00000000000E+00  0.33397622021E+03  0.33397622021E+03  0.00000000000E+00 0.  1.
          2   -1    0    0  501    0  0.00000000000E+00 -0.00000000000E+00 -0.54742347522E+03  0.54742347522E+03  0.00000000000E+00 0. -1.
         23    2    1    2    0    0 -0.81776483325E+02  0.12760299293E+02 -0.53513098185E+03  0.54923913399E+03  0.91914308468E+02 0.  0.
         11    1    3    3    0    0 -0.29814099856E+02  0.29050468799E+02 -0.74006971906E+02  0.84910789529E+02  0.00000000000E+00 0. -1.
        -11    1    3    3    0    0 -0.51962383469E+02 -0.16290169506E+02 -0.46112400994E+03  0.46432834446E+03  0.00000000000E+00 0.  1.
         22    1    1    2    0    0  0.81776483325E+02 -0.12760299293E+02  0.32168372684E+03  0.33216056144E+03  0.00000000000E+00 0.  1.
<mgrwt>
<rscale>  0 0.85516413E+03</rscale>
<asrwt>0</asrwt>
<pdfrwt beam="1">  1        2 0.84218995E-01 0.85516413E+03</pdfrwt>
<pdfrwt beam="2">  1       -2 0.51380957E-01 0.85516413E+03</pdfrwt>
<totfact> 0.19916757E+02</totfact>
</mgrwt>
</event>
<event>
 6    1  0.2631031E-005  0.1693514E+04  0.7818608E-02  0.8765072E-01
         -2   -1    0    0    0  501 -0.00000000000E+00  0.00000000000E+00  0.56863772268E+03  0.56863772268E+03  0.00000000000E+00 0.  1.
          2   -1    0    0  501    0  0.00000000000E+00 -0.00000000000E+00 -0.12609040424E+04  0.12609040424E+04  0.00000000000E+00 0. -1.
         23    2    1    2    0    0 -0.22403557159E+03  0.41988989470E+02 -0.12247753273E+04  0.12503001439E+04  0.10592844240E+03 0.  0.
         11    1    3    3    0    0 -0.87548647866E+02  0.13265355521E+02 -0.24228185067E+03  0.25795586941E+03  0.00000000000E+00 0. -1.
        -11    1    3    3    0    0 -0.13648692372E+03  0.28723633949E+02 -0.98249347665E+03  0.99234427451E+03  0.00000000000E+00 0.  1.
         22    1    1    2    0    0  0.22403557159E+03 -0.41988989470E+02  0.53250900757E+03  0.57924162118E+03  0.00000000000E+00 0.  1.
<mgrwt>
<rscale>  0 0.16935142E+04</rscale>
<asrwt>0</asrwt>
<pdfrwt beam="1">  1        2 0.19398524E+00 0.16935142E+04</pdfrwt>
<pdfrwt beam="2">  1       -2 0.87482727E-01 0.16935142E+04</pdfrwt>
<totfact> 0.18719966E+01</totfact>
</mgrwt>
</event>
<event>
 6    1  0.1885829E-005  0.2381172E+04  0.7818608E-02  0.8446586E-01
         -2   -1    0    0    0  501 -0.00000000000E+00  0.00000000000E+00  0.19813442437E+04  0.19813442437E+04  0.00000000000E+00 0.  1.
          2   -1    0    0  501    0  0.00000000000E+00 -0.00000000000E+00 -0.71542099450E+03  0.71542099450E+03  0.00000000000E+00 0. -1.
         23    2    1    2    0    0 -0.34581317427E+03 -0.79741485094E+03 -0.28459377297E+03  0.91925005345E+03  0.92573479803E+02 0.  0.
         11    1    3    3    0    0 -0.63842941034E+02 -0.24928859561E+03 -0.95757719492E+02  0.27457287896E+03  0.00000000000E+00 0. -1.
        -11    1    3    3    0    0 -0.28197023323E+03 -0.54812625533E+03 -0.18883605347E+03  0.64467717449E+03  0.00000000000E+00 0.  1.
         22    1    1    2    0    0  0.34581317427E+03  0.79741485094E+03  0.15505170222E+04  0.17775151848E+04  0.00000000000E+00 0.  1.
<mgrwt>
<rscale>  0 0.23811722E+04</rscale>
<asrwt>0</asrwt>
<pdfrwt beam="1">  1        2 0.11006477E+00 0.23811722E+04</pdfrwt>
<pdfrwt beam="2">  1       -2 0.30482219E+00 0.23811722E+04</pdfrwt>
<totfact> 0.10660705E+00</totfact>
</mgrwt>
</event>
<event>
 6    1  0.2108951E-005  0.2035111E+04  0.7818608E-02  0.8590379E-01
         -2   -1    0    0    0  501 -0.00000000000E+00  0.00000000000E+00  0.68559804066E+03  0.68559804066E+03  0.00000000000E+00 0.  1.
          2   -1    0    0  501    0  0.00000000000E+00 -0.00000000000E+00 -0.15102422630E+04  0.15102422630E+04  0.00000000000E+00 0. -1.
         23    2    1    2    0    0 -0.71538367955E+03 -0.53221402490E+03  0.11137052513E+03  0.90311094885E+03  0.90445645554E+02 0.  0.
         11    1    3    3    0    0 -0.50166501163E+03 -0.33604298386E+03  0.10542005323E+03  0.61294865896E+03  0.00000000000E+00 0.  1.
        -11    1    3    3    0    0 -0.21371866792E+03 -0.19617104104E+03  0.59504719008E+01  0.29016228990E+03  0.00000000000E+00 0. -1.
         22    1    1    2    0    0  0.71538367955E+03  0.53221402490E+03 -0.93601474746E+03  0.12927293548E+04  0.00000000000E+00 0. -1.
<mgrwt>
<rscale>  0 0.20351109E+04</rscale>
<asrwt>0</asrwt>
<pdfrwt beam="1">  1        2 0.23234496E+00 0.20351109E+04</pdfrwt>
<pdfrwt beam="2">  1       -2 0.10547662E+00 0.20351109E+04</pdfrwt>
<totfact> 0.84387706E+00</totfact>
</mgrwt>
</event>
<event>
 6    1  0.1885829E-005  0.4249143E+04  0.7818608E-02  0.7956090E-01
          2   -1    0    0  501    0  0.00000000000E+00  0.00000000000E+00  0.17543696094E+04  0.17543696094E+04  0.00000000000E+00 0. -1.
         -2   -1    0    0    0  501 -0.00000000000E+00 -0.00000000000E+00 -0.25728918815E+04  0.25728918815E+04  0.00000000000E+00 0.  1.
         23    2    1    2    0    0  0.33591825841E+03  0.12957523587E+04  0.12694466215E+04  0.18470539690E+04  0.91095489149E+02 0.  0.
         13    1    3    3    0    0  0.24601474115E+03  0.82884271428E+03  0.86191446759E+03  0.12208194163E+04  0.00000000000E+00 0. -1.
        -13    1    3    3    0    0  0.89903517267E+02  0.46690964440E+03  0.40753215386E+03  0.62623455261E+03  0.00000000000E+00 0.  1.
         22    1    1    2    0    0 -0.33591825841E+03 -0.12957523587E+04 -0.20879688936E+04  0.24802075220E+04  0.00000000000E+00 0.  1.
<mgrwt>
<rscale>  0 0.42491427E+04</rscale>
<asrwt>0</asrwt>
<pdfrwt beam="1">  1        2 0.26990302E+00 0.42491427E+04</pdfrwt>
<pdfrwt beam="2">  1       -2 0.39582952E+00 0.42491427E+04</pdfrwt>
<totfact> 0.55884316E-02</totfact>
</mgrwt>
</event>
<event>
 6    1  0.1885829E-005  0.1603836E+04  0.7818608E-02  0.8818195E-01
          1   -1    0    0  501    0  0.00000000000E+00  0.00000000000E+00  0.14261004592E+04  0.14261004592E+04  0.00000000000E+00 0.  1.
         -1   -1    0    0    0  501 -0.00000000000E+00 -0.00000000000E+00 -0.45093048825E+03  0.45093048825E+03  0.00000000000E+00 0. -1.
         23    2    1    2    0    0 -0.48596992441E+02 -0.34960552868E+03  0.13284866616E+04  0.13776129088E+04  0.91404721349E+02 0.  0.
         13    1    3    3    0    0  0.85183639473E+01 -0.23024969962E+03  0.90939243511E+03  0.93812690386E+03  0.00000000000E+00 0.  1.
        -13    1    3    3    0    0 -0.57115356388E+02 -0.11935582906E+03  0.41909422649E+03  0.43948600495E+03  0.00000000000E+00 0. -1.
         22    1    1    2    0    0  0.48596992441E+02  0.34960552868E+03 -0.35331669070E+03  0.49941803860E+03  0.00000000000E+00 0. -1.
<mgrwt>
<rscale>  0 0.16038356E+04</rscale>
<asrwt>0</asrwt>
<pdfrwt beam="1">  1        1 0.21940007E+00 0.16038356E+04</pdfrwt>
<pdfrwt beam="2">  1       -1 0.69373922E-01 0.16038356E+04</pdfrwt>
<totfact> 0.14848395E+01</totfact>
</mgrwt>
</event>
<event>
 6    1  0.1885829E-005  0.3091969E+04  0.7818608E-02  0.8217945E-01
         -2   -1    0    0    0  501 -0.00000000000E+00  0.00000000000E+00  0.33677716497E+04  0.33677716497E+04  0.00000000000E+00 0.  1.
          2   -1    0    0  501    0  0.00000000000E+00 -0.00000000000E+00 -0.70968828994E+03  0.70968828994E+03  0.00000000000E+00 0. -1.
         23    2    1    2    0    0 -0.12447910087E+04 -0.81146487225E+03  0.18868540750E+04  0.24033110502E+04  0.87782739552E+02 0.  0.
         13    1    3    3    0    0 -0.81511607395E+03 -0.48305082028E+03  0.11817701542E+04  0.15147055841E+04  0.00000000000E+00 0.  1.
        -13    1    3    3    0    0 -0.42967493480E+03 -0.32841405197E+03  0.70508392081E+03  0.88860546617E+03  0.00000000000E+00 0. -1.
         22    1    1    2    0    0  0.12447910087E+04  0.81146487225E+03  0.77122928476E+03  0.16741488894E+04  0.00000000000E+00 0. -1.
<mgrwt>
<rscale>  0 0.30919690E+04</rscale>
<asrwt>0</asrwt>
<pdfrwt beam="1">  1        2 0.10918282E+00 0.30919690E+04</pdfrwt>
<pdfrwt beam="2">  1       -2 0.51811871E+00 0.30919690E+04</pdfrwt>
<totfact> 0.43655485E-02</totfact>
</mgrwt>
</event>
<event>
 6    1  0.1885829E-005  0.2220101E+04  0.7818608E-02  0.8510108E-01
          2   -1    0    0  501    0  0.00000000000E+00  0.00000000000E+00  0.10289697466E+04  0.10289697466E+04  0.00000000000E+00 0. -1.
         -2   -1    0    0    0  501 -0.00000000000E+00 -0.00000000000E+00 -0.11975197570E+04  0.11975197570E+04  0.00000000000E+00 0.  1.
         23    2    1    2    0    0  0.12224561125E+03  0.66828327145E+03  0.79363403207E+03  0.10486335482E+04  0.90723872822E+02 0.  0.
         11    1    3    3    0    0  0.85148644120E+02  0.28426996567E+03  0.29808558716E+03  0.42061231824E+03  0.00000000000E+00 0.  1.
        -11    1    3    3    0    0  0.37096967126E+02  0.38401330577E+03  0.49554844491E+03  0.62802122992E+03  0.00000000000E+00 0. -1.
         22    1    1    2    0    0 -0.12224561125E+03 -0.66828327145E+03 -0.96218404244E+03  0.11778559555E+04  0.00000000000E+00 0.  1.
<mgrwt>
<rscale>  0 0.22201005E+04</rscale>
<asrwt>0</asrwt>
<pdfrwt beam="1">  1        2 0.15830304E+00 0.22201005E+04</pdfrwt>
<pdfrwt beam="2">  1       -2 0.18423381E+00 0.22201005E+04</pdfrwt>
<totfact> 0.37344141E+00</totfact>
</mgrwt>
</event>
<event>
 6    1  0.1885829E-005  0.1514048E+04  0.7818608E-02  0.8875165E-01
         -1   -1    0    0    0  501 -0.00000000000E+00  0.00000000000E+00  0.44293349213E+03  0.44293349213E+03  0.00000000000E+00 0.  1.
          1   -1    0    0  501    0  0.00000000000E+00 -0.00000000000E+00 -0.12938399301E+04  0.12938399301E+04  0.00000000000E+00 0. -1.
         23    2    1    2    0    0 -0.40439316487E+03 -0.14673101778E+03  0.28390845340E+03  0.52315541766E+03  0.89575430449E+02 0.  0.
         11    1    3    3    0    0 -0.37343764813E+03 -0.15780290987E+03  0.27193914712E+03  0.48816834713E+03  0.00000000000E+00 0.  1.
        -11    1    3    3    0    0 -0.30955516738E+02  0.11071892093E+02  0.11969306281E+02  0.34987070525E+02  0.00000000000E+00 0. -1.
         22    1    1    2    0    0  0.40439316487E+03  0.14673101778E+03 -0.11348148914E+04  0.12136180046E+04  0.00000000000E+00 0. -1.
<mgrwt>
<rscale>  0 0.15140476E+04</rscale>
<asrwt>0</asrwt>
<pdfrwt beam="1">  1        1 0.19905230E+00 0.15140476E+04</pdfrwt>
<pdfrwt beam="2">  1       -1 0.68143614E-01 0.15140476E+04</pdfrwt>
<totfact> 0.19249622E+01</totfact>
</mgrwt>
</event>
<event>
 6    1  0.1885829E-005  0.1443895E+04  0.7818608E-02  0.8922644E-01
          4   -1    0    0  501    0  0.00000000000E+00  0.00000000000E+00  0.23420429900E+04  0.23420429900E+04  0.00000000000E+00 0. -1.
         -4   -1    0    0    0  501 -0.00000000000E+00 -0.00000000000E+00 -0.22254416925E+03  0.22254416925E+03  0.00000000000E+00 0.  1.
         23    2    1    2    0    0 -0.22968088870E+03 -0.39465954907E+03  0.77286902256E+02  0.47194791888E+03  0.90841084126E+02 0.  0.
         13    1    3    3    0    0 -0.72493930658E+02 -0.18699757698E+03  0.66445104169E+02  0.21127805292E+03  0.00000000000E+00 0. -1.
        -13    1    3    3    0    0 -0.15718695804E+03 -0.20766197209E+03  0.10841798087E+02  0.26066986596E+03  0.00000000000E+00 0.  1.
         22    1    1    2    0    0  0.22968088870E+03  0.39465954907E+03  0.20422119185E+04  0.20926392404E+04  0.00000000000E+00 0. -1.
<mgrwt>
<rscale>  0 0.14438947E+04</rscale>
<asrwt>0</asrwt>
<pdfrwt beam="1">  1        4 0.36031429E+00 0.14438947E+04</pdfrwt>
<pdfrwt beam="2">  1       -4 0.34237566E-01 0.14438947E+04</pdfrwt>
<totfact> 0.20742643E-01</totfact>
</mgrwt>
</event>
<event>
 6    1  0.1885829E-005  0.2057270E+04  0.7818608E-02  0.8580303E-01
          2   -1    0    0  501    0  0.00000000000E+00  0.00000000000E+00  0.25874441733E+04  0.25874441733E+04  0.00000000000E+00 0. -1.
         -2   -1    0    0    0  501 -0.00000000000E+00 -0.00000000000E+00 -0.40893253401E+03  0.40893253401E+03  0.00000000000E+00 0.  1.
         23    2    1    2    0    0  0.46362816289E+03  0.59212420438E+03  0.21092479238E+04  0.22411551444E+04  0.91035325835E+02 0.  0.
         11    1    3    3    0    0  0.25872119764E+03  0.34848705325E+03  0.10856329639E+04  0.11691786932E+04  0.00000000000E+00 0. -1.
        -11    1    3    3    0    0  0.20490696526E+03  0.24363715113E+03  0.10236149599E+04  0.10719764512E+04  0.00000000000E+00 0.  1.
         22    1    1    2    0    0 -0.46362816289E+03 -0.59212420438E+03  0.69263715549E+02  0.75522156294E+03  0.00000000000E+00 0.  1.
<mgrwt>
<rscale>  0 0.20572701E+04</rscale>
<asrwt>0</asrwt>
<pdfrwt beam="1">  1        2 0.39806832E+00 0.20572701E+04</pdfrwt>
<pdfrwt beam="2">  1       -2 0.62912699E-01 0.20572701E+04</pdfrwt>
<totfact> 0.67064307E+00</totfact>
</mgrwt>
</event>
<event>
 6    1  0.1885829E-005  0.2354778E+04  0.7818608E-02  0.8456631E-01
         -2   -1    0    0    0  501 -0.00000000000E+00  0.00000000000E+00  0.13161569421E+04  0.13161569421E+04  0.00000000000E+00 0.  1.
          2   -1    0    0  501    0  0.00000000000E+00 -0.00000000000E+00 -0.10532521101E+04  0.10532521101E+04  0.00000000000E+00 0. -1.
         23    2    1    2    0    0 -0.29849475262E+03  0.11354491885E+04  0.19290175949E+03  0.11932949391E+04  0.91639214969E+02 0.  0.
         11    1    3    3    0    0 -0.97176584451E+02  0.22471036541E+03  0.35497458915E+02  0.24738251045E+03  0.00000000000E+00 0.  1.
        -11    1    3    3    0    0 -0.20131816817E+03  0.91073882312E+03  0.15740430057E+03  0.94591242862E+03  0.00000000000E+00 0. -1.
         22    1    1    2    0    0  0.29849475262E+03 -0.11354491885E+04  0.70003072554E+02  0.11761141132E+04  0.00000000000E+00 0.  1.
<mgrwt>
<rscale>  0 0.23547782E+04</rscale>
<asrwt>0</asrwt>
<pdfrwt beam="1">  1        2 0.16203879E+00 0.23547782E+04</pdfrwt>
<pdfrwt beam="2">  1       -2 0.20248568E+00 0.23547782E+04</pdfrwt>
<totfact> 0.26933401E+00</totfact>
</mgrwt>
</event>
<event>
 6    1  0.1885829E-005  0.4393225E+04  0.7818608E-02  0.7929601E-01
         -2   -1    0    0    0  501 -0.00000000000E+00  0.00000000000E+00  0.22744568611E+04  0.22744568611E+04  0.00000000000E+00 0.  1.
          2   -1    0    0  501    0  0.00000000000E+00 -0.00000000000E+00 -0.21214324558E+04  0.21214324558E+04  0.00000000000E+00 0. -1.
         23    2    1    2    0    0 -0.90440865715E+03  0.17127037377E+04  0.11113980299E+04  0.22349198316E+04  0.91389062655E+02 0.  0.
         11    1    3    3    0    0 -0.89952662209E+02  0.20021842924E+03  0.97358199166E+02  0.24011980299E+03  0.00000000000E+00 0. -1.
        -11    1    3    3    0    0 -0.81445599495E+03  0.15124853084E+04  0.10140398307E+04  0.19948000286E+04  0.00000000000E+00 0.  1.
         22    1    1    2    0    0  0.90440865715E+03 -0.17127037377E+04 -0.95837362450E+03  0.21609694853E+04  0.00000000000E+00 0. -1.
<mgrwt>
<rscale>  0 0.43932251E+04</rscale>
<asrwt>0</asrwt>
<pdfrwt beam="1">  1        2 0.32637423E+00 0.43932251E+04</pdfrwt>
<pdfrwt beam="2">  1       -2 0.34991644E+00 0.43932251E+04</pdfrwt>
<totfact> 0.68042532E-02</totfact>
</mgrwt>
</event>
<event>
 6    1  0.1885829E-005  0.3320083E+04  0.7818608E-02  0.8157804E-01
          1   -1    0    0  501    0  0.00000000000E+00  0.00000000000E+00  0.11000881723E+04  0.11000881723E+04  0.00000000000E+00 0. -1.
         -1   -1    0    0    0  501 -0.00000000000E+00 -0.00000000000E+00 -0.25050152938E+04  0.25050152938E+04  0.00000000000E+00 0.  1.
         23    2    1    2    0    0 -0.11427210533E+04 -0.63154002689E+03  0.40800998106E+03  0.13709604204E+04  0.91684886989E+02 0.  0.
         11    1    3    3    0    0 -0.27952389050E+03 -0.12429530234E+03  0.65980959835E+02  0.31294794232E+03  0.00000000000E+00 0. -1.
        -11    1    3    3    0    0 -0.86319716275E+03 -0.50724472455E+03  0.34202902122E+03  0.10580124781E+04  0.00000000000E+00 0.  1.
         22    1    1    2    0    0  0.11427210533E+04  0.63154002689E+03 -0.18129371026E+04  0.22341430458E+04  0.00000000000E+00 0.  1.
<mgrwt>
<rscale>  0 0.33200829E+04</rscale>
<asrwt>0</asrwt>
<pdfrwt beam="1">  1        1 0.16924434E+00 0.33200829E+04</pdfrwt>
<pdfrwt beam="2">  1       -1 0.38538697E+00 0.33200829E+04</pdfrwt>
<totfact> 0.94379848E-02</totfact>
</mgrwt>
</event>
<event>
 6    1  0.1885829E-005  0.2984899E+04  0.7818608E-02  0.8248056E-01
         -2   -1    0    0    0  501 -0.00000000000E+00  0.00000000000E+00  0.84114315244E+03  0.84114315244E+03  0.00000000000E+00 0.  1.
          2   -1    0    0  501    0  0.00000000000E+00 -0.00000000000E+00 -0.26480696949E+04  0.26480696949E+04  0.00000000000E+00 0. -1.
         23    2    1    2    0    0 -0.27158386899E+02  0.76387367808E+03  0.59224463057E+03  0.97122498169E+03  0.91014771255E+02 0.  0.
         11    1    3    3    0    0 -0.39303275091E+02  0.47736012265E+03  0.41761121253E+03  0.63546562374E+03  0.00000000000E+00 0. -1.
        -11    1    3    3    0    0  0.12144888193E+02  0.28651355544E+03  0.17463341803E+03  0.33575935795E+03  0.00000000000E+00 0.  1.
         22    1    1    2    0    0  0.27158386899E+02 -0.76387367808E+03 -0.23991711730E+04  0.25179878656E+04  0.00000000000E+00 0. -1.
<mgrwt>
<rscale>  0 0.29848991E+04</rscale>
<asrwt>0</asrwt>
<pdfrwt beam="1">  1        2 0.40739533E+00 0.29848991E+04</pdfrwt>
<pdfrwt beam="2">  1       -2 0.12940664E+00 0.29848991E+04</pdfrwt>
<totfact> 0.10732278E+00</totfact>
</mgrwt>
</event>
<event>
 6    1  0.1885829E-005  0.1753748E+04  0.7818608E-02  0.8731290E-01
         -2   -1    0    0    0  501 -0.00000000000E+00  0.00000000000E+00  0.86480265519E+03  0.86480265519E+03  0.00000000000E+00 0.  1.
          2   -1    0    0  501    0  0.00000000000E+00 -0.00000000000E+00 -0.88911397637E+03  0.88911397637E+03  0.00000000000E+00 0. -1.
         23    2    1    2    0    0 -0.75557906688E+03 -0.19372345811E+03  0.38318218516E+03  0.87387148372E+03  0.91620295295E+02 0.  0.
         13    1    3    3    0    0 -0.59093459343E+03 -0.18984497901E+03  0.30106939603E+03  0.68984606326E+03  0.00000000000E+00 0. -1.
        -13    1    3    3    0    0 -0.16464447345E+03 -0.38784790944E+01  0.82112789123E+02  0.18402542046E+03  0.00000000000E+00 0.  1.
         22    1    1    2    0    0  0.75557906688E+03  0.19372345811E+03 -0.40749350634E+03  0.88004514784E+03  0.00000000000E+00 0. -1.
<mgrwt>
<rscale>  0 0.17537481E+04</rscale>
<asrwt>0</asrwt>
<pdfrwt beam="1">  1        2 0.13678677E+00 0.17537481E+04</pdfrwt>
<pdfrwt beam="2">  1       -2 0.13304656E+00 0.17537481E+04</pdfrwt>
<totfact> 0.11570571E+01</totfact>
</mgrwt>
</event>
<event>
 6    1  0.1885829E-005  0.3120557E+04  0.7818608E-02  0.8210119E-01
         -1   -1    0    0    0  501 -0.00000000000E+00  0.00000000000E+00  0.76660588519E+03  0.76660588519E+03  0.00000000000E+00 0.  1.
          1   -1    0    0  501    0  0.00000000000E+00 -0.00000000000E+00 -0.31756469266E+04  0.31756469266E+04  0.00000000000E+00 0. -1.
         23    2    1    2    0    0  0.73147997303E+03 -0.31638936003E+03  0.48705174657E+03  0.93850205404E+03  0.91659825015E+02 0.  0.
         11    1    3    3    0    0  0.65853796089E+03 -0.30507996322E+03  0.41862111476E+03  0.83784823662E+03  0.00000000000E+00 0. -1.
        -11    1    3    3    0    0  0.72942012139E+02 -0.11309396815E+02  0.68430631810E+02  0.10065381742E+03  0.00000000000E+00 0.  1.
         22    1    1    2    0    0 -0.73147997303E+03  0.31638936003E+03 -0.28960927880E+04  0.30037507577E+04  0.00000000000E+00 0. -1.
<mgrwt>
<rscale>  0 0.31205574E+04</rscale>
<asrwt>0</asrwt>
<pdfrwt beam="1">  1        1 0.48856107E+00 0.31205574E+04</pdfrwt>
<pdfrwt beam="2">  1       -1 0.11793937E+00 0.31205574E+04</pdfrwt>
<totfact> 0.24095002E-01</totfact>
</mgrwt>
</event>
<event>
 6    1  0.1885829E-005  0.5452457E+03  0.7818608E-02  0.1002600E+00
          2   -1    0    0  501    0  0.00000000000E+00  0.00000000000E+00  0.37088937962E+04  0.37088937962E+04  0.00000000000E+00 0. -1.
         -2   -1    0    0    0  501 -0.00000000000E+00 -0.00000000000E+00 -0.20039185811E+02  0.20039185811E+02  0.00000000000E+00 0.  1.
         23    2    1    2    0    0 -0.12711944792E+03  0.23002243063E+03  0.21363573261E+04  0.21543481191E+04  0.90130577859E+02 0.  0.
         11    1    3    3    0    0 -0.27048889933E+02  0.13065459414E+03  0.87171169289E+03  0.88186367480E+03  0.00000000000E+00 0.  1.
        -11    1    3    3    0    0 -0.10007055798E+03  0.99367836496E+02  0.12646456332E+04  0.12724844443E+04  0.00000000000E+00 0. -1.
         22    1    1    2    0    0  0.12711944792E+03 -0.23002243063E+03  0.15524972843E+04  0.15745848629E+04  0.00000000000E+00 0.  1.
<mgrwt>
<rscale>  0 0.54524568E+03</rscale>
<asrwt>0</asrwt>
<pdfrwt beam="1">  1        2 0.57059850E+00 0.54524568E+03</pdfrwt>
<pdfrwt beam="2">  1       -2 0.30829546E-02 0.54524568E+03</pdfrwt>
<totfact> 0.27950603E+02</totfact>
</mgrwt>
</event>
<event>
 6    1  0.1885829E-005  0.1772959E+04  0.7818608E-02  0.8720813E-01
         -2   -1    0    0    0  501 -0.00000000000E+00  0.00000000000E+00  0.86384080016E+03  0.86384080016E+03  0.00000000000E+00 0.  1.
          2   -1    0    0  501    0  0.00000000000E+00 -0.00000000000E+00 -0.90971138329E+03  0.90971138329E+03  0.00000000000E+00 0. -1.
         23    2    1    2    0    0  0.82243958735E+02  0.64927353508E+03 -0.61766409303E+03  0.90449061483E+03  0.90962346051E+02 0.  0.
         13    1    3    3    0    0  0.25044586540E+01  0.36029581274E+03 -0.35738229033E+03  0.50748541499E+03  0.00000000000E+00 0. -1.
        -13    1    3    3    0    0  0.79739500081E+02  0.28897772233E+03 -0.26028180270E+03  0.39700519984E+03  0.00000000000E+00 0.  1.
         22    1    1    2    0    0 -0.82243958735E+02 -0.64927353508E+03  0.57179350989E+03  0.86906156862E+03  0.00000000000E+00 0.  1.
<mgrwt>
<rscale>  0 0.17729589E+04</rscale>
<asrwt>0</asrwt>
<pdfrwt beam="1">  1        2 0.13995560E+00 0.17729589E+04</pdfrwt>
<pdfrwt beam="2">  1       -2 0.13289858E+00 0.17729589E+04</pdfrwt>
<totfact> 0.11219443E+01</totfact>
</mgrwt>
</event>
<event>
 6    1  0.1885829E-005  0.3140329E+04  0.7818608E-02  0.8204756E-01
          2   -1    0    0  501    0  0.00000000000E+00  0.00000000000E+00  0.28326552195E+04  0.28326552195E+04  0.00000000000E+00 0. -1.
         -2   -1    0    0    0  501 -0.00000000000E+00 -0.00000000000E+00 -0.87035515173E+03  0.87035515173E+03  0.00000000000E+00 0.  1.
         23    2    1    2    0    0  0.14595782401E+04  0.26664165450E+03  0.15837032223E+04  0.21717357446E+04  0.82787902838E+02 0.  0.
         13    1    3    3    0    0  0.59719893578E+03  0.12517973599E+03  0.70636850959E+03  0.93342005899E+03  0.00000000000E+00 0. -1.
        -13    1    3    3    0    0  0.86237930434E+03  0.14146191850E+03  0.87733471274E+03  0.12383156856E+04  0.00000000000E+00 0.  1.
         22    1    1    2    0    0 -0.14595782401E+04 -0.26664165450E+03  0.37859684546E+03  0.15312746267E+04  0.00000000000E+00 0. -1.
<mgrwt>
<rscale>  0 0.31403287E+04</rscale>
<asrwt>0</asrwt>
<pdfrwt beam="1">  1        2 0.43579311E+00 0.31403287E+04</pdfrwt>
<pdfrwt beam="2">  1       -2 0.13390079E+00 0.31403287E+04</pdfrwt>
<totfact> 0.75270575E-01</totfact>
</mgrwt>
</event>
<event>
 6    1  0.1885829E-005  0.2511347E+04  0.7818608E-02  0.8398954E-01
         -2   -1    0    0    0  501 -0.00000000000E+00  0.00000000000E+00  0.21757273281E+04  0.21757273281E+04  0.00000000000E+00 0.  1.
          2   -1    0    0  501    0  0.00000000000E+00 -0.00000000000E+00 -0.72468473842E+03  0.72468473842E+03  0.00000000000E+00 0. -1.
         23    2    1    2    0    0  0.17427490176E+03 -0.82932006726E+03 -0.34167485912E+03  0.91749014002E+03  0.83083887362E+02 0.  0.
         11    1    3    3    0    0  0.83512678671E+02 -0.22079653425E+03 -0.86349224797E+02  0.25135963411E+03  0.00000000000E+00 0.  1.
        -11    1    3    3    0    0  0.90762223087E+02 -0.60852353302E+03 -0.25532563432E+03  0.66613050592E+03  0.00000000000E+00 0. -1.
         22    1    1    2    0    0 -0.17427490176E+03  0.82932006726E+03  0.17927174487E+04  0.19829219264E+04  0.00000000000E+00 0.  1.
<mgrwt>
<rscale>  0 0.25113474E+04</rscale>
<asrwt>0</asrwt>
<pdfrwt beam="1">  1        2 0.11148996E+00 0.25113474E+04</pdfrwt>
<pdfrwt beam="2">  1       -2 0.33472728E+00 0.25113474E+04</pdfrwt>
<totfact> 0.67783944E-01</totfact>
</mgrwt>
</event>
<event>
 6    1  0.3393206E-005  0.3870683E+04  0.7818608E-02  0.8031154E-01
         -1   -1    0    0    0  501 -0.00000000000E+00  0.00000000000E+00  0.18512302379E+04  0.18512302379E+04  0.00000000000E+00 0.  1.
          1   -1    0    0  501    0  0.00000000000E+00 -0.00000000000E+00 -0.20232741917E+04  0.20232741917E+04  0.00000000000E+00 0. -1.
         23    2    1    2    0    0 -0.17411930879E+04 -0.32915486541E+03 -0.86223117273E+03  0.19728065850E+04  0.91798320325E+02 0.  0.
         13    1    3    3    0    0 -0.11540494168E+04 -0.25949421480E+03 -0.55824491460E+03  0.13079773272E+04  0.00000000000E+00 0.  1.
        -13    1    3    3    0    0 -0.58714367117E+03 -0.69660650613E+02 -0.30398625813E+03  0.66482925776E+03  0.00000000000E+00 0. -1.
         22    1    1    2    0    0  0.17411930879E+04  0.32915486541E+03  0.69018721901E+03  0.19016978446E+04  0.00000000000E+00 0.  1.
<mgrwt>
<rscale>  0 0.38706828E+04</rscale>
<asrwt>0</asrwt>
<pdfrwt beam="1">  1        1 0.31127295E+00 0.38706828E+04</pdfrwt>
<pdfrwt beam="2">  1       -1 0.28480465E+00 0.38706828E+04</pdfrwt>
<totfact> 0.94171848E-02</totfact>
</mgrwt>
</event>
<event>
 6    1  0.1885829E-005  0.4663569E+04  0.7818608E-02  0.7882610E-01
         -2   -1    0    0    0  501 -0.00000000000E+00  0.00000000000E+00  0.13840271459E+04  0.13840271459E+04  0.00000000000E+00 0.  1.
          2   -1    0    0  501    0  0.00000000000E+00 -0.00000000000E+00 -0.39285501332E+04  0.39285501332E+04  0.00000000000E+00 0. -1.
         23    2    1    2    0    0  0.97456757410E+03  0.17677883410E+04  0.54809058555E+02  0.20214703742E+04  0.92091614922E+02 0.  0.
         13    1    3    3    0    0  0.16904118819E+03  0.28686195996E+03  0.41930224637E+02  0.33559328229E+03  0.00000000000E+00 0.  1.
        -13    1    3    3    0    0  0.80552638591E+03  0.14809263811E+04  0.12878833918E+02  0.16858770919E+04  0.00000000000E+00 0. -1.
         22    1    1    2    0    0 -0.97456757410E+03 -0.17677883410E+04 -0.25993320459E+04  0.32911069050E+04  0.00000000000E+00 0. -1.
<mgrwt>
<rscale>  0 0.46635695E+04</rscale>
<asrwt>0</asrwt>
<pdfrwt beam="1">  1        2 0.60439232E+00 0.46635695E+04</pdfrwt>
<pdfrwt beam="2">  1       -2 0.21292726E+00 0.46635695E+04</pdfrwt>
<totfact> 0.31877125E-02</totfact>
</mgrwt>
</event>
<event>
 6    1  0.1885829E-005  0.4397283E+04  0.7818608E-02  0.7928870E-01
         -2   -1    0    0    0  501 -0.00000000000E+00  0.00000000000E+00  0.20949135107E+04  0.20949135107E+04  0.00000000000E+00 0.  1.
          2   -1    0    0  501    0  0.00000000000E+00 -0.00000000000E+00 -0.23075052434E+04  0.23075052434E+04  0.00000000000E+00 0. -1.
         23    2    1    2    0    0  0.18804356944E+04 -0.24750808799E+03 -0.12176784539E+04  0.22559104332E+04  0.95354133704E+02 0.  0.
         13    1    3    3    0    0  0.13771932868E+04 -0.14307243112E+03 -0.86535357318E+03  0.16327791879E+04  0.00000000000E+00 0. -1.
        -13    1    3    3    0    0  0.50324240762E+03 -0.10443565688E+03 -0.35232488074E+03  0.62313124528E+03  0.00000000000E+00 0.  1.
         22    1    1    2    0    0 -0.18804356944E+04  0.24750808799E+03  0.10050867213E+04  0.21465083209E+04  0.00000000000E+00 0.  1.
<mgrwt>
<rscale>  0 0.43972828E+04</rscale>
<asrwt>0</asrwt>
<pdfrwt beam="1">  1        2 0.35500081E+00 0.43972828E+04</pdfrwt>
<pdfrwt beam="2">  1       -2 0.32229439E+00 0.43972828E+04</pdfrwt>
<totfact> 0.79486318E-02</totfact>
</mgrwt>
</event>
<event>
 6    1  0.1885829E-005  0.1079957E+04  0.7818608E-02  0.9224950E-01
         -1   -1    0    0    0  501 -0.00000000000E+00  0.00000000000E+00  0.54533060040E+03  0.54533060040E+03  0.00000000000E+00 0.  1.
          1   -1    0    0  501    0  0.00000000000E+00 -0.00000000000E+00 -0.53467887720E+03  0.53467887720E+03  0.00000000000E+00 0. -1.
         23    2    1    2    0    0 -0.21567234346E+03  0.71966617678E+02  0.49086147939E+03  0.54869491566E+03  0.91800679345E+02 0.  0.
         11    1    3    3    0    0 -0.13573790709E+03 -0.27602941001E+01  0.26988126722E+03  0.30210643330E+03  0.00000000000E+00 0. -1.
        -11    1    3    3    0    0 -0.79934436365E+02  0.74726911778E+02  0.22098021217E+03  0.24658848236E+03  0.00000000000E+00 0.  1.
         22    1    1    2    0    0  0.21567234346E+03 -0.71966617678E+02 -0.48020975619E+03  0.53131456194E+03  0.00000000000E+00 0. -1.
<mgrwt>
<rscale>  0 0.10799569E+04</rscale>
<asrwt>0</asrwt>
<pdfrwt beam="1">  1        1 0.82258289E-01 0.10799569E+04</pdfrwt>
<pdfrwt beam="2">  1       -1 0.83897015E-01 0.10799569E+04</pdfrwt>
<totfact> 0.56760106E+01</totfact>
</mgrwt>
</event>
<event>
 6    1  0.1885829E-005  0.3536049E+04  0.7818608E-02  0.8105300E-01
         -2   -1    0    0    0  501 -0.00000000000E+00  0.00000000000E+00  0.15196045558E+04  0.15196045558E+04  0.00000000000E+00 0.  1.
          2   -1    0    0  501    0  0.00000000000E+00 -0.00000000000E+00 -0.20570548761E+04  0.20570548761E+04  0.00000000000E+00 0. -1.
         23    2    1    2    0    0  0.72408850903E+03 -0.13298247053E+04  0.65209350065E+03  0.16511069351E+04  0.90500065851E+02 0.  0.
         13    1    3    3    0    0  0.36174260832E+03 -0.57079863199E+03  0.28547701291E+03  0.73359792657E+03  0.00000000000E+00 0. -1.
        -13    1    3    3    0    0  0.36234590071E+03 -0.75902607332E+03  0.36661648774E+03  0.91750900858E+03  0.00000000000E+00 0.  1.
         22    1    1    2    0    0 -0.72408850903E+03  0.13298247053E+04 -0.11895438210E+04  0.19255524968E+04  0.00000000000E+00 0. -1.
<mgrwt>
<rscale>  0 0.35360486E+04</rscale>
<asrwt>0</asrwt>
<pdfrwt beam="1">  1        2 0.31646998E+00 0.35360486E+04</pdfrwt>
<pdfrwt beam="2">  1       -2 0.23378532E+00 0.35360486E+04</pdfrwt>
<totfact> 0.41193924E-01</totfact>
</mgrwt>
</event>
<event>
 6    1  0.3235559E-005  0.2355831E+04  0.7818608E-02  0.8456227E-01
          1   -1    0    0  501    0  0.00000000000E+00  0.00000000000E+00  0.14058380729E+04  0.14058380729E+04  0.00000000000E+00 0. -1.
         -1   -1    0    0    0  501 -0.00000000000E+00 -0.00000000000E+00 -0.98694515951E+03  0.98694515951E+03  0.00000000000E+00 0.  1.
         23    2    1    2    0    0 -0.61263886596E+03  0.46031807636E+03  0.11160506364E+04  0.13568063976E+04  0.90196818423E+02 0.  0.
         11    1    3    3    0    0 -0.27627731157E+03  0.19601234721E+03  0.41698331441E+03  0.53723838065E+03  0.00000000000E+00 0. -1.
        -11    1    3    3    0    0 -0.33636155439E+03  0.26430572915E+03  0.69906732203E+03  0.81956801699E+03  0.00000000000E+00 0.  1.
         22    1    1    2    0    0  0.61263886596E+03 -0.46031807636E+03 -0.69715772301E+03  0.10359768348E+04  0.00000000000E+00 0.  1.
<mgrwt>
<rscale>  0 0.23558311E+04</rscale>
<asrwt>0</asrwt>
<pdfrwt beam="1">  1        1 0.21628278E+00 0.23558311E+04</pdfrwt>
<pdfrwt beam="2">  1       -1 0.15183772E+00 0.23558311E+04</pdfrwt>
<totfact> 0.23112731E+00</totfact>
</mgrwt>
</event>
<event>
 6    1  0.1885829E-005  0.1548523E+04  0.7818608E-02  0.8852812E-01
         -2   -1    0    0    0  501 -0.00000000000E+00  0.00000000000E+00  0.24383276014E+03  0.24383276014E+03  0.00000000000E+00 0.  1.
          2   -1    0    0  501    0  0.00000000000E+00 -0.00000000000E+00 -0.24585728900E+04  0.24585728900E+04  0.00000000000E+00 0. -1.
         23    2    1    2    0    0 -0.19871807172E+03  0.73975865112E+03 -0.94918051243E+03  0.12230906468E+04  0.90968956845E+02 0.  0.
         13    1    3    3    0    0 -0.15104434093E+03  0.49371840112E+03 -0.57557572383E+03  0.77321385554E+03  0.00000000000E+00 0.  1.
        -13    1    3    3    0    0 -0.47673730789E+02  0.24604025000E+03 -0.37360478860E+03  0.44987679123E+03  0.00000000000E+00 0. -1.
         22    1    1    2    0    0  0.19871807172E+03 -0.73975865112E+03 -0.12655596174E+04  0.14793150034E+04  0.00000000000E+00 0. -1.
<mgrwt>
<rscale>  0 0.15485227E+04</rscale>
<asrwt>0</asrwt>
<pdfrwt beam="1">  1        2 0.37824200E+00 0.15485227E+04</pdfrwt>
<pdfrwt beam="2">  1       -2 0.37512731E-01 0.15485227E+04</pdfrwt>
<totfact> 0.23789204E+01</totfact>
</mgrwt>
</event>
<event>
 6    1  0.1885829E-005  0.2062006E+04  0.7818608E-02  0.8578167E-01
          2   -1    0    0  501    0  0.00000000000E+00  0.00000000000E+00  0.18604932903E+04  0.18604932903E+04  0.00000000000E+00 0. -1.
         -2   -1    0    0    0  501 -0.00000000000E+00 -0.00000000000E+00 -0.57133598727E+03  0.57133598727E+03  0.00000000000E+00 0.  1.
         23    2    1    2    0    0 -0.86143608009E+02 -0.16865383739E+03  0.18386281291E+04  0.18506382361E+04  0.91889313767E+02 0.  0.
         11    1    3    3    0    0 -0.69547000259E+02 -0.11296026249E+03  0.84856189808E+03  0.85886791826E+03  0.00000000000E+00 0.  1.
        -11    1    3    3    0    0 -0.16596607749E+02 -0.55693574895E+02  0.99006623098E+03  0.99177031786E+03  0.00000000000E+00 0. -1.
         22    1    1    2    0    0  0.86143608009E+02  0.16865383739E+03 -0.54947082599E+03  0.58119104147E+03  0.00000000000E+00 0.  1.
<mgrwt>
<rscale>  0 0.20620056E+04</rscale>
<asrwt>0</asrwt>
<pdfrwt beam="1">  1        2 0.28622973E+00 0.20620056E+04</pdfrwt>
<pdfrwt beam="2">  1       -2 0.87897845E-01 0.20620056E+04</pdfrwt>
<totfact> 0.82384447E+00</totfact>
</mgrwt>
</event>
<event>
 6    1  0.1885829E-005  0.4656446E+04  0.7818608E-02  0.7883806E-01
          2   -1    0    0  501    0  0.00000000000E+00  0.00000000000E+00  0.38654674170E+04  0.38654674170E+04  0.00000000000E+00 0.  1.
         -2   -1    0    0    0  501 -0.00000000000E+00 -0.00000000000E+00 -0.14023202659E+04  0.14023202659E+04  0.00000000000E+00 0. -1.
         23    2    1    2    0    0 -0.54130166125E+03 -0.15409149335E+04 -0.64321754829E+03  0.17582395686E+04  0.10124843443E+03 0.  0.
         13    1    3    3    0    0 -0.33531126687E+03 -0.10812983493E+04 -0.46704921543E+03  0.12246529041E+04  0.00000000000E+00 0.  1.
        -13    1    3    3    0    0 -0.20599039438E+03 -0.45961658416E+03 -0.17616833286E+03  0.53358666448E+03  0.00000000000E+00 0. -1.
         22    1    1    2    0    0  0.54130166125E+03  0.15409149335E+04  0.31063646994E+04  0.35095481143E+04  0.00000000000E+00 0.  1.
<mgrwt>
<rscale>  0 0.46564464E+04</rscale>
<asrwt>0</asrwt>
<pdfrwt beam="1">  1        2 0.59468729E+00 0.46564464E+04</pdfrwt>
<pdfrwt beam="2">  1       -2 0.21574158E+00 0.46564464E+04</pdfrwt>
<totfact> 0.34302892E-02</totfact>
</mgrwt>
</event>
<event>
 6    1  0.1885829E-005  0.1662117E+04  0.7818608E-02  0.8783270E-01
          2   -1    0    0  501    0  0.00000000000E+00  0.00000000000E+00  0.23553476125E+04  0.23553476125E+04  0.00000000000E+00 0. -1.
         -2   -1    0    0    0  501 -0.00000000000E+00 -0.00000000000E+00 -0.29322998787E+03  0.29322998787E+03  0.00000000000E+00 0.  1.
         23    2    1    2    0    0  0.26561970072E+03 -0.47512712473E+03  0.38629359097E+02  0.55315297255E+03  0.90478580845E+02 0.  0.
         13    1    3    3    0    0  0.17866562868E+02 -0.10158822693E+03 -0.11938760653E+01  0.10315428861E+03  0.00000000000E+00 0.  1.
        -13    1    3    3    0    0  0.24775313785E+03 -0.37353889781E+03  0.39823235163E+02  0.44999868394E+03  0.00000000000E+00 0. -1.
         22    1    1    2    0    0 -0.26561970072E+03  0.47512712473E+03  0.20234882655E+04  0.20954246278E+04  0.00000000000E+00 0. -1.
<mgrwt>
<rscale>  0 0.16621174E+04</rscale>
<asrwt>0</asrwt>
<pdfrwt beam="1">  1        2 0.36236116E+00 0.16621174E+04</pdfrwt>
<pdfrwt beam="2">  1       -2 0.45112307E-01 0.16621174E+04</pdfrwt>
<totfact> 0.18772624E+01</totfact>
</mgrwt>
</event>
<event>
 6    1  0.1885829E-005  0.3350312E+04  0.7818608E-02  0.8150210E-01
         -2   -1    0    0    0  501 -0.00000000000E+00  0.00000000000E+00  0.17331757794E+04  0.17331757794E+04  0.00000000000E+00 0.  1.
          2   -1    0    0  501    0  0.00000000000E+00 -0.00000000000E+00 -0.16190784254E+04  0.16190784254E+04  0.00000000000E+00 0. -1.
         23    2    1    2    0    0  0.14302298137E+04 -0.50770846075E+03  0.76371256157E+03  0.17013983301E+04  0.90411280980E+02 0.  0.
         11    1    3    3    0    0  0.12763362893E+04 -0.46241916227E+03  0.71162380354E+03  0.15327342375E+04  0.00000000000E+00 0. -1.
        -11    1    3    3    0    0  0.15389352441E+03 -0.45289298477E+02  0.52088758029E+02  0.16866409258E+03  0.00000000000E+00 0.  1.
         22    1    1    2    0    0 -0.14302298137E+04  0.50770846075E+03 -0.64961520751E+03  0.16508558747E+04  0.00000000000E+00 0. -1.
<mgrwt>
<rscale>  0 0.33503119E+04</rscale>
<asrwt>0</asrwt>
<pdfrwt beam="1">  1        2 0.24908899E+00 0.33503119E+04</pdfrwt>
<pdfrwt beam="2">  1       -2 0.26664243E+00 0.33503119E+04</pdfrwt>
<totfact> 0.45989245E-01</totfact>
</mgrwt>
</event>
<event>
 6    1  0.1885829E-005  0.1083969E+04  0.7818608E-02  0.9220959E-01
          2   -1    0    0  501    0  0.00000000000E+00  0.00000000000E+00  0.50786914682E+03  0.50786914682E+03  0.00000000000E+00 0. -1.
         -2   -1    0    0    0  501 -0.00000000000E+00 -0.00000000000E+00 -0.57839135753E+03  0.57839135753E+03  0.00000000000E+00 0.  1.
         23    2    1    2    0    0 -0.19696400298E+03 -0.44481226459E+03  0.19489185375E+03  0.53209681480E+03  0.92148882073E+02 0.  0.
         11    1    3    3    0    0 -0.12148310970E+03 -0.17537660323E+03  0.10790507952E+03  0.23907865879E+03  0.00000000000E+00 0.  1.
        -11    1    3    3    0    0 -0.75480893280E+02 -0.26943566136E+03  0.86986774226E+02  0.29301815601E+03  0.00000000000E+00 0. -1.
         22    1    1    2    0    0  0.19696400298E+03  0.44481226459E+03 -0.26541406446E+03  0.55416368954E+03  0.00000000000E+00 0.  1.
<mgrwt>
<rscale>  0 0.10839689E+04</rscale>
<asrwt>0</asrwt>
<pdfrwt beam="1">  1        2 0.78133715E-01 0.10839689E+04</pdfrwt>
<pdfrwt beam="2">  1       -2 0.88983286E-01 0.10839689E+04</pdfrwt>
<totfact> 0.65226766E+01</totfact>
</mgrwt>
</event>
<event>
 6    1  0.1885829E-005  0.1576128E+04  0.7818608E-02  0.8835349E-01
          2   -1    0    0  501    0  0.00000000000E+00  0.00000000000E+00  0.75979535526E+03  0.75979535526E+03  0.00000000000E+00 0. -1.
         -2   -1    0    0    0  501 -0.00000000000E+00 -0.00000000000E+00 -0.81738426666E+03  0.81738426666E+03  0.00000000000E+00 0.  1.
         23    2    1    2    0    0  0.27629662681E+03 -0.36953845662E+03  0.60708544972E+03  0.76805014944E+03  0.91922749553E+02 0.  0.
         11    1    3    3    0    0  0.64064316807E+02 -0.15518839642E+03  0.24070630362E+03  0.29347435948E+03  0.00000000000E+00 0.  1.
        -11    1    3    3    0    0  0.21223231000E+03 -0.21435006020E+03  0.36637914610E+03  0.47457578996E+03  0.00000000000E+00 0. -1.
         22    1    1    2    0    0 -0.27629662681E+03  0.36953845662E+03 -0.66467436112E+03  0.80912947248E+03  0.00000000000E+00 0.  1.
<mgrwt>
<rscale>  0 0.15761279E+04</rscale>
<asrwt>0</asrwt>
<pdfrwt beam="1">  1        2 0.11689159E+00 0.15761279E+04</pdfrwt>
<pdfrwt beam="2">  1       -2 0.12575143E+00 0.15761279E+04</pdfrwt>
<totfact> 0.16727119E+01</totfact>
</mgrwt>
</event>
<event>
 6    1  0.1885829E-005  0.2178921E+04  0.7818608E-02  0.8527253E-01
         -2   -1    0    0    0  501 -0.00000000000E+00  0.00000000000E+00  0.59651611892E+03  0.59651611892E+03  0.00000000000E+00 0.  1.
          2   -1    0    0  501    0  0.00000000000E+00 -0.00000000000E+00 -0.19897605746E+04  0.19897605746E+04  0.00000000000E+00 0. -1.
         23    2    1    2    0    0  0.92874368228E+02 -0.36786598585E+03  0.51187174869E+03  0.64374772747E+03  0.91909834629E+02 0.  0.
         11    1    3    3    0    0  0.68305305279E+02 -0.23084925013E+03  0.24933823771E+03  0.34659276940E+03  0.00000000000E+00 0. -1.
        -11    1    3    3    0    0  0.24569062949E+02 -0.13701673572E+03  0.26253351098E+03  0.29715495807E+03  0.00000000000E+00 0.  1.
         22    1    1    2    0    0 -0.92874368228E+02  0.36786598585E+03 -0.19051162043E+04  0.19425289660E+04  0.00000000000E+00 0. -1.
<mgrwt>
<rscale>  0 0.21789211E+04</rscale>
<asrwt>0</asrwt>
<pdfrwt beam="1">  1        2 0.30611701E+00 0.21789211E+04</pdfrwt>
<pdfrwt beam="2">  1       -2 0.91771712E-01 0.21789211E+04</pdfrwt>
<totfact> 0.62608372E+00</totfact>
</mgrwt>
</event>
<event>
 6    1  0.1885829E-005  0.3511568E+04  0.7818608E-02  0.8111054E-01
         -2   -1    0    0    0  501 -0.00000000000E+00  0.00000000000E+00  0.14002930802E+04  0.14002930802E+04  0.00000000000E+00 0.  1.
          2   -1    0    0  501    0  0.00000000000E+00 -0.00000000000E+00 -0.22015227232E+04  0.22015227232E+04  0.00000000000E+00 0. -1.
         23    2    1    2    0    0  0.17358147719E+04  0.24779395593E+03 -0.46716443771E+03  0.18168636112E+04  0.91082394721E+02 0.  0.
         13    1    3    3    0    0  0.14939231870E+04  0.23062469413E+03 -0.42952451337E+03  0.15714596863E+04  0.00000000000E+00 0.  1.
        -13    1    3    3    0    0  0.24189158495E+03  0.17169261808E+02 -0.37639924340E+02  0.24540392484E+03  0.00000000000E+00 0. -1.
         22    1    1    2    0    0 -0.17358147719E+04 -0.24779395593E+03 -0.33406520530E+03  0.17849521922E+04  0.00000000000E+00 0.  1.
<mgrwt>
<rscale>  0 0.35115678E+04</rscale>
<asrwt>0</asrwt>
<pdfrwt beam="1">  1        2 0.33869580E+00 0.35115678E+04</pdfrwt>
<pdfrwt beam="2">  1       -2 0.21542971E+00 0.35115678E+04</pdfrwt>
<totfact> 0.44712848E-01</totfact>
</mgrwt>
</event>
<event>
 6    1  0.1885829E-005  0.1445527E+04  0.7818608E-02  0.8921507E-01
          2   -1    0    0  501    0  0.00000000000E+00  0.00000000000E+00  0.22270163763E+03  0.22270163763E+03  0.00000000000E+00 0. -1.
         -2   -1    0    0    0  501 -0.00000000000E+00 -0.00000000000E+00 -0.23456822028E+04  0.23456822028E+04  0.00000000000E+00 0.  1.
         23    2    1    2    0    0 -0.41782633478E+03 -0.28198261400E+03 -0.15319043839E+03  0.53511893290E+03  0.93765245710E+02 0.  0.
         13    1    3    3    0    0 -0.19774928237E+03 -0.17535285276E+03 -0.11233997634E+03  0.28718229739E+03  0.00000000000E+00 0. -1.
        -13    1    3    3    0    0 -0.22007705242E+03 -0.10662976123E+03 -0.40850462048E+02  0.24793663551E+03  0.00000000000E+00 0.  1.
         22    1    1    2    0    0  0.41782633478E+03  0.28198261400E+03 -0.19697901268E+04  0.20332649075E+04  0.00000000000E+00 0.  1.
<mgrwt>
<rscale>  0 0.14455273E+04</rscale>
<asrwt>0</asrwt>
<pdfrwt beam="1">  1        2 0.34261792E-01 0.14455273E+04</pdfrwt>
<pdfrwt beam="2">  1       -2 0.36087417E+00 0.14455273E+04</pdfrwt>
<totfact> 0.19914131E+00</totfact>
</mgrwt>
</event>
<event>
 6    1  0.1885829E-005  0.2747695E+04  0.7818608E-02  0.8319693E-01
         -2   -1    0    0    0  501 -0.00000000000E+00  0.00000000000E+00  0.15323503221E+04  0.15323503221E+04  0.00000000000E+00 0. -1.
          2   -1    0    0  501    0  0.00000000000E+00 -0.00000000000E+00 -0.12317397814E+04  0.12317397814E+04  0.00000000000E+00 0.  1.
         23    2    1    2    0    0  0.32775946752E+03  0.80110333930E+03  0.12217937870E+04  0.15000602772E+04  0.90597729030E+02 0.  0.
         13    1    3    3    0    0  0.85560040750E+02  0.23682751892E+03  0.42655489031E+03  0.49533510752E+03  0.00000000000E+00 0.  1.
        -13    1    3    3    0    0  0.24219942677E+03  0.56427582037E+03  0.79523889665E+03  0.10047251696E+04  0.00000000000E+00 0. -1.
         22    1    1    2    0    0 -0.32775946752E+03 -0.80110333930E+03 -0.92118324622E+03  0.12640298263E+04  0.00000000000E+00 0.  1.
<mgrwt>
<rscale>  0 0.27476949E+04</rscale>
<asrwt>0</asrwt>
<pdfrwt beam="1">  1        2 0.18949843E+00 0.27476949E+04</pdfrwt>
<pdfrwt beam="2">  1       -2 0.23574620E+00 0.27476949E+04</pdfrwt>
<totfact> 0.12474399E+00</totfact>
</mgrwt>
</event>
<event>
 6    1  0.1885829E-005  0.3899787E+04  0.7818608E-02  0.8025074E-01
         -2   -1    0    0    0  501 -0.00000000000E+00  0.00000000000E+00  0.22857093696E+04  0.22857093696E+04  0.00000000000E+00 0.  1.
          2   -1    0    0  501    0  0.00000000000E+00 -0.00000000000E+00 -0.16634152458E+04  0.16634152458E+04  0.00000000000E+00 0. -1.
         23    2    1    2    0    0 -0.12005490674E+04 -0.45347698544E+03 -0.11738757597E+04  0.17415952973E+04  0.90611482974E+02 0.  0.
         11    1    3    3    0    0 -0.57729887586E+03 -0.19483581780E+03 -0.61084318123E+03  0.86276554174E+03  0.00000000000E+00 0. -1.
        -11    1    3    3    0    0 -0.62325019151E+03 -0.25864116764E+03 -0.56303257849E+03  0.87882975556E+03  0.00000000000E+00 0.  1.
         22    1    1    2    0    0  0.12005490674E+04  0.45347698544E+03  0.17961698835E+04  0.22075293181E+04  0.00000000000E+00 0.  1.
<mgrwt>
<rscale>  0 0.38997866E+04</rscale>
<asrwt>0</asrwt>
<pdfrwt beam="1">  1        2 0.25591004E+00 0.38997866E+04</pdfrwt>
<pdfrwt beam="2">  1       -2 0.35164760E+00 0.38997866E+04</pdfrwt>
<totfact> 0.12412661E-01</totfact>
</mgrwt>
</event>
<event>
 6    1  0.1885829E-005  0.7452420E+03  0.7818608E-02  0.9642845E-01
          2   -1    0    0  501    0  0.00000000000E+00  0.00000000000E+00  0.11387930867E+04  0.11387930867E+04  0.00000000000E+00 0. -1.
         -2   -1    0    0    0  501 -0.00000000000E+00 -0.00000000000E+00 -0.12192416828E+03  0.12192416828E+03  0.00000000000E+00 0.  1.
         23    2    1    2    0    0 -0.28896211023E+03 -0.11928454866E+03  0.19216432278E+03  0.37875037649E+03  0.93791343134E+02 0.  0.
         13    1    3    3    0    0 -0.13105456402E+03 -0.33306945799E+02  0.13248804359E+03  0.18930856579E+03  0.00000000000E+00 0. -1.
        -13    1    3    3    0    0 -0.15790754621E+03 -0.85977602858E+02  0.59676279198E+02  0.18944181070E+03  0.00000000000E+00 0.  1.
         22    1    1    2    0    0  0.28896211023E+03  0.11928454866E+03  0.82470459562E+03  0.88196687848E+03  0.00000000000E+00 0. -1.
<mgrwt>
<rscale>  0 0.74524197E+03</rscale>
<asrwt>0</asrwt>
<pdfrwt beam="1">  1        2 0.17519893E+00 0.74524197E+03</pdfrwt>
<pdfrwt beam="2">  1       -2 0.18757565E-01 0.74524197E+03</pdfrwt>
<totfact> 0.49592139E+02</totfact>
</mgrwt>
</event>
<event>
 6    1  0.1885829E-005  0.1634037E+04  0.7818608E-02  0.8799907E-01
          2   -1    0    0  501    0  0.00000000000E+00  0.00000000000E+00  0.16147998335E+04  0.16147998335E+04  0.00000000000E+00 0. -1.
         -2   -1    0    0    0  501 -0.00000000000E+00 -0.00000000000E+00 -0.41337559279E+03  0.41337559279E+03  0.00000000000E+00 0.  1.
         23    2    1    2    0    0  0.38512576612E+03 -0.68255612394E+03  0.32707408243E+03  0.85399787697E+03  0.90167623951E+02 0.  0.
         11    1    3    3    0    0  0.13428643144E+03 -0.31762428929E+03  0.16671676447E+03  0.38303069638E+03  0.00000000000E+00 0.  1.
        -11    1    3    3    0    0  0.25083933469E+03 -0.36493183465E+03  0.16035731796E+03  0.47096718059E+03  0.00000000000E+00 0. -1.
         22    1    1    2    0    0 -0.38512576612E+03  0.68255612394E+03  0.87435015832E+03  0.11741775494E+04  0.00000000000E+00 0.  1.
<mgrwt>
<rscale>  0 0.16340365E+04</rscale>
<asrwt>0</asrwt>
<pdfrwt beam="1">  1        2 0.24843074E+00 0.16340365E+04</pdfrwt>
<pdfrwt beam="2">  1       -2 0.63596246E-01 0.16340365E+04</pdfrwt>
<totfact> 0.23939597E+01</totfact>
</mgrwt>
</event>
<event>
 6    1  0.1885829E-005  0.8833065E+03  0.7818608E-02  0.9446693E-01
          2   -1    0    0  501    0  0.00000000000E+00  0.00000000000E+00  0.84798458797E+03  0.84798458797E+03  0.00000000000E+00 0.  1.
         -2   -1    0    0    0  501 -0.00000000000E+00 -0.00000000000E+00 -0.23002493599E+03  0.23002493599E+03  0.00000000000E+00 0. -1.
         23    2    1    2    0    0  0.96021897157E+02  0.23848809042E+02  0.83173697301E+03  0.84244697725E+03  0.90230520222E+02 0.  0.
         11    1    3    3    0    0  0.37115429653E+02  0.19315693426E+02  0.10097351869E+03  0.10929914275E+03  0.00000000000E+00 0. -1.
        -11    1    3    3    0    0  0.58906467503E+02  0.45331156161E+01  0.73076345432E+03  0.73314783449E+03  0.00000000000E+00 0.  1.
         22    1    1    2    0    0 -0.96021897157E+02 -0.23848809042E+02 -0.21377732103E+03  0.23556254671E+03  0.00000000000E+00 0. -1.
<mgrwt>
<rscale>  0 0.88330652E+03</rscale>
<asrwt>0</asrwt>
<pdfrwt beam="1">  1        2 0.13045917E+00 0.88330652E+03</pdfrwt>
<pdfrwt beam="2">  1       -2 0.35388452E-01 0.88330652E+03</pdfrwt>
<totfact> 0.23938836E+02</totfact>
</mgrwt>
</event>
<event>
 6    1  0.1885829E-005  0.3217164E+04  0.7818608E-02  0.8184299E-01
         -2   -1    0    0    0  501 -0.00000000000E+00  0.00000000000E+00  0.52958536930E+03  0.52958536930E+03  0.00000000000E+00 0. -1.
          2   -1    0    0  501    0  0.00000000000E+00 -0.00000000000E+00 -0.48859669230E+04  0.48859669230E+04  0.00000000000E+00 0.  1.
         23    2    1    2    0    0  0.15267604719E+03 -0.52307736240E+03 -0.47253255433E+04  0.47574948708E+04  0.90200072478E+02 0.  0.
         13    1    3    3    0    0  0.29350103096E+02 -0.14622865459E+03 -0.16464932781E+04  0.16532345154E+04  0.00000000000E+00 0. -1.
        -13    1    3    3    0    0  0.12332594409E+03 -0.37684870781E+03 -0.30788322652E+04  0.31042603554E+04  0.00000000000E+00 0.  1.
         22    1    1    2    0    0 -0.15267604719E+03  0.52307736240E+03  0.36894398964E+03  0.65805742145E+03  0.00000000000E+00 0. -1.
<mgrwt>
<rscale>  0 0.32171643E+04</rscale>
<asrwt>0</asrwt>
<pdfrwt beam="1">  1        2 0.75168722E+00 0.32171643E+04</pdfrwt>
<pdfrwt beam="2">  1       -2 0.81474672E-01 0.32171643E+04</pdfrwt>
<totfact> 0.52602437E-02</totfact>
</mgrwt>
</event>
<event>
 6    1  0.1885829E-005  0.5487606E+04  0.7818608E-02  0.7757397E-01
         -2   -1    0    0    0  501 -0.00000000000E+00  0.00000000000E+00  0.17283761444E+04  0.17283761444E+04  0.00000000000E+00 0.  1.
          2   -1    0    0  501    0  0.00000000000E+00 -0.00000000000E+00 -0.43557970372E+04  0.43557970372E+04  0.00000000000E+00 0. -1.
         23    2    1    2    0    0  0.14945472701E+04  0.70699363003E+02 -0.38631668871E+04  0.41436222019E+04  0.82925340659E+02 0.  0.
         11    1    3    3    0    0  0.92620809044E+03  0.95675878994E+01 -0.23297019597E+04  0.25070828041E+04  0.00000000000E+00 0.  1.
        -11    1    3    3    0    0  0.56833917962E+03  0.61131775104E+02 -0.15334649274E+04  0.16365393978E+04  0.00000000000E+00 0. -1.
         22    1    1    2    0    0 -0.14945472701E+04 -0.70699363003E+02  0.12357459943E+04  0.19405509797E+04  0.00000000000E+00 0.  1.
<mgrwt>
<rscale>  0 0.54876063E+04</rscale>
<asrwt>0</asrwt>
<pdfrwt beam="1">  1        2 0.67012261E+00 0.54876063E+04</pdfrwt>
<pdfrwt beam="2">  1       -2 0.26590402E+00 0.54876063E+04</pdfrwt>
<totfact> 0.60146424E-03</totfact>
</mgrwt>
</event>
<event>
 6    1  0.1885829E-005  0.2615067E+04  0.7818608E-02  0.8363101E-01
          2   -1    0    0  501    0  0.00000000000E+00  0.00000000000E+00  0.11010484487E+04  0.11010484487E+04  0.00000000000E+00 0. -1.
         -2   -1    0    0    0  501 -0.00000000000E+00 -0.00000000000E+00 -0.15527422732E+04  0.15527422732E+04  0.00000000000E+00 0.  1.
         23    2    1    2    0    0  0.41097276457E+03  0.11108717846E+03  0.10265088661E+04  0.11155052578E+04  0.96915187224E+02 0.  0.
         11    1    3    3    0    0  0.12257965721E+03  0.67374594342E+02  0.41617635772E+03  0.43905337836E+03  0.00000000000E+00 0. -1.
        -11    1    3    3    0    0  0.28839310737E+03  0.43712584117E+02  0.61033250837E+03  0.67645187941E+03  0.00000000000E+00 0.  1.
         22    1    1    2    0    0 -0.41097276457E+03 -0.11108717846E+03 -0.14782026906E+04  0.15382854641E+04  0.00000000000E+00 0.  1.
<mgrwt>
<rscale>  0 0.26150675E+04</rscale>
<asrwt>0</asrwt>
<pdfrwt beam="1">  1        2 0.16939207E+00 0.26150675E+04</pdfrwt>
<pdfrwt beam="2">  1       -2 0.23888343E+00 0.26150675E+04</pdfrwt>
<totfact> 0.14463841E+00</totfact>
</mgrwt>
</event>
<event>
 6    1  0.1885829E-005  0.2091361E+04  0.7818608E-02  0.8565058E-01
          2   -1    0    0  501    0  0.00000000000E+00  0.00000000000E+00  0.26966259389E+04  0.26966259389E+04  0.00000000000E+00 0. -1.
         -2   -1    0    0    0  501 -0.00000000000E+00 -0.00000000000E+00 -0.40548735379E+03  0.40548735379E+03  0.00000000000E+00 0.  1.
         23    2    1    2    0    0  0.86985881087E+01  0.76456552906E+03  0.93867110392E+02  0.77560559933E+03  0.90093826829E+02 0.  0.
         13    1    3    3    0    0  0.30382396307E+02  0.66213095508E+03  0.10180657649E+03  0.67060052990E+03  0.00000000000E+00 0.  1.
        -13    1    3    3    0    0 -0.21683808198E+02  0.10243457398E+03 -0.79394660951E+01  0.10500506943E+03  0.00000000000E+00 0. -1.
         22    1    1    2    0    0 -0.86985881087E+01 -0.76456552906E+03  0.21972714747E+04  0.23265076933E+04  0.00000000000E+00 0. -1.
<mgrwt>
<rscale>  0 0.20913610E+04</rscale>
<asrwt>0</asrwt>
<pdfrwt beam="1">  1        2 0.41486552E+00 0.20913610E+04</pdfrwt>
<pdfrwt beam="2">  1       -2 0.62382672E-01 0.20913610E+04</pdfrwt>
<totfact> 0.58703357E+00</totfact>
</mgrwt>
</event>
<event>
 6    1  0.1885829E-005  0.2880679E+04  0.7818608E-02  0.8278649E-01
          2   -1    0    0  501    0  0.00000000000E+00  0.00000000000E+00  0.23004267145E+04  0.23004267145E+04  0.00000000000E+00 0. -1.
         -2   -1    0    0    0  501 -0.00000000000E+00 -0.00000000000E+00 -0.90182325233E+03  0.90182325233E+03  0.00000000000E+00 0.  1.
         23    2    1    2    0    0 -0.37337814053E+03  0.49547511018E+03  0.21432553285E+04  0.22330166499E+04  0.88955803315E+02 0.  0.
         13    1    3    3    0    0 -0.32405054385E+03  0.37488421188E+03  0.17447749494E+04  0.18137768748E+04  0.00000000000E+00 0.  1.
        -13    1    3    3    0    0 -0.49327596686E+02  0.12059089830E+03  0.39848037908E+03  0.41923977514E+03  0.00000000000E+00 0. -1.
         22    1    1    2    0    0  0.37337814053E+03 -0.49547511018E+03 -0.74465186632E+03  0.96923331694E+03  0.00000000000E+00 0.  1.
<mgrwt>
<rscale>  0 0.28806793E+04</rscale>
<asrwt>0</asrwt>
<pdfrwt beam="1">  1        2 0.35391180E+00 0.28806793E+04</pdfrwt>
<pdfrwt beam="2">  1       -2 0.13874204E+00 0.28806793E+04</pdfrwt>
<totfact> 0.14399974E+00</totfact>
</mgrwt>
</event>
<event>
 6    1  0.1885829E-005  0.2666369E+04  0.7818608E-02  0.8346000E-01
          2   -1    0    0  501    0  0.00000000000E+00  0.00000000000E+00  0.11358992933E+04  0.11358992933E+04  0.00000000000E+00 0. -1.
         -2   -1    0    0    0  501 -0.00000000000E+00 -0.00000000000E+00 -0.15647349122E+04  0.15647349122E+04  0.00000000000E+00 0.  1.
         23    2    1    2    0    0 -0.92392120668E+03  0.95322521384E+03 -0.31919249524E+03  0.13686093112E+04  0.94545720292E+02 0.  0.
         13    1    3    3    0    0 -0.70505524665E+03  0.75125755430E+03 -0.21043218267E+03  0.10515571869E+04  0.00000000000E+00 0. -1.
        -13    1    3    3    0    0 -0.21886596003E+03  0.20196765954E+03 -0.10876031258E+03  0.31705212434E+03  0.00000000000E+00 0.  1.
         22    1    1    2    0    0  0.92392120668E+03 -0.95322521384E+03 -0.10964312373E+03  0.13320248943E+04  0.00000000000E+00 0. -1.
<mgrwt>
<rscale>  0 0.26663693E+04</rscale>
<asrwt>0</asrwt>
<pdfrwt beam="1">  1        2 0.17475374E+00 0.26663693E+04</pdfrwt>
<pdfrwt beam="2">  1       -2 0.24072845E+00 0.26663693E+04</pdfrwt>
<totfact> 0.13354285E+00</totfact>
</mgrwt>
</event>
<event>
 6    1  0.1885829E-005  0.3592123E+04  0.7818608E-02  0.8092298E-01
          2   -1    0    0  501    0  0.00000000000E+00  0.00000000000E+00  0.22546826227E+04  0.22546826227E+04  0.00000000000E+00 0.  1.
         -2   -1    0    0    0  501 -0.00000000000E+00 -0.00000000000E+00 -0.14307273944E+04  0.14307273944E+04  0.00000000000E+00 0. -1.
         23    2    1    2    0    0 -0.52139104001E+03 -0.17241895110E+03  0.21653819272E+04  0.22359264885E+04  0.94400530079E+02 0.  0.
         11    1    3    3    0    0 -0.33482324742E+03 -0.15715019225E+03  0.14624251958E+04  0.15084728182E+04  0.00000000000E+00 0.  1.
        -11    1    3    3    0    0 -0.18656779258E+03 -0.15268758851E+02  0.70295673135E+03  0.72745367026E+03  0.00000000000E+00 0. -1.
         22    1    1    2    0    0  0.52139104001E+03  0.17241895110E+03 -0.13414266988E+04  0.14494835286E+04  0.00000000000E+00 0. -1.
<mgrwt>
<rscale>  0 0.35921226E+04</rscale>
<asrwt>0</asrwt>
<pdfrwt beam="1">  1        2 0.34687425E+00 0.35921226E+04</pdfrwt>
<pdfrwt beam="2">  1       -2 0.22011191E+00 0.35921226E+04</pdfrwt>
<totfact> 0.38706958E-01</totfact>
</mgrwt>
</event>
<event>
 6    1  0.1885829E-005  0.2124462E+04  0.7818608E-02  0.8550544E-01
         -2   -1    0    0    0  501 -0.00000000000E+00  0.00000000000E+00  0.52454876105E+03  0.52454876105E+03  0.00000000000E+00 0.  1.
          2   -1    0    0  501    0  0.00000000000E+00 -0.00000000000E+00 -0.21510575974E+04  0.21510575974E+04  0.00000000000E+00 0. -1.
         23    2    1    2    0    0 -0.51819795905E+03  0.92493918321E+03 -0.80746344748E+03  0.13358761743E+04  0.92338055734E+02 0.  0.
         11    1    3    3    0    0 -0.37242859430E+03  0.73010454429E+03 -0.59450022995E+03  0.10125148033E+04  0.00000000000E+00 0. -1.
        -11    1    3    3    0    0 -0.14576936475E+03  0.19483463892E+03 -0.21296321753E+03  0.32336137098E+03  0.00000000000E+00 0.  1.
         22    1    1    2    0    0  0.51819795905E+03 -0.92493918321E+03 -0.81904538884E+03  0.13397301842E+04  0.00000000000E+00 0. -1.
<mgrwt>
<rscale>  0 0.21244619E+04</rscale>
<asrwt>0</asrwt>
<pdfrwt beam="1">  1        2 0.33093194E+00 0.21244619E+04</pdfrwt>
<pdfrwt beam="2">  1       -2 0.80699808E-01 0.21244619E+04</pdfrwt>
<totfact> 0.68575080E+00</totfact>
</mgrwt>
</event>
<event>
 6    1  0.1885829E-005  0.2512091E+04  0.7818608E-02  0.8398691E-01
          2   -1    0    0  501    0  0.00000000000E+00  0.00000000000E+00  0.13627715414E+04  0.13627715414E+04  0.00000000000E+00 0. -1.
         -2   -1    0    0    0  501 -0.00000000000E+00 -0.00000000000E+00 -0.11576777861E+04  0.11576777861E+04  0.00000000000E+00 0.  1.
         23    2    1    2    0    0  0.11085617523E+04  0.89041044365E+02 -0.47932646845E+03  0.12145900284E+04  0.92938729567E+02 0.  0.
         13    1    3    3    0    0  0.54467013843E+03  0.30817634833E+01 -0.25884260062E+03  0.60305434984E+03  0.00000000000E+00 0. -1.
        -13    1    3    3    0    0  0.56389161390E+03  0.85959280882E+02 -0.22048386783E+03  0.61153567857E+03  0.00000000000E+00 0.  1.
         22    1    1    2    0    0 -0.11085617523E+04 -0.89041044365E+02  0.68442022378E+03  0.13058592991E+04  0.00000000000E+00 0. -1.
<mgrwt>
<rscale>  0 0.25120910E+04</rscale>
<asrwt>0</asrwt>
<pdfrwt beam="1">  1        2 0.20965716E+00 0.25120910E+04</pdfrwt>
<pdfrwt beam="2">  1       -2 0.17810427E+00 0.25120910E+04</pdfrwt>
<totfact> 0.25317381E+00</totfact>
</mgrwt>
</event>
<event>
 6    1  0.1885829E-005  0.2108943E+04  0.7818608E-02  0.8557314E-01
         -2   -1    0    0    0  501 -0.00000000000E+00  0.00000000000E+00  0.13012490906E+04  0.13012490906E+04  0.00000000000E+00 0.  1.
          2   -1    0    0  501    0  0.00000000000E+00 -0.00000000000E+00 -0.85449443451E+03  0.85449443451E+03  0.00000000000E+00 0. -1.
         23    2    1    2    0    0  0.47738102642E+03  0.37611639717E+03 -0.65482846419E+03  0.89763321218E+03  0.87114163564E+02 0.  0.
         13    1    3    3    0    0  0.14368435122E+03  0.13546107408E+03 -0.16033445941E+03  0.25436594554E+03  0.00000000000E+00 0.  1.
        -13    1    3    3    0    0  0.33369667520E+03  0.24065532309E+03 -0.49449400478E+03  0.64326726664E+03  0.00000000000E+00 0. -1.
         22    1    1    2    0    0 -0.47738102642E+03 -0.37611639717E+03  0.11015831203E+04  0.12581103129E+04  0.00000000000E+00 0.  1.
<mgrwt>
<rscale>  0 0.21089430E+04</rscale>
<asrwt>0</asrwt>
<pdfrwt beam="1">  1        2 0.13146068E+00 0.21089430E+04</pdfrwt>
<pdfrwt beam="2">  1       -2 0.20019217E+00 0.21089430E+04</pdfrwt>
<totfact> 0.38464517E+00</totfact>
</mgrwt>
</event>
<event>
 6    1  0.1885829E-005  0.2496569E+04  0.7818608E-02  0.8404209E-01
         -2   -1    0    0    0  501 -0.00000000000E+00  0.00000000000E+00  0.74133287779E+03  0.74133287779E+03  0.00000000000E+00 0.  1.
          2   -1    0    0  501    0  0.00000000000E+00 -0.00000000000E+00 -0.21019083389E+04  0.21019083389E+04  0.00000000000E+00 0. -1.
         23    2    1    2    0    0 -0.42419170184E+03 -0.49160486160E+03 -0.18931879356E+04  0.20034257680E+04  0.89108408336E+02 0.  0.
         11    1    3    3    0    0 -0.14606717880E+03 -0.12623730187E+03 -0.65394991880E+03  0.68185187058E+03  0.00000000000E+00 0.  1.
        -11    1    3    3    0    0 -0.27812452304E+03 -0.36536755972E+03 -0.12392380168E+04  0.13215738974E+04  0.00000000000E+00 0. -1.
         22    1    1    2    0    0  0.42419170184E+03  0.49160486160E+03  0.53261247451E+03  0.83981544869E+03  0.00000000000E+00 0.  1.
<mgrwt>
<rscale>  0 0.24965687E+04</rscale>
<asrwt>0</asrwt>
<pdfrwt beam="1">  1        2 0.32337051E+00 0.24965687E+04</pdfrwt>
<pdfrwt beam="2">  1       -2 0.11405121E+00 0.24965687E+04</pdfrwt>
<totfact> 0.31461881E+00</totfact>
</mgrwt>
</event>
<event>
 6    1  0.1885829E-005  0.5231435E+04  0.7818608E-02  0.7793765E-01
          2   -1    0    0  501    0  0.00000000000E+00  0.00000000000E+00  0.21425004951E+04  0.21425004951E+04  0.00000000000E+00 0. -1.
         -2   -1    0    0    0  501 -0.00000000000E+00 -0.00000000000E+00 -0.31934548352E+04  0.31934548352E+04  0.00000000000E+00 0.  1.
         23    2    1    2    0    0 -0.21713423269E+04 -0.65960708964E+03 -0.18510130386E+04  0.29297336168E+04  0.85327505248E+02 0.  0.
         11    1    3    3    0    0 -0.14876202493E+04 -0.42502589719E+03 -0.12222068783E+04  0.19716619063E+04  0.00000000000E+00 0.  1.
        -11    1    3    3    0    0 -0.68372207757E+03 -0.23458119244E+03 -0.62880616032E+03  0.95807171050E+03  0.00000000000E+00 0. -1.
         22    1    1    2    0    0  0.21713423269E+04  0.65960708964E+03  0.80005869853E+03  0.24062217135E+04  0.00000000000E+00 0. -1.
<mgrwt>
<rscale>  0 0.52314352E+04</rscale>
<asrwt>0</asrwt>
<pdfrwt beam="1">  1        2 0.32961546E+00 0.52314352E+04</pdfrwt>
<pdfrwt beam="2">  1       -2 0.49130075E+00 0.52314352E+04</pdfrwt>
<totfact> 0.74887367E-03</totfact>
</mgrwt>
</event>
<event>
 6    1  0.1885829E-005  0.1961307E+04  0.7818608E-02  0.8624928E-01
          2   -1    0    0  501    0  0.00000000000E+00  0.00000000000E+00  0.15718685098E+04  0.15718685098E+04  0.00000000000E+00 0. -1.
         -2   -1    0    0    0  501 -0.00000000000E+00 -0.00000000000E+00 -0.61180768400E+03  0.61180768400E+03  0.00000000000E+00 0.  1.
         23    2    1    2    0    0 -0.49720257753E+03  0.62254995665E+03 -0.15125886452E+03  0.81626612153E+03  0.92910093216E+02 0.  0.
         13    1    3    3    0    0 -0.16798982925E+03  0.26537888395E+03 -0.29323517691E+02  0.31544635593E+03  0.00000000000E+00 0.  1.
        -13    1    3    3    0    0 -0.32921274828E+03  0.35717107270E+03 -0.12193534683E+03  0.50081976560E+03  0.00000000000E+00 0. -1.
         22    1    1    2    0    0  0.49720257753E+03 -0.62254995665E+03  0.11113196903E+04  0.13674100722E+04  0.00000000000E+00 0. -1.
<mgrwt>
<rscale>  0 0.19613069E+04</rscale>
<asrwt>0</asrwt>
<pdfrwt beam="1">  1        2 0.24182592E+00 0.19613069E+04</pdfrwt>
<pdfrwt beam="2">  1       -2 0.94124259E-01 0.19613069E+04</pdfrwt>
<totfact> 0.10265042E+01</totfact>
</mgrwt>
</event>
<event>
 6    1  0.1885829E-005  0.4973998E+04  0.7818608E-02  0.7832531E-01
         -2   -1    0    0    0  501 -0.00000000000E+00  0.00000000000E+00  0.43279014325E+04  0.43279014325E+04  0.00000000000E+00 0.  1.
          2   -1    0    0  501    0  0.00000000000E+00 -0.00000000000E+00 -0.14291368334E+04  0.14291368334E+04  0.00000000000E+00 0. -1.
         23    2    1    2    0    0 -0.15765002241E+04 -0.17883303395E+04  0.22662386866E+04  0.32905493870E+04  0.91646733489E+02 0.  0.
         13    1    3    3    0    0 -0.10965769329E+04 -0.13024559995E+04  0.15970313100E+04  0.23343910567E+04  0.00000000000E+00 0.  1.
        -13    1    3    3    0    0 -0.47992329117E+03 -0.48587434002E+03  0.66920737663E+03  0.95615833032E+03  0.00000000000E+00 0. -1.
         22    1    1    2    0    0  0.15765002241E+04  0.17883303395E+04  0.63252591241E+03  0.24664888789E+04  0.00000000000E+00 0. -1.
<mgrwt>
<rscale>  0 0.49739977E+04</rscale>
<asrwt>0</asrwt>
<pdfrwt beam="1">  1        2 0.21986721E+00 0.49739977E+04</pdfrwt>
<pdfrwt beam="2">  1       -2 0.66583098E+00 0.49739977E+04</pdfrwt>
<totfact> 0.30525948E-03</totfact>
</mgrwt>
</event>
<event>
 6    1  0.1885829E-005  0.4033402E+04  0.7818608E-02  0.7997842E-01
          2   -1    0    0  501    0  0.00000000000E+00  0.00000000000E+00  0.40799213110E+04  0.40799213110E+04  0.00000000000E+00 0. -1.
         -2   -1    0    0    0  501 -0.00000000000E+00 -0.00000000000E+00 -0.99685317288E+03  0.99685317288E+03  0.00000000000E+00 0.  1.
         23    2    1    2    0    0 -0.18695686285E+04 -0.38177546234E+03  0.23598039340E+04  0.30361494646E+04  0.92139046074E+02 0.  0.
         11    1    3    3    0    0 -0.11811147124E+04 -0.28077770772E+03  0.15340152839E+04  0.19562901054E+04  0.00000000000E+00 0. -1.
        -11    1    3    3    0    0 -0.68845391613E+03 -0.10099775462E+03  0.82578865011E+03  0.10798593592E+04  0.00000000000E+00 0.  1.
         22    1    1    2    0    0  0.18695686285E+04  0.38177546234E+03  0.72326420406E+03  0.20406250193E+04  0.00000000000E+00 0.  1.
<mgrwt>
<rscale>  0 0.40334018E+04</rscale>
<asrwt>0</asrwt>
<pdfrwt beam="1">  1        2 0.62768019E+00 0.40334018E+04</pdfrwt>
<pdfrwt beam="2">  1       -2 0.15336203E+00 0.40334018E+04</pdfrwt>
<totfact> 0.65092119E-02</totfact>
</mgrwt>
</event>
<event>
 6    1  0.1885829E-005  0.3549597E+04  0.7818608E-02  0.8102136E-01
          1   -1    0    0  501    0  0.00000000000E+00  0.00000000000E+00  0.10549647493E+04  0.10549647493E+04  0.00000000000E+00 0.  1.
         -1   -1    0    0    0  501 -0.00000000000E+00 -0.00000000000E+00 -0.29857962182E+04  0.29857962182E+04  0.00000000000E+00 0. -1.
         23    2    1    2    0    0 -0.27761443112E+03  0.17451423830E+04 -0.11399628826E+04  0.21047690176E+04  0.89137726290E+02 0.  0.
         13    1    3    3    0    0 -0.40510571910E+02  0.39921341251E+03 -0.29449762952E+03  0.49773618409E+03  0.00000000000E+00 0.  1.
        -13    1    3    3    0    0 -0.23710385921E+03  0.13459289705E+04 -0.84546525312E+03  0.16070328335E+04  0.00000000000E+00 0. -1.
         22    1    1    2    0    0  0.27761443112E+03 -0.17451423830E+04 -0.79086858628E+03  0.19359919499E+04  0.00000000000E+00 0. -1.
<mgrwt>
<rscale>  0 0.35495970E+04</rscale>
<asrwt>0</asrwt>
<pdfrwt beam="1">  1        1 0.16230227E+00 0.35495970E+04</pdfrwt>
<pdfrwt beam="2">  1       -1 0.45935327E+00 0.35495970E+04</pdfrwt>
<totfact> 0.31075254E-02</totfact>
</mgrwt>
</event>
<event>
 6    1  0.1885829E-005  0.4465647E+04  0.7818608E-02  0.7916679E-01
          2   -1    0    0  501    0  0.00000000000E+00  0.00000000000E+00  0.28929266008E+04  0.28929266008E+04  0.00000000000E+00 0.  1.
         -2   -1    0    0    0  501 -0.00000000000E+00 -0.00000000000E+00 -0.17233412982E+04  0.17233412982E+04  0.00000000000E+00 0. -1.
         23    2    1    2    0    0 -0.51644575059E+03 -0.34472479889E+03 -0.16310185600E+04  0.17476561449E+04  0.92352897419E+02 0.  0.
         11    1    3    3    0    0 -0.32291355264E+03 -0.17512399372E+03 -0.87255836890E+03  0.94673105093E+03  0.00000000000E+00 0.  1.
        -11    1    3    3    0    0 -0.19353219795E+03 -0.16960080517E+03 -0.75846019108E+03  0.80092509400E+03  0.00000000000E+00 0. -1.
         22    1    1    2    0    0  0.51644575059E+03  0.34472479889E+03  0.28006038626E+04  0.28686117540E+04  0.00000000000E+00 0.  1.
<mgrwt>
<rscale>  0 0.44656466E+04</rscale>
<asrwt>0</asrwt>
<pdfrwt beam="1">  1        2 0.44506563E+00 0.44656466E+04</pdfrwt>
<pdfrwt beam="2">  1       -2 0.26512943E+00 0.44656466E+04</pdfrwt>
<totfact> 0.80004701E-02</totfact>
</mgrwt>
</event>
<event>
 6    1  0.1885829E-005  0.2388304E+04  0.7818608E-02  0.8443895E-01
         -2   -1    0    0    0  501 -0.00000000000E+00  0.00000000000E+00  0.79218975720E+03  0.79218975720E+03  0.00000000000E+00 0.  1.
          2   -1    0    0  501    0  0.00000000000E+00 -0.00000000000E+00 -0.18000726100E+04  0.18000726100E+04  0.00000000000E+00 0. -1.
         23    2    1    2    0    0 -0.51088256468E+03 -0.10772554929E+04 -0.52447079747E+03  0.13057291935E+04  0.91535333528E+02 0.  0.
         13    1    3    3    0    0 -0.27628336338E+03 -0.67867386190E+03 -0.30283453879E+03  0.79286787398E+03  0.00000000000E+00 0. -1.
        -13    1    3    3    0    0 -0.23459920130E+03 -0.39858163104E+03 -0.22163625868E+03  0.51286131948E+03  0.00000000000E+00 0.  1.
         22    1    1    2    0    0  0.51088256468E+03  0.10772554929E+04 -0.48341205533E+03  0.12865331738E+04  0.00000000000E+00 0.  1.
<mgrwt>
<rscale>  0 0.23883041E+04</rscale>
<asrwt>0</asrwt>
<pdfrwt beam="1">  1        2 0.27693424E+00 0.23883041E+04</pdfrwt>
<pdfrwt beam="2">  1       -2 0.12187535E+00 0.23883041E+04</pdfrwt>
<totfact> 0.39677442E+00</totfact>
</mgrwt>
</event>
<event>
 6    1  0.1885829E-005  0.7238656E+03  0.7818608E-02  0.9677267E-01
          2   -1    0    0  501    0  0.00000000000E+00  0.00000000000E+00  0.46679226073E+03  0.46679226073E+03  0.00000000000E+00 0. -1.
         -2   -1    0    0    0  501 -0.00000000000E+00 -0.00000000000E+00 -0.28062883072E+03  0.28062883072E+03  0.00000000000E+00 0.  1.
         23    2    1    2    0    0 -0.24849792432E+03 -0.19132128253E+03  0.26882644398E+03  0.42309374845E+03  0.91572984322E+02 0.  0.
         13    1    3    3    0    0 -0.14417512947E+03 -0.60821879085E+02  0.10076218056E+03  0.18611498049E+03  0.00000000000E+00 0.  1.
        -13    1    3    3    0    0 -0.10432279485E+03 -0.13049940345E+03  0.16806426342E+03  0.23697876796E+03  0.00000000000E+00 0. -1.
         22    1    1    2    0    0  0.24849792432E+03  0.19132128253E+03 -0.82663013966E+02  0.32432734300E+03  0.00000000000E+00 0. -1.
<mgrwt>
<rscale>  0 0.72386564E+03</rscale>
<asrwt>0</asrwt>
<pdfrwt beam="1">  1        2 0.71814194E-01 0.72386564E+03</pdfrwt>
<pdfrwt beam="2">  1       -2 0.43173666E-01 0.72386564E+03</pdfrwt>
<totfact> 0.34195940E+02</totfact>
</mgrwt>
</event>
<event>
 6    1  0.1885829E-005  0.2895733E+04  0.7818608E-02  0.8274148E-01
          2   -1    0    0  501    0  0.00000000000E+00  0.00000000000E+00  0.25174240321E+04  0.25174240321E+04  0.00000000000E+00 0. -1.
         -2   -1    0    0    0  501 -0.00000000000E+00 -0.00000000000E+00 -0.83272329369E+03  0.83272329369E+03  0.00000000000E+00 0.  1.
         23    2    1    2    0    0 -0.85051371225E+03 -0.23556332260E+03  0.21690389464E+04  0.23434462017E+04  0.90257939814E+02 0.  0.
         13    1    3    3    0    0 -0.50262911079E+03 -0.17659219038E+03  0.13716459489E+04  0.14714732189E+04  0.00000000000E+00 0. -1.
        -13    1    3    3    0    0 -0.34788460145E+03 -0.58971132223E+02  0.79739299748E+03  0.87197298284E+03  0.00000000000E+00 0.  1.
         22    1    1    2    0    0  0.85051371225E+03  0.23556332260E+03 -0.48433820792E+03  0.10067011241E+04  0.00000000000E+00 0.  1.
<mgrwt>
<rscale>  0 0.28957332E+04</rscale>
<asrwt>0</asrwt>
<pdfrwt beam="1">  1        2 0.38729600E+00 0.28957332E+04</pdfrwt>
<pdfrwt beam="2">  1       -2 0.12811128E+00 0.28957332E+04</pdfrwt>
<totfact> 0.13230189E+00</totfact>
</mgrwt>
</event>
<event>
 6    1  0.1885829E-005  0.2144793E+04  0.7818608E-02  0.8541765E-01
         -2   -1    0    0    0  501 -0.00000000000E+00  0.00000000000E+00  0.19475103384E+04  0.19475103384E+04  0.00000000000E+00 0.  1.
          2   -1    0    0  501    0  0.00000000000E+00 -0.00000000000E+00 -0.59051490374E+03  0.59051490374E+03  0.00000000000E+00 0. -1.
         23    2    1    2    0    0 -0.44496924614E+03 -0.96633670141E+03  0.53789693181E+03  0.11953686934E+04  0.88141666436E+02 0.  0.
         11    1    3    3    0    0 -0.25952646023E+03 -0.50003205216E+03  0.24517091182E+03  0.61440606503E+03  0.00000000000E+00 0.  1.
        -11    1    3    3    0    0 -0.18544278592E+03 -0.46630464925E+03  0.29272601999E+03  0.58096262835E+03  0.00000000000E+00 0. -1.
         22    1    1    2    0    0  0.44496924614E+03  0.96633670141E+03  0.81909850284E+03  0.13426565487E+04  0.00000000000E+00 0. -1.
<mgrwt>
<rscale>  0 0.21447927E+04</rscale>
<asrwt>0</asrwt>
<pdfrwt beam="1">  1        2 0.90848448E-01 0.21447927E+04</pdfrwt>
<pdfrwt beam="2">  1       -2 0.29961697E+00 0.21447927E+04</pdfrwt>
<totfact> 0.14845299E+00</totfact>
</mgrwt>
</event>
<event>
 6    1  0.1885829E-005  0.3462951E+04  0.7818608E-02  0.8122627E-01
         -1   -1    0    0    0  501 -0.00000000000E+00  0.00000000000E+00  0.10900332921E+04  0.10900332921E+04  0.00000000000E+00 0.  1.
          1   -1    0    0  501    0  0.00000000000E+00 -0.00000000000E+00 -0.27503815009E+04  0.27503815009E+04  0.00000000000E+00 0. -1.
         23    2    1    2    0    0 -0.77338839944E+03  0.11075542096E+04  0.36818635170E+03  0.14032528355E+04  0.93548849351E+02 0.  0.
         13    1    3    3    0    0 -0.65262183723E+03  0.98194816182E+03  0.30442365804E+03  0.12177073616E+04  0.00000000000E+00 0.  1.
        -13    1    3    3    0    0 -0.12076656221E+03  0.12560604779E+03  0.63762693656E+02  0.18554547392E+03  0.00000000000E+00 0. -1.
         22    1    1    2    0    0  0.77338839944E+03 -0.11075542096E+04 -0.20285345605E+04  0.24371619574E+04  0.00000000000E+00 0. -1.
<mgrwt>
<rscale>  0 0.34629510E+04</rscale>
<asrwt>0</asrwt>
<pdfrwt beam="1">  1        1 0.42313561E+00 0.34629510E+04</pdfrwt>
<pdfrwt beam="2">  1       -1 0.16769743E+00 0.34629510E+04</pdfrwt>
<totfact> 0.18921972E-01</totfact>
</mgrwt>
</event>
<event>
 6    1  0.1885829E-005  0.2200846E+04  0.7818608E-02  0.8518076E-01
         -2   -1    0    0    0  501 -0.00000000000E+00  0.00000000000E+00  0.35465203689E+03  0.35465203689E+03  0.00000000000E+00 0.  1.
          2   -1    0    0  501    0  0.00000000000E+00 -0.00000000000E+00 -0.34144180368E+04  0.34144180368E+04  0.00000000000E+00 0. -1.
         23    2    1    2    0    0 -0.28375444706E+03 -0.10410910997E+04 -0.18856019583E+04  0.21743762282E+04  0.89610115565E+02 0.  0.
         11    1    3    3    0    0 -0.20182900943E+03 -0.70063494446E+03 -0.13533101558E+04  0.15372288874E+04  0.00000000000E+00 0. -1.
        -11    1    3    3    0    0 -0.81925437624E+02 -0.34045615522E+03 -0.53229180241E+03  0.63714734079E+03  0.00000000000E+00 0.  1.
         22    1    1    2    0    0  0.28375444706E+03  0.10410910997E+04 -0.11741640417E+04  0.15946938455E+04  0.00000000000E+00 0.  1.
<mgrwt>
<rscale>  0 0.22008456E+04</rscale>
<asrwt>0</asrwt>
<pdfrwt beam="1">  1        2 0.52529505E+00 0.22008456E+04</pdfrwt>
<pdfrwt beam="2">  1       -2 0.54561855E-01 0.22008456E+04</pdfrwt>
<totfact> 0.27008339E+00</totfact>
</mgrwt>
</event>
<event>
 6    1  0.1885829E-005  0.1351195E+04  0.7818608E-02  0.8989924E-01
         -1   -1    0    0    0  501 -0.00000000000E+00  0.00000000000E+00  0.47445391547E+03  0.47445391547E+03  0.00000000000E+00 0.  1.
          1   -1    0    0  501    0  0.00000000000E+00 -0.00000000000E+00 -0.96201546490E+03  0.96201546490E+03  0.00000000000E+00 0. -1.
         23    2    1    2    0    0 -0.63991593443E+03  0.20036376358E+03 -0.19060423825E+03  0.70310611053E+03  0.91597959193E+02 0.  0.
         11    1    3    3    0    0 -0.23300893810E+03  0.10970618757E+03 -0.44490172150E+02  0.26135796954E+03  0.00000000000E+00 0. -1.
        -11    1    3    3    0    0 -0.40690699633E+03  0.90657576007E+02 -0.14611406610E+03  0.44174814098E+03  0.00000000000E+00 0.  1.
         22    1    1    2    0    0  0.63991593443E+03 -0.20036376358E+03 -0.29695731118E+03  0.73336326984E+03  0.00000000000E+00 0.  1.
<mgrwt>
<rscale>  0 0.13511950E+04</rscale>
<asrwt>0</asrwt>
<pdfrwt beam="1">  1        1 0.14800238E+00 0.13511950E+04</pdfrwt>
<pdfrwt beam="2">  1       -1 0.72992911E-01 0.13511950E+04</pdfrwt>
<totfact> 0.30029834E+01</totfact>
</mgrwt>
</event>
<event>
 6    1  0.1885829E-005  0.1756905E+04  0.7818608E-02  0.8729559E-01
          2   -1    0    0  501    0  0.00000000000E+00  0.00000000000E+00  0.26485281970E+03  0.26485281970E+03  0.00000000000E+00 0. -1.
         -2   -1    0    0    0  501 -0.00000000000E+00 -0.00000000000E+00 -0.29136126906E+04  0.29136126906E+04  0.00000000000E+00 0.  1.
         23    2    1    2    0    0 -0.48560930769E+03  0.72908642964E+03 -0.13138379031E+04  0.15817814208E+04  0.92081517772E+02 0.  0.
         13    1    3    3    0    0 -0.70612156368E+02  0.11007843680E+03 -0.14205228996E+03  0.19308597038E+03  0.00000000000E+00 0. -1.
        -13    1    3    3    0    0 -0.41499715132E+03  0.61900799284E+03 -0.11717856132E+04  0.13886954504E+04  0.00000000000E+00 0.  1.
         22    1    1    2    0    0  0.48560930769E+03 -0.72908642964E+03 -0.13349219678E+04  0.15966840895E+04  0.00000000000E+00 0. -1.
<mgrwt>
<rscale>  0 0.17569047E+04</rscale>
<asrwt>0</asrwt>
<pdfrwt beam="1">  1        2 0.40746587E-01 0.17569047E+04</pdfrwt>
<pdfrwt beam="2">  1       -2 0.44824811E+00 0.17569047E+04</pdfrwt>
<totfact> 0.42787639E-01</totfact>
</mgrwt>
</event>
<event>
 6    1  0.1885829E-005  0.1277951E+04  0.7818608E-02  0.9047235E-01
         -2   -1    0    0    0  501 -0.00000000000E+00  0.00000000000E+00  0.20598966986E+04  0.20598966986E+04  0.00000000000E+00 0.  1.
          2   -1    0    0  501    0  0.00000000000E+00 -0.00000000000E+00 -0.19820885770E+03  0.19820885770E+03  0.00000000000E+00 0. -1.
         23    2    1    2    0    0  0.18025601555E+03 -0.41199193618E+03  0.14115297730E+03  0.47977212201E+03  0.89596536975E+02 0.  0.
         11    1    3    3    0    0  0.14733640133E+03 -0.38020189691E+03  0.14741678266E+03  0.43358183240E+03  0.00000000000E+00 0.  1.
        -11    1    3    3    0    0  0.32919614222E+02 -0.31790039268E+02 -0.62638053622E+01  0.46190289616E+02  0.00000000000E+00 0. -1.
         22    1    1    2    0    0 -0.18025601555E+03  0.41199193618E+03  0.17205348636E+04  0.17783334343E+04  0.00000000000E+00 0.  1.
<mgrwt>
<rscale>  0 0.12779511E+04</rscale>
<asrwt>0</asrwt>
<pdfrwt beam="1">  1        2 0.30493672E-01 0.12779511E+04</pdfrwt>
<pdfrwt beam="2">  1       -2 0.31690717E+00 0.12779511E+04</pdfrwt>
<totfact> 0.43304470E+00</totfact>
</mgrwt>
</event>
<event>
 6    1  0.1885829E-005  0.3406420E+04  0.7818608E-02  0.8136333E-01
         -2   -1    0    0    0  501 -0.00000000000E+00  0.00000000000E+00  0.15394875010E+04  0.15394875010E+04  0.00000000000E+00 0.  1.
          2   -1    0    0  501    0  0.00000000000E+00 -0.00000000000E+00 -0.18843436437E+04  0.18843436437E+04  0.00000000000E+00 0. -1.
         23    2    1    2    0    0  0.16246707894E+04  0.18852259514E+03  0.30065687126E+03  0.16654844798E+04  0.91367693781E+02 0.  0.
         11    1    3    3    0    0  0.18112164481E+03  0.27702220775E+01  0.56092740888E+02  0.18962890056E+03  0.00000000000E+00 0. -1.
        -11    1    3    3    0    0  0.14435491446E+04  0.18575237306E+03  0.24456413037E+03  0.14758555792E+04  0.00000000000E+00 0.  1.
         22    1    1    2    0    0 -0.16246707894E+04 -0.18852259514E+03 -0.64551301396E+03  0.17583466649E+04  0.00000000000E+00 0.  1.
<mgrwt>
<rscale>  0 0.34064195E+04</rscale>
<asrwt>0</asrwt>
<pdfrwt beam="1">  1        2 0.28989902E+00 0.34064195E+04</pdfrwt>
<pdfrwt beam="2">  1       -2 0.23684423E+00 0.34064195E+04</pdfrwt>
<totfact> 0.49710798E-01</totfact>
</mgrwt>
</event>
<event>
 6    1  0.1885829E-005  0.3130422E+04  0.7818608E-02  0.8207438E-01
          2   -1    0    0  501    0  0.00000000000E+00  0.00000000000E+00  0.15104974169E+04  0.15104974169E+04  0.00000000000E+00 0. -1.
         -2   -1    0    0    0  501 -0.00000000000E+00 -0.00000000000E+00 -0.16219062758E+04  0.16219062758E+04  0.00000000000E+00 0.  1.
         23    2    1    2    0    0  0.12594765546E+04 -0.72867743394E+03 -0.62885480883E+03  0.15880584252E+04  0.96016649460E+02 0.  0.
         13    1    3    3    0    0  0.10483852938E+04 -0.56653777591E+03 -0.52827148648E+03  0.13035135363E+04  0.00000000000E+00 0. -1.
        -13    1    3    3    0    0  0.21109126079E+03 -0.16213965803E+03 -0.10058332235E+03  0.28454488894E+03  0.00000000000E+00 0.  1.
         22    1    1    2    0    0 -0.12594765546E+04  0.72867743394E+03  0.51744594990E+03  0.15443452675E+04  0.00000000000E+00 0.  1.
<mgrwt>
<rscale>  0 0.31304219E+04</rscale>
<asrwt>0</asrwt>
<pdfrwt beam="1">  1        2 0.23238422E+00 0.31304219E+04</pdfrwt>
<pdfrwt beam="2">  1       -2 0.24952404E+00 0.31304219E+04</pdfrwt>
<totfact> 0.68609867E-01</totfact>
</mgrwt>
</event>
<event>
 6    1  0.1885829E-005  0.1125796E+04  0.7818608E-02  0.9180408E-01
          2   -1    0    0  501    0  0.00000000000E+00  0.00000000000E+00  0.15223223602E+04  0.15223223602E+04  0.00000000000E+00 0. -1.
         -2   -1    0    0    0  501 -0.00000000000E+00 -0.00000000000E+00 -0.20813870554E+03  0.20813870554E+03  0.00000000000E+00 0.  1.
         23    2    1    2    0    0  0.21324702551E+03 -0.32150398434E+03  0.37472119736E+02  0.39673266413E+03  0.84578609591E+02 0.  0.
         13    1    3    3    0    0  0.20535846081E+03 -0.29451559222E+03  0.55536402897E+02  0.36331229477E+03  0.00000000000E+00 0. -1.
        -13    1    3    3    0    0  0.78885646996E+01 -0.26988392120E+02 -0.18064283161E+02  0.33420369363E+02  0.00000000000E+00 0.  1.
         22    1    1    2    0    0 -0.21324702551E+03  0.32150398434E+03  0.12767115349E+04  0.13337284016E+04  0.00000000000E+00 0. -1.
<mgrwt>
<rscale>  0 0.11257961E+04</rscale>
<asrwt>0</asrwt>
<pdfrwt beam="1">  1        2 0.23420343E+00 0.11257961E+04</pdfrwt>
<pdfrwt beam="2">  1       -2 0.32021340E-01 0.11257961E+04</pdfrwt>
<totfact> 0.11082864E+02</totfact>
</mgrwt>
</event>
<event>
 6    1  0.1885829E-005  0.5924327E+04  0.7818608E-02  0.7699856E-01
         -2   -1    0    0    0  501 -0.00000000000E+00  0.00000000000E+00  0.25658456964E+04  0.25658456964E+04  0.00000000000E+00 0.  1.
          2   -1    0    0  501    0  0.00000000000E+00 -0.00000000000E+00 -0.34196958198E+04  0.34196958198E+04  0.00000000000E+00 0. -1.
         23    2    1    2    0    0  0.10522033296E+04  0.21894701858E+04 -0.21385992789E+04  0.32375437116E+04  0.84680973239E+02 0.  0.
         11    1    3    3    0    0  0.74423660105E+03  0.14759838001E+04 -0.14227558630E+04  0.21809746772E+04  0.00000000000E+00 0.  1.
        -11    1    3    3    0    0  0.30796672858E+03  0.71348638566E+03 -0.71584341590E+03  0.10565690344E+04  0.00000000000E+00 0. -1.
         22    1    1    2    0    0 -0.10522033296E+04 -0.21894701858E+04  0.12847491555E+04  0.27479978046E+04  0.00000000000E+00 0.  1.
<mgrwt>
<rscale>  0 0.59243267E+04</rscale>
<asrwt>0</asrwt>
<pdfrwt beam="1">  1        2 0.52610705E+00 0.59243267E+04</pdfrwt>
<pdfrwt beam="2">  1       -2 0.39474549E+00 0.59243267E+04</pdfrwt>
<totfact> 0.50230037E-03</totfact>
</mgrwt>
</event>
<event>
 6    1  0.1885829E-005  0.3438884E+04  0.7818608E-02  0.8128428E-01
         -2   -1    0    0    0  501 -0.00000000000E+00  0.00000000000E+00  0.20398219417E+04  0.20398219417E+04  0.00000000000E+00 0.  1.
          2   -1    0    0  501    0  0.00000000000E+00 -0.00000000000E+00 -0.14493815335E+04  0.14493815335E+04  0.00000000000E+00 0. -1.
         23    2    1    2    0    0  0.87004372984E+03 -0.11861096214E+04 -0.60549799112E+03  0.15933920972E+04  0.91860939339E+02 0.  0.
         13    1    3    3    0    0  0.24326952565E+03 -0.33136864482E+03 -0.21431292462E+03  0.46358954964E+03  0.00000000000E+00 0. -1.
        -13    1    3    3    0    0  0.62677420419E+03 -0.85474097663E+03 -0.39118506651E+03  0.11298025475E+04  0.00000000000E+00 0.  1.
         22    1    1    2    0    0 -0.87004372984E+03  0.11861096214E+04  0.11959383994E+04  0.18958113780E+04  0.00000000000E+00 0.  1.
<mgrwt>
<rscale>  0 0.34388837E+04</rscale>
<asrwt>0</asrwt>
<pdfrwt beam="1">  1        2 0.22298177E+00 0.34388837E+04</pdfrwt>
<pdfrwt beam="2">  1       -2 0.31381876E+00 0.34388837E+04</pdfrwt>
<totfact> 0.29270608E-01</totfact>
</mgrwt>
</event>
<event>
 6    1  0.1885829E-005  0.2691575E+04  0.7818608E-02  0.8337744E-01
         -2   -1    0    0    0  501 -0.00000000000E+00  0.00000000000E+00  0.18426137483E+04  0.18426137483E+04  0.00000000000E+00 0.  1.
          2   -1    0    0  501    0  0.00000000000E+00 -0.00000000000E+00 -0.98292093636E+03  0.98292093636E+03  0.00000000000E+00 0. -1.
         23    2    1    2    0    0 -0.15996784353E+03  0.12400254304E+04  0.94847536557E+03  0.15720853953E+04  0.92704864846E+02 0.  0.
         11    1    3    3    0    0 -0.56369070047E+02  0.71690386386E+03  0.50858727900E+03  0.88078921567E+03  0.00000000000E+00 0. -1.
        -11    1    3    3    0    0 -0.10359877348E+03  0.52312156657E+03  0.43988808657E+03  0.69129617964E+03  0.00000000000E+00 0.  1.
         22    1    1    2    0    0  0.15996784353E+03 -0.12400254304E+04 -0.88782553659E+02  0.12534492893E+04  0.00000000000E+00 0. -1.
<mgrwt>
<rscale>  0 0.26915747E+04</rscale>
<asrwt>0</asrwt>
<pdfrwt beam="1">  1        2 0.15121861E+00 0.26915747E+04</pdfrwt>
<pdfrwt beam="2">  1       -2 0.28347904E+00 0.26915747E+04</pdfrwt>
<totfact> 0.90963216E-01</totfact>
</mgrwt>
</event>
<event>
 6    1  0.1885829E-005  0.2297862E+04  0.7818608E-02  0.8478764E-01
         -2   -1    0    0    0  501 -0.00000000000E+00  0.00000000000E+00  0.51612649156E+03  0.51612649156E+03  0.00000000000E+00 0.  1.
          2   -1    0    0  501    0  0.00000000000E+00 -0.00000000000E+00 -0.25575955876E+04  0.25575955876E+04  0.00000000000E+00 0. -1.
         23    2    1    2    0    0  0.50218742443E+03 -0.10288966852E+04 -0.92614392117E+03  0.14753570258E+04  0.90084365584E+02 0.  0.
         11    1    3    3    0    0  0.22650779986E+03 -0.36584158356E+03 -0.35556139846E+03  0.55818433848E+03  0.00000000000E+00 0. -1.
        -11    1    3    3    0    0  0.27567962457E+03 -0.66305510162E+03 -0.57058252271E+03  0.91717268735E+03  0.00000000000E+00 0.  1.
         22    1    1    2    0    0 -0.50218742443E+03  0.10288966852E+04 -0.11153251749E+04  0.15983650534E+04  0.00000000000E+00 0.  1.
<mgrwt>
<rscale>  0 0.22978623E+04</rscale>
<asrwt>0</asrwt>
<pdfrwt beam="1">  1        2 0.39347624E+00 0.22978623E+04</pdfrwt>
<pdfrwt beam="2">  1       -2 0.79404077E-01 0.22978623E+04</pdfrwt>
<totfact> 0.41077157E+00</totfact>
</mgrwt>
</event>
<event>
 6    1  0.1885829E-005  0.1565491E+04  0.7818608E-02  0.8842033E-01
         -2   -1    0    0    0  501 -0.00000000000E+00  0.00000000000E+00  0.22782334478E+03  0.22782334478E+03  0.00000000000E+00 0.  1.
          2   -1    0    0  501    0  0.00000000000E+00 -0.00000000000E+00 -0.26893242921E+04  0.26893242921E+04  0.00000000000E+00 0. -1.
         23    2    1    2    0    0  0.20278188962E+03  0.74652552190E+03 -0.10435430589E+04  0.13018998470E+04  0.86834590342E+02 0.  0.
         11    1    3    3    0    0  0.14664136612E+03  0.37968482535E+03 -0.56402030056E+03  0.69554522233E+03  0.00000000000E+00 0.  1.
        -11    1    3    3    0    0  0.56140523496E+02  0.36684069654E+03 -0.47952275838E+03  0.60635462464E+03  0.00000000000E+00 0. -1.
         22    1    1    2    0    0 -0.20278188962E+03 -0.74652552190E+03 -0.14179578883E+04  0.16152477899E+04  0.00000000000E+00 0. -1.
<mgrwt>
<rscale>  0 0.15654914E+04</rscale>
<asrwt>0</asrwt>
<pdfrwt beam="1">  1        2 0.41374219E+00 0.15654914E+04</pdfrwt>
<pdfrwt beam="2">  1       -2 0.35049746E-01 0.15654914E+04</pdfrwt>
<totfact> 0.19866038E+01</totfact>
</mgrwt>
</event>
<event>
 6    1  0.1885829E-005  0.1188911E+04  0.7818608E-02  0.9122618E-01
         -2   -1    0    0    0  501 -0.00000000000E+00  0.00000000000E+00  0.40881719432E+03  0.40881719432E+03  0.00000000000E+00 0.  1.
          2   -1    0    0  501    0  0.00000000000E+00 -0.00000000000E+00 -0.86439012120E+03  0.86439012120E+03  0.00000000000E+00 0. -1.
         23    2    1    2    0    0 -0.24135595894E+03 -0.49954123299E+03 -0.11238767199E+02  0.56241410520E+03  0.91592431221E+02 0.  0.
         13    1    3    3    0    0 -0.11859557568E+03 -0.17984891850E+03  0.29915487552E+02  0.21749823092E+03  0.00000000000E+00 0.  1.
        -13    1    3    3    0    0 -0.12276038326E+03 -0.31969231449E+03 -0.41154254752E+02  0.34491587427E+03  0.00000000000E+00 0. -1.
         22    1    1    2    0    0  0.24135595894E+03  0.49954123299E+03 -0.44433415968E+03  0.71079321032E+03  0.00000000000E+00 0. -1.
<mgrwt>
<rscale>  0 0.11889113E+04</rscale>
<asrwt>0</asrwt>
<pdfrwt beam="1">  1        2 0.13298309E+00 0.11889113E+04</pdfrwt>
<pdfrwt beam="2">  1       -2 0.62894954E-01 0.11889113E+04</pdfrwt>
<totfact> 0.71775873E+01</totfact>
</mgrwt>
</event>
<event>
 6    1  0.1885829E-005  0.4776511E+04  0.7818608E-02  0.7863939E-01
         -2   -1    0    0    0  501 -0.00000000000E+00  0.00000000000E+00  0.13003141421E+04  0.13003141421E+04  0.00000000000E+00 0.  1.
          2   -1    0    0  501    0  0.00000000000E+00 -0.00000000000E+00 -0.43864515022E+04  0.43864515022E+04  0.00000000000E+00 0. -1.
         23    2    1    2    0    0  0.17046081221E+03 -0.13852899609E+04  0.76244339478E+03  0.15929093949E+04  0.89192185038E+02 0.  0.
         11    1    3    3    0    0  0.12043615430E+03 -0.87266883640E+03  0.43401928105E+03  0.98205320711E+03  0.00000000000E+00 0.  1.
        -11    1    3    3    0    0  0.50024657907E+02 -0.51262112450E+03  0.32842411373E+03  0.61085618779E+03  0.00000000000E+00 0. -1.
         22    1    1    2    0    0 -0.17046081221E+03  0.13852899609E+04 -0.38485807548E+04  0.40938562494E+04  0.00000000000E+00 0. -1.
<mgrwt>
<rscale>  0 0.47765112E+04</rscale>
<asrwt>0</asrwt>
<pdfrwt beam="1">  1        2 0.67483869E+00 0.47765112E+04</pdfrwt>
<pdfrwt beam="2">  1       -2 0.20004833E+00 0.47765112E+04</pdfrwt>
<totfact> 0.15439586E-02</totfact>
</mgrwt>
</event>
<event>
 6    1  0.1885829E-005  0.1432653E+04  0.7818608E-02  0.8930516E-01
          2   -1    0    0  501    0  0.00000000000E+00  0.00000000000E+00  0.15829315708E+04  0.15829315708E+04  0.00000000000E+00 0. -1.
         -2   -1    0    0    0  501 -0.00000000000E+00 -0.00000000000E+00 -0.32416015456E+03  0.32416015456E+03  0.00000000000E+00 0.  1.
         23    2    1    2    0    0  0.80039825028E+02  0.45535132504E+03  0.13552662123E+04  0.14347968509E+04  0.90245743843E+02 0.  0.
         11    1    3    3    0    0  0.81432410584E+02  0.21537302044E+03  0.62131434609E+03  0.66260719290E+03  0.00000000000E+00 0. -1.
        -11    1    3    3    0    0 -0.13925855565E+01  0.23997830460E+03  0.73395186624E+03  0.77218965801E+03  0.00000000000E+00 0.  1.
         22    1    1    2    0    0 -0.80039825028E+02 -0.45535132504E+03 -0.96494796054E+02  0.47229487450E+03  0.00000000000E+00 0.  1.
<mgrwt>
<rscale>  0 0.14326526E+04</rscale>
<asrwt>0</asrwt>
<pdfrwt beam="1">  1        2 0.24352793E+00 0.14326526E+04</pdfrwt>
<pdfrwt beam="2">  1       -2 0.49870794E-01 0.14326526E+04</pdfrwt>
<totfact> 0.42104341E+01</totfact>
</mgrwt>
</event>
<event>
 6    1  0.1885829E-005  0.4411151E+04  0.7818608E-02  0.7926379E-01
          2   -1    0    0  501    0  0.00000000000E+00  0.00000000000E+00  0.18773311476E+04  0.18773311476E+04  0.00000000000E+00 0. -1.
         -2   -1    0    0    0  501 -0.00000000000E+00 -0.00000000000E+00 -0.25912115774E+04  0.25912115774E+04  0.00000000000E+00 0.  1.
         23    2    1    2    0    0 -0.19018706616E+04  0.56648208025E+03 -0.13300533142E+04  0.23906392181E+04  0.90000510386E+02 0.  0.
         11    1    3    3    0    0 -0.92740267821E+03  0.30156382809E+03 -0.60785168831E+03  0.11491301688E+04  0.00000000000E+00 0.  1.
        -11    1    3    3    0    0 -0.97446798338E+03  0.26491825216E+03 -0.72220162593E+03  0.12415090493E+04  0.00000000000E+00 0. -1.
         22    1    1    2    0    0  0.19018706616E+04 -0.56648208025E+03  0.61617288444E+03  0.20779035070E+04  0.00000000000E+00 0. -1.
<mgrwt>
<rscale>  0 0.44111505E+04</rscale>
<asrwt>0</asrwt>
<pdfrwt beam="1">  1        2 0.28882018E+00 0.44111505E+04</pdfrwt>
<pdfrwt beam="2">  1       -2 0.39864794E+00 0.44111505E+04</pdfrwt>
<totfact> 0.45188258E-02</totfact>
</mgrwt>
</event>
<event>
 6    1  0.1885829E-005  0.5090386E+03  0.7818608E-02  0.1011446E+00
          1   -1    0    0  501    0  0.00000000000E+00  0.00000000000E+00  0.16734670055E+03  0.16734670055E+03  0.00000000000E+00 0. -1.
         -1   -1    0    0    0  501 -0.00000000000E+00 -0.00000000000E+00 -0.38710104085E+03  0.38710104085E+03  0.00000000000E+00 0.  1.
         23    2    1    2    0    0 -0.18789320961E+03 -0.11598659912E+03 -0.23162638908E+03  0.33331950951E+03  0.93243562286E+02 0.  0.
         13    1    3    3    0    0 -0.16997160055E+03 -0.59218514491E+02 -0.17936522951E+03  0.25410443327E+03  0.00000000000E+00 0.  1.
        -13    1    3    3    0    0 -0.17921609065E+02 -0.56768084628E+02 -0.52261159572E+02  0.79215076239E+02  0.00000000000E+00 0. -1.
         22    1    1    2    0    0  0.18789320961E+03  0.11598659912E+03  0.11872048784E+02  0.22112823188E+03  0.00000000000E+00 0. -1.
<mgrwt>
<rscale>  0 0.50903863E+03</rscale>
<asrwt>0</asrwt>
<pdfrwt beam="1">  1        1 0.25745646E-01 0.50903863E+03</pdfrwt>
<pdfrwt beam="2">  1       -1 0.59554007E-01 0.50903863E+03</pdfrwt>
<totfact> 0.54286501E+02</totfact>
</mgrwt>
</event>
<event>
 6    1  0.1885829E-005  0.2034802E+04  0.7818608E-02  0.8590520E-01
          2   -1    0    0  501    0  0.00000000000E+00  0.00000000000E+00  0.15810368217E+04  0.15810368217E+04  0.00000000000E+00 0. -1.
         -2   -1    0    0    0  501 -0.00000000000E+00 -0.00000000000E+00 -0.65469982319E+03  0.65469982319E+03  0.00000000000E+00 0.  1.
         23    2    1    2    0    0  0.78445851187E+02  0.38519706726E+03 -0.56438942757E+03  0.69405061666E+03  0.92953215903E+02 0.  0.
         13    1    3    3    0    0  0.88416084355E+02  0.38294106898E+03 -0.54259590184E+03  0.66997878995E+03  0.00000000000E+00 0. -1.
        -13    1    3    3    0    0 -0.99702331677E+01  0.22559982720E+01 -0.21793525734E+02  0.24071826718E+02  0.00000000000E+00 0.  1.
         22    1    1    2    0    0 -0.78445851187E+02 -0.38519706726E+03  0.14907264261E+04  0.15416860282E+04  0.00000000000E+00 0. -1.
<mgrwt>
<rscale>  0 0.20348017E+04</rscale>
<asrwt>0</asrwt>
<pdfrwt beam="1">  1        2 0.24323643E+00 0.20348017E+04</pdfrwt>
<pdfrwt beam="2">  1       -2 0.10072305E+00 0.20348017E+04</pdfrwt>
<totfact> 0.85976144E+00</totfact>
</mgrwt>
</event>
<event>
 6    1  0.1885829E-005  0.8609198E+03  0.7818608E-02  0.9475797E-01
         -2   -1    0    0    0  501 -0.00000000000E+00  0.00000000000E+00  0.21355623621E+03  0.21355623621E+03  0.00000000000E+00 0.  1.
          2   -1    0    0  501    0  0.00000000000E+00 -0.00000000000E+00 -0.86766719669E+03  0.86766719669E+03  0.00000000000E+00 0. -1.
         23    2    1    2    0    0  0.10715646580E+03 -0.37937915576E+03 -0.53299492904E+03  0.66881569163E+03  0.88429536948E+02 0.  0.
         13    1    3    3    0    0  0.39393124789E+02 -0.12585295952E+03 -0.11346071963E+03  0.17396586044E+03  0.00000000000E+00 0. -1.
        -13    1    3    3    0    0  0.67763341007E+02 -0.25352619624E+03 -0.41953420941E+03  0.49484983119E+03  0.00000000000E+00 0.  1.
         22    1    1    2    0    0 -0.10715646580E+03  0.37937915576E+03 -0.12111603144E+03  0.41240774127E+03  0.00000000000E+00 0. -1.
<mgrwt>
<rscale>  0 0.86091984E+03</rscale>
<asrwt>0</asrwt>
<pdfrwt beam="1">  1        2 0.13348726E+00 0.86091984E+03</pdfrwt>
<pdfrwt beam="2">  1       -2 0.32854805E-01 0.86091984E+03</pdfrwt>
<totfact> 0.26740414E+02</totfact>
</mgrwt>
</event>
<event>
 6    1  0.1885829E-005  0.2046334E+04  0.7818608E-02  0.8585259E-01
          2   -1    0    0  501    0  0.00000000000E+00  0.00000000000E+00  0.16024569385E+04  0.16024569385E+04  0.00000000000E+00 0. -1.
         -2   -1    0    0    0  501 -0.00000000000E+00 -0.00000000000E+00 -0.65329114932E+03  0.65329114932E+03  0.00000000000E+00 0.  1.
         23    2    1    2    0    0  0.52007856436E+03  0.76175914846E+03  0.95847626694E+03  0.13333352744E+04  0.91364579015E+02 0.  0.
         13    1    3    3    0    0  0.10370936069E+03  0.21846788971E+03  0.27074802813E+03  0.36302664512E+03  0.00000000000E+00 0.  1.
        -13    1    3    3    0    0  0.41636920368E+03  0.54329125875E+03  0.68772823881E+03  0.97030862928E+03  0.00000000000E+00 0. -1.
         22    1    1    2    0    0 -0.52007856436E+03 -0.76175914846E+03 -0.93104777515E+01  0.92241281342E+03  0.00000000000E+00 0.  1.
<mgrwt>
<rscale>  0 0.20463342E+04</rscale>
<asrwt>0</asrwt>
<pdfrwt beam="1">  1        2 0.24653184E+00 0.20463342E+04</pdfrwt>
<pdfrwt beam="2">  1       -2 0.10050633E+00 0.20463342E+04</pdfrwt>
<totfact> 0.83983337E+00</totfact>
</mgrwt>
</event>
<event>
 6    1  0.1885829E-005  0.2141450E+04  0.7818608E-02  0.8543201E-01
          2   -1    0    0  501    0  0.00000000000E+00  0.00000000000E+00  0.11296581065E+04  0.11296581065E+04  0.00000000000E+00 0. -1.
         -2   -1    0    0    0  501 -0.00000000000E+00 -0.00000000000E+00 -0.10148662825E+04  0.10148662825E+04  0.00000000000E+00 0.  1.
         23    2    1    2    0    0  0.46463420043E+03  0.34532566292E+03 -0.84220752260E+03  0.10260510979E+04  0.91283025254E+02 0.  0.
         11    1    3    3    0    0  0.13873841847E+03  0.15273976636E+03 -0.26663902155E+03  0.33715597696E+03  0.00000000000E+00 0.  1.
        -11    1    3    3    0    0  0.32589578196E+03  0.19258589655E+03 -0.57556850105E+03  0.68889512094E+03  0.00000000000E+00 0. -1.
         22    1    1    2    0    0 -0.46463420043E+03 -0.34532566292E+03  0.95699934653E+03  0.11184732911E+04  0.00000000000E+00 0. -1.
<mgrwt>
<rscale>  0 0.21414499E+04</rscale>
<asrwt>0</asrwt>
<pdfrwt beam="1">  1        2 0.17379356E+00 0.21414499E+04</pdfrwt>
<pdfrwt beam="2">  1       -2 0.15613327E+00 0.21414499E+04</pdfrwt>
<totfact> 0.51647202E+00</totfact>
</mgrwt>
</event>
<event>
 6    1  0.1885829E-005  0.2338460E+04  0.7818608E-02  0.8462909E-01
          2   -1    0    0  501    0  0.00000000000E+00  0.00000000000E+00  0.29228161911E+04  0.29228161911E+04  0.00000000000E+00 0. -1.
         -2   -1    0    0    0  501 -0.00000000000E+00 -0.00000000000E+00 -0.46773352851E+03  0.46773352851E+03  0.00000000000E+00 0.  1.
         23    2    1    2    0    0  0.10120746133E+04 -0.31770889567E+03  0.52453636709E+03  0.11877689851E+04  0.10209209693E+03 0.  0.
         13    1    3    3    0    0  0.62278357806E+03 -0.22645537660E+03  0.28253463223E+03  0.72039380973E+03  0.00000000000E+00 0. -1.
        -13    1    3    3    0    0  0.38929103525E+03 -0.91253519074E+02  0.24200173486E+03  0.46737517537E+03  0.00000000000E+00 0.  1.
         22    1    1    2    0    0 -0.10120746133E+04  0.31770889567E+03  0.19305462955E+04  0.22027807345E+04  0.00000000000E+00 0. -1.
<mgrwt>
<rscale>  0 0.23384603E+04</rscale>
<asrwt>0</asrwt>
<pdfrwt beam="1">  1        2 0.44966402E+00 0.23384603E+04</pdfrwt>
<pdfrwt beam="2">  1       -2 0.71959007E-01 0.23384603E+04</pdfrwt>
<totfact> 0.30772125E+00</totfact>
</mgrwt>
</event>
<event>
 6    1  0.1885829E-005  0.1890272E+04  0.7818608E-02  0.8659714E-01
         -2   -1    0    0    0  501 -0.00000000000E+00  0.00000000000E+00  0.18269616754E+04  0.18269616754E+04  0.00000000000E+00 0.  1.
          2   -1    0    0  501    0  0.00000000000E+00 -0.00000000000E+00 -0.48894403569E+03  0.48894403569E+03  0.00000000000E+00 0. -1.
         23    2    1    2    0    0  0.10069756700E+03  0.81085624246E+03  0.94012587028E+02  0.82755883721E+03  0.91582840077E+02 0.  0.
         11    1    3    3    0    0 -0.29770944442E+00  0.28262304804E+03  0.58294961389E+02  0.28857265712E+03  0.00000000000E+00 0. -1.
        -11    1    3    3    0    0  0.10099527644E+03  0.52823319442E+03  0.35717625640E+02  0.53898618009E+03  0.00000000000E+00 0.  1.
         22    1    1    2    0    0 -0.10069756700E+03 -0.81085624246E+03  0.12440050527E+04  0.14883468739E+04  0.00000000000E+00 0. -1.
<mgrwt>
<rscale>  0 0.18902720E+04</rscale>
<asrwt>0</asrwt>
<pdfrwt beam="1">  1        2 0.75222160E-01 0.18902720E+04</pdfrwt>
<pdfrwt beam="2">  1       -2 0.28107102E+00 0.18902720E+04</pdfrwt>
<totfact> 0.24592107E+00</totfact>
</mgrwt>
</event>
<event>
 6    1  0.1885829E-005  0.1584365E+04  0.7818608E-02  0.8830211E-01
          2   -1    0    0  501    0  0.00000000000E+00  0.00000000000E+00  0.18407486078E+04  0.18407486078E+04  0.00000000000E+00 0. -1.
         -2   -1    0    0    0  501 -0.00000000000E+00 -0.00000000000E+00 -0.34092294841E+03  0.34092294841E+03  0.00000000000E+00 0.  1.
         23    2    1    2    0    0 -0.51316876492E+03 -0.13845731097E+03  0.15564771416E+04  0.16471418576E+04  0.89121257090E+02 0.  0.
         11    1    3    3    0    0 -0.88247536130E+02  0.72610152071E+01  0.21808343641E+03  0.23537360772E+03  0.00000000000E+00 0. -1.
        -11    1    3    3    0    0 -0.42492122879E+03 -0.14571832618E+03  0.13383937052E+04  0.14117682499E+04  0.00000000000E+00 0.  1.
         22    1    1    2    0    0  0.51316876492E+03  0.13845731097E+03 -0.56651482223E+02  0.53452969860E+03  0.00000000000E+00 0.  1.
<mgrwt>
<rscale>  0 0.15843654E+04</rscale>
<asrwt>0</asrwt>
<pdfrwt beam="1">  1        2 0.28319209E+00 0.15843654E+04</pdfrwt>
<pdfrwt beam="2">  1       -2 0.52449686E-01 0.15843654E+04</pdfrwt>
<totfact> 0.26975427E+01</totfact>
</mgrwt>
</event>
<event>
 6    1  0.1885829E-005  0.1163441E+04  0.7818608E-02  0.9145472E-01
          2   -1    0    0  501    0  0.00000000000E+00  0.00000000000E+00  0.14372995944E+04  0.14372995944E+04  0.00000000000E+00 0. -1.
         -2   -1    0    0    0  501 -0.00000000000E+00 -0.00000000000E+00 -0.23544077107E+03  0.23544077107E+03  0.00000000000E+00 0.  1.
         23    2    1    2    0    0 -0.24138956436E+03  0.19749523324E+03 -0.95099658171E+02  0.33880836134E+03  0.92053635434E+02 0.  0.
         11    1    3    3    0    0 -0.63980657407E+02  0.24294785335E+02  0.10650322543E+02  0.69261753421E+02  0.00000000000E+00 0. -1.
        -11    1    3    3    0    0 -0.17740890695E+03  0.17320044790E+03 -0.10574998071E+03  0.26954660792E+03  0.00000000000E+00 0.  1.
         22    1    1    2    0    0  0.24138956436E+03 -0.19749523324E+03  0.12969584815E+04  0.13339320041E+04  0.00000000000E+00 0. -1.
<mgrwt>
<rscale>  0 0.11634413E+04</rscale>
<asrwt>0</asrwt>
<pdfrwt beam="1">  1        2 0.22112301E+00 0.11634413E+04</pdfrwt>
<pdfrwt beam="2">  1       -2 0.36221658E-01 0.11634413E+04</pdfrwt>
<totfact> 0.97662981E+01</totfact>
</mgrwt>
</event>
<event>
 6    1  0.1885829E-005  0.2279612E+04  0.7818608E-02  0.8486003E-01
         -2   -1    0    0    0  501 -0.00000000000E+00  0.00000000000E+00  0.15583769479E+04  0.15583769479E+04  0.00000000000E+00 0.  1.
          2   -1    0    0  501    0  0.00000000000E+00 -0.00000000000E+00 -0.83366075520E+03  0.83366075520E+03  0.00000000000E+00 0. -1.
         23    2    1    2    0    0 -0.11077725301E+03  0.26929318080E+03 -0.79137182698E+03  0.84823936768E+03  0.91925183366E+02 0.  0.
         13    1    3    3    0    0 -0.68661045322E+02  0.58923323832E+02 -0.25312768299E+03  0.26881205540E+03  0.00000000000E+00 0. -1.
        -13    1    3    3    0    0 -0.42116207693E+02  0.21036985697E+03 -0.53824414400E+03  0.57942731228E+03  0.00000000000E+00 0.  1.
         22    1    1    2    0    0  0.11077725301E+03 -0.26929318080E+03  0.15160880197E+04  0.15437983354E+04  0.00000000000E+00 0.  1.
<mgrwt>
<rscale>  0 0.22796120E+04</rscale>
<asrwt>0</asrwt>
<pdfrwt beam="1">  1        2 0.12825550E+00 0.22796120E+04</pdfrwt>
<pdfrwt beam="2">  1       -2 0.23975030E+00 0.22796120E+04</pdfrwt>
<totfact> 0.21995290E+00</totfact>
</mgrwt>
</event>
<event>
 6    1  0.1885829E-005  0.1143164E+04  0.7818608E-02  0.9164114E-01
         -2   -1    0    0    0  501 -0.00000000000E+00  0.00000000000E+00  0.60454294412E+03  0.60454294412E+03  0.00000000000E+00 0.  1.
          2   -1    0    0  501    0  0.00000000000E+00 -0.00000000000E+00 -0.54041783424E+03  0.54041783424E+03  0.00000000000E+00 0. -1.
         23    2    1    2    0    0  0.39713327288E+03 -0.14352696084E+01  0.43893046930E+03  0.59888756544E+03  0.91046486705E+02 0.  0.
         13    1    3    3    0    0  0.20719361705E+03 -0.67648952161E+01  0.16228076581E+03  0.26326793520E+03  0.00000000000E+00 0.  1.
        -13    1    3    3    0    0  0.18993965583E+03  0.53296256077E+01  0.27664970349E+03  0.33561963024E+03  0.00000000000E+00 0. -1.
         22    1    1    2    0    0 -0.39713327288E+03  0.14352696084E+01 -0.37480535941E+03  0.54607321292E+03  0.00000000000E+00 0. -1.
<mgrwt>
<rscale>  0 0.11431637E+04</rscale>
<asrwt>0</asrwt>
<pdfrwt beam="1">  1        2 0.83141205E-01 0.11431637E+04</pdfrwt>
<pdfrwt beam="2">  1       -2 0.93006607E-01 0.11431637E+04</pdfrwt>
<totfact> 0.54533141E+01</totfact>
</mgrwt>
</event>
<event>
 6    1  0.1885829E-005  0.5314726E+03  0.7818608E-02  0.1005876E+00
          2   -1    0    0  501    0  0.00000000000E+00  0.00000000000E+00  0.10531625159E+03  0.10531625159E+03  0.00000000000E+00 0. -1.
         -2   -1    0    0    0  501 -0.00000000000E+00 -0.00000000000E+00 -0.67051165204E+03  0.67051165204E+03  0.00000000000E+00 0.  1.
         23    2    1    2    0    0  0.17349847573E+03 -0.18212921026E+03 -0.19905089610E+03  0.33160434687E+03  0.84067908945E+02 0.  0.
         11    1    3    3    0    0  0.15867299163E+03 -0.17153780478E+03 -0.20657641245E+03  0.31189124855E+03  0.00000000000E+00 0.  1.
        -11    1    3    3    0    0  0.14825484104E+02 -0.10591405481E+02  0.75255163537E+01  0.19713098320E+02  0.00000000000E+00 0. -1.
         22    1    1    2    0    0 -0.17349847573E+03  0.18212921026E+03 -0.36614450435E+03  0.44422355675E+03  0.00000000000E+00 0.  1.
<mgrwt>
<rscale>  0 0.53147257E+03</rscale>
<asrwt>0</asrwt>
<pdfrwt beam="1">  1        2 0.16202500E-01 0.53147257E+03</pdfrwt>
<pdfrwt beam="2">  1       -2 0.10315564E+00 0.53147257E+03</pdfrwt>
<totfact> 0.28359118E+02</totfact>
</mgrwt>
</event>
<event>
 6    1  0.1885829E-005  0.3879392E+04  0.7818608E-02  0.8029329E-01
          2   -1    0    0  501    0  0.00000000000E+00  0.00000000000E+00  0.20161642332E+04  0.20161642332E+04  0.00000000000E+00 0. -1.
         -2   -1    0    0    0  501 -0.00000000000E+00 -0.00000000000E+00 -0.18661280685E+04  0.18661280685E+04  0.00000000000E+00 0.  1.
         23    2    1    2    0    0 -0.17209985989E+03 -0.10917005092E+04  0.16690366991E+04  0.20037846528E+04  0.89672004244E+02 0.  0.
         11    1    3    3    0    0 -0.17696732395E+03 -0.10027675440E+04  0.15612007269E+04  0.18639227159E+04  0.00000000000E+00 0.  1.
        -11    1    3    3    0    0  0.48674640617E+01 -0.88932965223E+02  0.10783597219E+03  0.13986193695E+03  0.00000000000E+00 0. -1.
         22    1    1    2    0    0  0.17209985989E+03  0.10917005092E+04 -0.15190005344E+04  0.18785076489E+04  0.00000000000E+00 0.  1.
<mgrwt>
<rscale>  0 0.38793920E+04</rscale>
<asrwt>0</asrwt>
<pdfrwt beam="1">  1        2 0.31017911E+00 0.38793920E+04</pdfrwt>
<pdfrwt beam="2">  1       -2 0.28709663E+00 0.38793920E+04</pdfrwt>
<totfact> 0.19871169E-01</totfact>
</mgrwt>
</event>
<event>
 6    1  0.1885829E-005  0.2079560E+04  0.7818608E-02  0.8570301E-01
         -2   -1    0    0    0  501 -0.00000000000E+00  0.00000000000E+00  0.40473190894E+03  0.40473190894E+03  0.00000000000E+00 0.  1.
          2   -1    0    0  501    0  0.00000000000E+00 -0.00000000000E+00 -0.26712554078E+04  0.26712554078E+04  0.00000000000E+00 0. -1.
         23    2    1    2    0    0 -0.69685696566E+03 -0.69657793946E+03 -0.16172326001E+04  0.18959834491E+04  0.92095061102E+02 0.  0.
         11    1    3    3    0    0 -0.39942469564E+03 -0.46253174976E+03 -0.99866727246E+03  0.11708168209E+04  0.00000000000E+00 0.  1.
        -11    1    3    3    0    0 -0.29743227002E+03 -0.23404618970E+03 -0.61856532761E+03  0.72516662822E+03  0.00000000000E+00 0. -1.
         22    1    1    2    0    0  0.69685696566E+03  0.69657793946E+03 -0.64929089878E+03  0.11800038676E+04  0.00000000000E+00 0.  1.
<mgrwt>
<rscale>  0 0.20795599E+04</rscale>
<asrwt>0</asrwt>
<pdfrwt beam="1">  1        2 0.41096236E+00 0.20795599E+04</pdfrwt>
<pdfrwt beam="2">  1       -2 0.62266449E-01 0.20795599E+04</pdfrwt>
<totfact> 0.61078097E+00</totfact>
</mgrwt>
</event>
<event>
 6    1  0.1885829E-005  0.1378952E+04  0.7818608E-02  0.8969197E-01
         -2   -1    0    0    0  501 -0.00000000000E+00  0.00000000000E+00  0.45349867538E+03  0.45349867538E+03  0.00000000000E+00 0.  1.
          2   -1    0    0  501    0  0.00000000000E+00 -0.00000000000E+00 -0.10482433881E+04  0.10482433881E+04  0.00000000000E+00 0. -1.
         23    2    1    2    0    0  0.27410191128E+03  0.41729942383E+03 -0.81027712765E+03  0.95793613409E+03  0.10872877498E+03 0.  0.
         13    1    3    3    0    0  0.98697550600E+02  0.12212441356E+03 -0.35079871345E+03  0.38433750303E+03  0.00000000000E+00 0. -1.
        -13    1    3    3    0    0  0.17540436068E+03  0.29517501027E+03 -0.45947841420E+03  0.57359863106E+03  0.00000000000E+00 0.  1.
         22    1    1    2    0    0 -0.27410191128E+03 -0.41729942383E+03  0.21553241497E+03  0.54380592935E+03  0.00000000000E+00 0.  1.
<mgrwt>
<rscale>  0 0.13789518E+04</rscale>
<asrwt>0</asrwt>
<pdfrwt beam="1">  1        2 0.16126821E+00 0.13789518E+04</pdfrwt>
<pdfrwt beam="2">  1       -2 0.69769027E-01 0.13789518E+04</pdfrwt>
<totfact> 0.42841630E+01</totfact>
</mgrwt>
</event>
<event>
 6    1  0.1885829E-005  0.3269718E+03  0.7818608E-02  0.1072485E+00
          2   -1    0    0  501    0  0.00000000000E+00  0.00000000000E+00  0.21372085011E+03  0.21372085011E+03  0.00000000000E+00 0. -1.
         -2   -1    0    0    0  501 -0.00000000000E+00 -0.00000000000E+00 -0.12505867680E+03  0.12505867680E+03  0.00000000000E+00 0.  1.
         23    2    1    2    0    0  0.11394164075E+03  0.50597697705E+02 -0.38757485398E+02  0.16051401163E+03  0.93379766262E+02 0.  0.
         11    1    3    3    0    0  0.10078463012E+03 -0.16228078699E+01 -0.34315031485E+02  0.10647862019E+03  0.00000000000E+00 0. -1.
        -11    1    3    3    0    0  0.13157010633E+02  0.52220505574E+02 -0.44424539135E+01  0.54035391440E+02  0.00000000000E+00 0.  1.
         22    1    1    2    0    0 -0.11394164075E+03 -0.50597697705E+02  0.12741965871E+03  0.17826551527E+03  0.00000000000E+00 0. -1.
<mgrwt>
<rscale>  0 0.32697184E+03</rscale>
<asrwt>0</asrwt>
<pdfrwt beam="1">  1        2 0.32880131E-01 0.32697184E+03</pdfrwt>
<pdfrwt beam="2">  1       -2 0.19239796E-01 0.32697184E+03</pdfrwt>
<totfact> 0.35654711E+03</totfact>
</mgrwt>
</event>
<event>
 6    1  0.1885829E-005  0.2317927E+04  0.7818608E-02  0.8470886E-01
         -2   -1    0    0    0  501 -0.00000000000E+00  0.00000000000E+00  0.89672222054E+03  0.89672222054E+03  0.00000000000E+00 0.  1.
          2   -1    0    0  501    0  0.00000000000E+00 -0.00000000000E+00 -0.14978963712E+04  0.14978963712E+04  0.00000000000E+00 0. -1.
         23    2    1    2    0    0 -0.62205701093E+03  0.56848521451E+03  0.51811253791E+03  0.99357146364E+03  0.92807798485E+02 0.  0.
         11    1    3    3    0    0 -0.38987984370E+03  0.37940787633E+03  0.28533570041E+03  0.61430700067E+03  0.00000000000E+00 0.  1.
        -11    1    3    3    0    0 -0.23217716724E+03  0.18907733818E+03  0.23277683750E+03  0.37926446298E+03  0.00000000000E+00 0. -1.
         22    1    1    2    0    0  0.62205701093E+03 -0.56848521451E+03 -0.11192866886E+04  0.14010471281E+04  0.00000000000E+00 0. -1.
<mgrwt>
<rscale>  0 0.23179275E+04</rscale>
<asrwt>0</asrwt>
<pdfrwt beam="1">  1        2 0.23044559E+00 0.23179275E+04</pdfrwt>
<pdfrwt beam="2">  1       -2 0.13795727E+00 0.23179275E+04</pdfrwt>
<totfact> 0.43003339E+00</totfact>
</mgrwt>
</event>
<event>
 6    1  0.1885829E-005  0.3378729E+04  0.7818608E-02  0.8143147E-01
          2   -1    0    0  501    0  0.00000000000E+00  0.00000000000E+00  0.31749853689E+04  0.31749853689E+04  0.00000000000E+00 0. -1.
         -2   -1    0    0    0  501 -0.00000000000E+00 -0.00000000000E+00 -0.89888652737E+03  0.89888652737E+03  0.00000000000E+00 0.  1.
         23    2    1    2    0    0  0.11111878220E+04 -0.29828127905E+02 -0.39269769121E+03  0.11828334970E+04  0.96205571427E+02 0.  0.
         13    1    3    3    0    0  0.17530974562E+03 -0.27532681856E+02 -0.91628814328E+02  0.19971828934E+03  0.00000000000E+00 0. -1.
        -13    1    3    3    0    0  0.93587807637E+03 -0.22954460485E+01 -0.30106887688E+03  0.98311520766E+03  0.00000000000E+00 0.  1.
         22    1    1    2    0    0 -0.11111878220E+04  0.29828127905E+02  0.26687965328E+04  0.28910383993E+04  0.00000000000E+00 0. -1.
<mgrwt>
<rscale>  0 0.33787285E+04</rscale>
<asrwt>0</asrwt>
<pdfrwt beam="1">  1        2 0.48845928E+00 0.33787285E+04</pdfrwt>
<pdfrwt beam="2">  1       -2 0.13829024E+00 0.33787285E+04</pdfrwt>
<totfact> 0.41389121E-01</totfact>
</mgrwt>
</event>
<event>
 6    1  0.1885829E-005  0.2024919E+04  0.7818608E-02  0.8595058E-01
          2   -1    0    0  501    0  0.00000000000E+00  0.00000000000E+00  0.18099334324E+04  0.18099334324E+04  0.00000000000E+00 0. -1.
         -2   -1    0    0    0  501 -0.00000000000E+00 -0.00000000000E+00 -0.56636039966E+03  0.56636039966E+03  0.00000000000E+00 0.  1.
         23    2    1    2    0    0 -0.50125550842E+03  0.96825375248E+02 -0.40014455075E+03  0.65511989191E+03  0.91837755124E+02 0.  0.
         11    1    3    3    0    0 -0.39469681196E+03  0.46602541655E+02 -0.33909522682E+03  0.52243941574E+03  0.00000000000E+00 0. -1.
        -11    1    3    3    0    0 -0.10655869646E+03  0.50222833593E+02 -0.61049323923E+02  0.13268047617E+03  0.00000000000E+00 0.  1.
         22    1    1    2    0    0  0.50125550842E+03 -0.96825375248E+02  0.16437175835E+04  0.17211739402E+04  0.00000000000E+00 0. -1.
<mgrwt>
<rscale>  0 0.20249194E+04</rscale>
<asrwt>0</asrwt>
<pdfrwt beam="1">  1        2 0.27845130E+00 0.20249194E+04</pdfrwt>
<pdfrwt beam="2">  1       -2 0.87132370E-01 0.20249194E+04</pdfrwt>
<totfact> 0.89936877E+00</totfact>
</mgrwt>
</event>
<event>
 6    1  0.1885829E-005  0.9879976E+03  0.7818608E-02  0.9321808E-01
         -2   -1    0    0    0  501 -0.00000000000E+00  0.00000000000E+00  0.13451707905E+03  0.13451707905E+03  0.00000000000E+00 0.  1.
          2   -1    0    0  501    0  0.00000000000E+00 -0.00000000000E+00 -0.18141547940E+04  0.18141547940E+04  0.00000000000E+00 0. -1.
         23    2    1    2    0    0  0.81412165087E+02 -0.44094850062E+03 -0.45450945915E+03  0.64406359315E+03  0.84708575345E+02 0.  0.
         13    1    3    3    0    0 -0.50805048623E+00 -0.13100597109E+03 -0.17593227885E+03  0.21935129204E+03  0.00000000000E+00 0. -1.
        -13    1    3    3    0    0  0.81920215573E+02 -0.30994252953E+03 -0.27857718030E+03  0.42471230111E+03  0.00000000000E+00 0.  1.
         22    1    1    2    0    0 -0.81412165087E+02  0.44094850062E+03 -0.12251282558E+04  0.13046082799E+04  0.00000000000E+00 0. -1.
<mgrwt>
<rscale>  0 0.98799758E+03</rscale>
<asrwt>0</asrwt>
<pdfrwt beam="1">  1        2 0.27910073E+00 0.98799758E+03</pdfrwt>
<pdfrwt beam="2">  1       -2 0.20694936E-01 0.98799758E+03</pdfrwt>
<totfact> 0.17065740E+02</totfact>
</mgrwt>
</event>
<event>
 6    1  0.1885829E-005  0.3438170E+04  0.7818608E-02  0.8128601E-01
         -2   -1    0    0    0  501 -0.00000000000E+00  0.00000000000E+00  0.86740163807E+03  0.86740163807E+03  0.00000000000E+00 0.  1.
          2   -1    0    0  501    0  0.00000000000E+00 -0.00000000000E+00 -0.34070174564E+04  0.34070174564E+04  0.00000000000E+00 0. -1.
         23    2    1    2    0    0  0.65669343524E+03  0.11217801909E+04  0.12565315554E+03  0.13090699131E+04  0.90764846296E+02 0.  0.
         11    1    3    3    0    0  0.27514609299E+03  0.47117446249E+03  0.77919766981E+01  0.54568439733E+03  0.00000000000E+00 0. -1.
        -11    1    3    3    0    0  0.38154734224E+03  0.65060572838E+03  0.11786117884E+03  0.76338551575E+03  0.00000000000E+00 0.  1.
         22    1    1    2    0    0 -0.65669343524E+03 -0.11217801909E+04 -0.26652689739E+04  0.29653491814E+04  0.00000000000E+00 0. -1.
<mgrwt>
<rscale>  0 0.34381696E+04</rscale>
<asrwt>0</asrwt>
<pdfrwt beam="1">  1        2 0.52415653E+00 0.34381696E+04</pdfrwt>
<pdfrwt beam="2">  1       -2 0.13344641E+00 0.34381696E+04</pdfrwt>
<totfact> 0.31599584E-01</totfact>
</mgrwt>
</event>
<event>
 6    1  0.1885829E-005  0.1316175E+04  0.7818608E-02  0.9016836E-01
         -2   -1    0    0    0  501 -0.00000000000E+00  0.00000000000E+00  0.17627431409E+03  0.17627431409E+03  0.00000000000E+00 0.  1.
          2   -1    0    0  501    0  0.00000000000E+00 -0.00000000000E+00 -0.24568468935E+04  0.24568468935E+04  0.00000000000E+00 0. -1.
         23    2    1    2    0    0 -0.84109457478E+02  0.20001262129E+03 -0.23819960588E+04  0.23936088453E+04  0.91534860898E+02 0.  0.
         11    1    3    3    0    0 -0.67770023648E+02  0.96338186589E+02 -0.16403253212E+04  0.16445488687E+04  0.00000000000E+00 0. -1.
        -11    1    3    3    0    0 -0.16339433830E+02  0.10367443471E+03 -0.74167073760E+03  0.74905997658E+03  0.00000000000E+00 0.  1.
         22    1    1    2    0    0  0.84109457478E+02 -0.20001262129E+03  0.10142347937E+03  0.23951236227E+03  0.00000000000E+00 0.  1.
<mgrwt>
<rscale>  0 0.13161748E+04</rscale>
<asrwt>0</asrwt>
<pdfrwt beam="1">  1        2 0.37797641E+00 0.13161748E+04</pdfrwt>
<pdfrwt beam="2">  1       -2 0.27119128E-01 0.13161748E+04</pdfrwt>
<totfact> 0.44822080E+01</totfact>
</mgrwt>
</event>
<event>
 6    1  0.1885829E-005  0.2029767E+04  0.7818608E-02  0.8592829E-01
          4   -1    0    0  501    0  0.00000000000E+00  0.00000000000E+00  0.77558423773E+03  0.77558423773E+03  0.00000000000E+00 0. -1.
         -4   -1    0    0    0  501 -0.00000000000E+00 -0.00000000000E+00 -0.13280166159E+04  0.13280166159E+04  0.00000000000E+00 0.  1.
         23    2    1    2    0    0  0.15561055639E+03  0.94200918110E+03  0.73557718081E+02  0.96190932650E+03  0.90900340892E+02 0.  0.
         11    1    3    3    0    0  0.14735573722E+03  0.71219332356E+03  0.30276530283E+02  0.72790776318E+03  0.00000000000E+00 0.  1.
        -11    1    3    3    0    0  0.82548191727E+01  0.22981585754E+03  0.43281187798E+02  0.23400156332E+03  0.00000000000E+00 0. -1.
         22    1    1    2    0    0 -0.15561055639E+03 -0.94200918110E+03 -0.62599009629E+03  0.11416915272E+04  0.00000000000E+00 0.  1.
<mgrwt>
<rscale>  0 0.20297672E+04</rscale>
<asrwt>0</asrwt>
<pdfrwt beam="1">  1        4 0.11932065E+00 0.20297672E+04</pdfrwt>
<pdfrwt beam="2">  1       -4 0.20431025E+00 0.20297672E+04</pdfrwt>
<totfact> 0.12267920E-01</totfact>
</mgrwt>
</event>
<event>
 6    1  0.1885829E-005  0.2827467E+04  0.7818608E-02  0.8294791E-01
         -2   -1    0    0    0  501 -0.00000000000E+00  0.00000000000E+00  0.15705729007E+04  0.15705729007E+04  0.00000000000E+00 0.  1.
          2   -1    0    0  501    0  0.00000000000E+00 -0.00000000000E+00 -0.12725561441E+04  0.12725561441E+04  0.00000000000E+00 0. -1.
         23    2    1    2    0    0  0.77672472579E+03  0.92201230954E+03  0.88904498103E+03  0.15004740777E+04  0.87255263148E+02 0.  0.
         13    1    3    3    0    0  0.18805751983E+03  0.18162541155E+03  0.16339607729E+03  0.30830455553E+03  0.00000000000E+00 0. -1.
        -13    1    3    3    0    0  0.58866720596E+03  0.74038689800E+03  0.72564890374E+03  0.11921695222E+04  0.00000000000E+00 0.  1.
         22    1    1    2    0    0 -0.77672472579E+03 -0.92201230954E+03 -0.59102822449E+03  0.13426549671E+04  0.00000000000E+00 0. -1.
<mgrwt>
<rscale>  0 0.28274668E+04</rscale>
<asrwt>0</asrwt>
<pdfrwt beam="1">  1        2 0.19577787E+00 0.28274668E+04</pdfrwt>
<pdfrwt beam="2">  1       -2 0.24162660E+00 0.28274668E+04</pdfrwt>
<totfact> 0.10779780E+00</totfact>
</mgrwt>
</event>
<event>
 6    1  0.1885829E-005  0.9850019E+03  0.7818608E-02  0.9325149E-01
          2   -1    0    0  501    0  0.00000000000E+00  0.00000000000E+00  0.14700668640E+04  0.14700668640E+04  0.00000000000E+00 0. -1.
         -2   -1    0    0    0  501 -0.00000000000E+00 -0.00000000000E+00 -0.16499737716E+03  0.16499737716E+03  0.00000000000E+00 0.  1.
         23    2    1    2    0    0  0.22788345465E+03 -0.33747318979E+03  0.21056774709E+03  0.46726585059E+03  0.90441009921E+02 0.  0.
         11    1    3    3    0    0  0.12006141192E+03 -0.22660170019E+03  0.92207088662E+02  0.27251645888E+03  0.00000000000E+00 0.  1.
        -11    1    3    3    0    0  0.10782204274E+03 -0.11087148961E+03  0.11836065843E+03  0.19474939171E+03  0.00000000000E+00 0. -1.
         22    1    1    2    0    0 -0.22788345465E+03  0.33747318979E+03  0.10945017397E+04  0.11677983906E+04  0.00000000000E+00 0.  1.
<mgrwt>
<rscale>  0 0.98500188E+03</rscale>
<asrwt>0</asrwt>
<pdfrwt beam="1">  1        2 0.22616412E+00 0.98500188E+03</pdfrwt>
<pdfrwt beam="2">  1       -2 0.25384213E-01 0.98500188E+03</pdfrwt>
<totfact> 0.18384330E+02</totfact>
</mgrwt>
</event>
<event>
 6    1  0.1885829E-005  0.3370705E+04  0.7818608E-02  0.8145134E-01
          2   -1    0    0  501    0  0.00000000000E+00  0.00000000000E+00  0.21798944652E+04  0.21798944652E+04  0.00000000000E+00 0. -1.
         -2   -1    0    0    0  501 -0.00000000000E+00 -0.00000000000E+00 -0.13030051641E+04  0.13030051641E+04  0.00000000000E+00 0.  1.
         23    2    1    2    0    0 -0.10626088581E+04  0.32886281767E+03  0.17453799317E+04  0.20716716839E+04  0.90466135369E+02 0.  0.
         11    1    3    3    0    0 -0.48087869830E+03  0.16298279366E+03  0.87672410200E+03  0.10131401011E+04  0.00000000000E+00 0.  1.
        -11    1    3    3    0    0 -0.58173015983E+03  0.16588002401E+03  0.86865582972E+03  0.10585315828E+04  0.00000000000E+00 0. -1.
         22    1    1    2    0    0  0.10626088581E+04 -0.32886281767E+03 -0.86849063065E+03  0.14112279454E+04  0.00000000000E+00 0.  1.
<mgrwt>
<rscale>  0 0.33707054E+04</rscale>
<asrwt>0</asrwt>
<pdfrwt beam="1">  1        2 0.33536838E+00 0.33707054E+04</pdfrwt>
<pdfrwt beam="2">  1       -2 0.20046233E+00 0.33707054E+04</pdfrwt>
<totfact> 0.58130269E-01</totfact>
</mgrwt>
</event>
<event>
 6    1  0.1885829E-005  0.3244388E+04  0.7818608E-02  0.8177192E-01
         -2   -1    0    0    0  501 -0.00000000000E+00  0.00000000000E+00  0.21240601809E+04  0.21240601809E+04  0.00000000000E+00 0. -1.
          2   -1    0    0  501    0  0.00000000000E+00 -0.00000000000E+00 -0.12389070764E+04  0.12389070764E+04  0.00000000000E+00 0.  1.
         23    2    1    2    0    0  0.10629172278E+04 -0.12205771265E+04  0.35165625191E+03  0.16587899055E+04  0.91215547778E+02 0.  0.
         13    1    3    3    0    0  0.93391148860E+03 -0.11037513650E+04  0.33347656129E+03  0.14838006474E+04  0.00000000000E+00 0. -1.
        -13    1    3    3    0    0  0.12900573919E+03 -0.11682576145E+03  0.18179690621E+02  0.17498925805E+03  0.00000000000E+00 0.  1.
         22    1    1    2    0    0 -0.10629172278E+04  0.12205771265E+04  0.53349685266E+03  0.17041773519E+04  0.00000000000E+00 0.  1.
<mgrwt>
<rscale>  0 0.32443879E+04</rscale>
<asrwt>0</asrwt>
<pdfrwt beam="1">  1        2 0.19060109E+00 0.32443879E+04</pdfrwt>
<pdfrwt beam="2">  1       -2 0.32677849E+00 0.32443879E+04</pdfrwt>
<totfact> 0.32741244E-01</totfact>
</mgrwt>
</event>
<event>
 6    1  0.1885829E-005  0.1041742E+04  0.7818608E-02  0.9263912E-01
          2   -1    0    0  501    0  0.00000000000E+00  0.00000000000E+00  0.23833028957E+04  0.23833028957E+04  0.00000000000E+00 0. -1.
         -2   -1    0    0    0  501 -0.00000000000E+00 -0.00000000000E+00 -0.11383632462E+03  0.11383632462E+03  0.00000000000E+00 0.  1.
         23    2    1    2    0    0 -0.17593791756E+03  0.44559059806E+03  0.16092345593E+04  0.16814116670E+04  0.89466166947E+02 0.  0.
         11    1    3    3    0    0 -0.26871646481E+02  0.18589133204E+03  0.63570032722E+03  0.66286693894E+03  0.00000000000E+00 0. -1.
        -11    1    3    3    0    0 -0.14906627108E+03  0.25969926602E+03  0.97353423212E+03  0.10185447281E+04  0.00000000000E+00 0.  1.
         22    1    1    2    0    0  0.17593791756E+03 -0.44559059806E+03  0.66023201169E+03  0.81572755328E+03  0.00000000000E+00 0.  1.
<mgrwt>
<rscale>  0 0.10417417E+04</rscale>
<asrwt>0</asrwt>
<pdfrwt beam="1">  1        2 0.36666195E+00 0.10417417E+04</pdfrwt>
<pdfrwt beam="2">  1       -2 0.17513282E-01 0.10417417E+04</pdfrwt>
<totfact> 0.11000294E+02</totfact>
</mgrwt>
</event>
<event>
 6    1  0.1885829E-005  0.1652657E+04  0.7818608E-02  0.8788836E-01
          2   -1    0    0  501    0  0.00000000000E+00  0.00000000000E+00  0.80911715545E+03  0.80911715545E+03  0.00000000000E+00 0. -1.
         -2   -1    0    0    0  501 -0.00000000000E+00 -0.00000000000E+00 -0.84390572821E+03  0.84390572821E+03  0.00000000000E+00 0.  1.
         23    2    1    2    0    0  0.44787258107E+03  0.63341111565E+03 -0.29458951094E+03  0.83491774508E+03  0.92223482865E+02 0.  0.
         13    1    3    3    0    0  0.16284116325E+03  0.30145938610E+03 -0.10787011205E+03  0.35920880695E+03  0.00000000000E+00 0.  1.
        -13    1    3    3    0    0  0.28503141782E+03  0.33195172955E+03 -0.18671939889E+03  0.47570893813E+03  0.00000000000E+00 0. -1.
         22    1    1    2    0    0 -0.44787258107E+03 -0.63341111565E+03  0.25980093817E+03  0.81810513858E+03  0.00000000000E+00 0. -1.
<mgrwt>
<rscale>  0 0.16526568E+04</rscale>
<asrwt>0</asrwt>
<pdfrwt beam="1">  1        2 0.12447956E+00 0.16526568E+04</pdfrwt>
<pdfrwt beam="2">  1       -2 0.12983165E+00 0.16526568E+04</pdfrwt>
<totfact> 0.14116785E+01</totfact>
</mgrwt>
</event>
<event>
 6    1  0.1885829E-005  0.2026786E+04  0.7818608E-02  0.8594199E-01
         -2   -1    0    0    0  501 -0.00000000000E+00  0.00000000000E+00  0.12075316546E+04  0.12075316546E+04  0.00000000000E+00 0.  1.
          2   -1    0    0  501    0  0.00000000000E+00 -0.00000000000E+00 -0.85046653724E+03  0.85046653724E+03  0.00000000000E+00 0. -1.
         23    2    1    2    0    0 -0.94016000704E+03 -0.35305645979E+03  0.30043738607E+03  0.10521371663E+04  0.90444962170E+02 0.  0.
         11    1    3    3    0    0 -0.46914360356E+03 -0.21387012544E+03  0.12436588367E+03  0.53038007536E+03  0.00000000000E+00 0.  1.
        -11    1    3    3    0    0 -0.47101640348E+03 -0.13918633434E+03  0.17607150240E+03  0.52175709097E+03  0.00000000000E+00 0. -1.
         22    1    1    2    0    0  0.94016000704E+03  0.35305645979E+03  0.56627731266E+02  0.10058610255E+04  0.00000000000E+00 0.  1.
<mgrwt>
<rscale>  0 0.20267859E+04</rscale>
<asrwt>0</asrwt>
<pdfrwt beam="1">  1        2 0.13084101E+00 0.20267859E+04</pdfrwt>
<pdfrwt beam="2">  1       -2 0.18577410E+00 0.20267859E+04</pdfrwt>
<totfact> 0.48647245E+00</totfact>
</mgrwt>
</event>
<event>
 6    1  0.1885829E-005  0.5598434E+04  0.7818608E-02  0.7742288E-01
          2   -1    0    0  501    0  0.00000000000E+00  0.00000000000E+00  0.37224107936E+04  0.37224107936E+04  0.00000000000E+00 0. -1.
         -2   -1    0    0    0  501 -0.00000000000E+00 -0.00000000000E+00 -0.21049844989E+04  0.21049844989E+04  0.00000000000E+00 0.  1.
         23    2    1    2    0    0  0.26427649946E+04 -0.88612807511E+03  0.54941858376E+03  0.28424212134E+04  0.89820888320E+02 0.  0.
         11    1    3    3    0    0  0.20485647236E+04 -0.69439971683E+03  0.46368018195E+03  0.22121952230E+04  0.00000000000E+00 0. -1.
        -11    1    3    3    0    0  0.59420027106E+03 -0.19172835828E+03  0.85738401816E+02  0.63022599045E+03  0.00000000000E+00 0.  1.
         22    1    1    2    0    0 -0.26427649946E+04  0.88612807511E+03  0.10680077110E+04  0.29849740791E+04  0.00000000000E+00 0.  1.
<mgrwt>
<rscale>  0 0.55984344E+04</rscale>
<asrwt>0</asrwt>
<pdfrwt beam="1">  1        2 0.57267858E+00 0.55984344E+04</pdfrwt>
<pdfrwt beam="2">  1       -2 0.32384377E+00 0.55984344E+04</pdfrwt>
<totfact> 0.88141926E-03</totfact>
</mgrwt>
</event>
<event>
 6    1  0.1885829E-005  0.4423793E+04  0.7818608E-02  0.7924116E-01
          2   -1    0    0  501    0  0.00000000000E+00  0.00000000000E+00  0.21585419992E+04  0.21585419992E+04  0.00000000000E+00 0. -1.
         -2   -1    0    0    0  501 -0.00000000000E+00 -0.00000000000E+00 -0.22665699413E+04  0.22665699413E+04  0.00000000000E+00 0.  1.
         23    2    1    2    0    0 -0.29357711820E+03  0.11149445985E+04  0.18330975830E+04  0.21674013111E+04  0.89959505865E+02 0.  0.
         13    1    3    3    0    0 -0.14072209070E+03  0.53742206879E+03  0.79923380209E+03  0.97334467546E+03  0.00000000000E+00 0. -1.
        -13    1    3    3    0    0 -0.15285502750E+03  0.57752252967E+03  0.10338637809E+04  0.11940566356E+04  0.00000000000E+00 0.  1.
         22    1    1    2    0    0  0.29357711820E+03 -0.11149445985E+04 -0.19411255251E+04  0.22577106294E+04  0.00000000000E+00 0.  1.
<mgrwt>
<rscale>  0 0.44237931E+04</rscale>
<asrwt>0</asrwt>
<pdfrwt beam="1">  1        2 0.33208339E+00 0.44237931E+04</pdfrwt>
<pdfrwt beam="2">  1       -2 0.34870307E+00 0.44237931E+04</pdfrwt>
<totfact> 0.65850981E-02</totfact>
</mgrwt>
</event>
<event>
 6    1  0.1885829E-005  0.1646319E+04  0.7818608E-02  0.8792587E-01
          2   -1    0    0  501    0  0.00000000000E+00  0.00000000000E+00  0.94454470444E+03  0.94454470444E+03  0.00000000000E+00 0. -1.
         -2   -1    0    0    0  501 -0.00000000000E+00 -0.00000000000E+00 -0.71737414725E+03  0.71737414725E+03  0.00000000000E+00 0.  1.
         23    2    1    2    0    0  0.41185974860E+03  0.70907423519E+03  0.14711756137E+03  0.83801157192E+03  0.90581975450E+02 0.  0.
         11    1    3    3    0    0  0.28673510298E+03  0.56610757317E+03  0.10183901929E+03  0.64270210015E+03  0.00000000000E+00 0. -1.
        -11    1    3    3    0    0  0.12512464562E+03  0.14296666201E+03  0.45278542081E+02  0.19530947177E+03  0.00000000000E+00 0.  1.
         22    1    1    2    0    0 -0.41185974860E+03 -0.70907423519E+03  0.80052995818E+02  0.82390727977E+03  0.00000000000E+00 0. -1.
<mgrwt>
<rscale>  0 0.16463195E+04</rscale>
<asrwt>0</asrwt>
<pdfrwt beam="1">  1        2 0.14531457E+00 0.16463195E+04</pdfrwt>
<pdfrwt beam="2">  1       -2 0.11036525E+00 0.16463195E+04</pdfrwt>
<totfact> 0.17051104E+01</totfact>
</mgrwt>
</event>
<event>
 6    1  0.1885829E-005  0.2223869E+04  0.7818608E-02  0.8508559E-01
          2   -1    0    0  501    0  0.00000000000E+00  0.00000000000E+00  0.19122009750E+04  0.19122009750E+04  0.00000000000E+00 0. -1.
         -2   -1    0    0    0  501 -0.00000000000E+00 -0.00000000000E+00 -0.64658384713E+03  0.64658384713E+03  0.00000000000E+00 0.  1.
         23    2    1    2    0    0  0.90967563702E+03 -0.43548811279E+03  0.10035630639E+03  0.10176837732E+04  0.91919600621E+02 0.  0.
         13    1    3    3    0    0  0.16526336576E+03 -0.11257867930E+03  0.40684795467E+02  0.20406173497E+03  0.00000000000E+00 0. -1.
        -13    1    3    3    0    0  0.74441227126E+03 -0.32290943349E+03  0.59671510924E+02  0.81362203820E+03  0.00000000000E+00 0.  1.
         22    1    1    2    0    0 -0.90967563702E+03  0.43548811279E+03  0.11652608214E+04  0.15411010489E+04  0.00000000000E+00 0. -1.
<mgrwt>
<rscale>  0 0.22238689E+04</rscale>
<asrwt>0</asrwt>
<pdfrwt beam="1">  1        2 0.29418476E+00 0.22238689E+04</pdfrwt>
<pdfrwt beam="2">  1       -2 0.99474439E-01 0.22238689E+04</pdfrwt>
<totfact> 0.57038435E+00</totfact>
</mgrwt>
</event>
<event>
 6    1  0.1885829E-005  0.1701839E+04  0.7818608E-02  0.8760316E-01
         -2   -1    0    0    0  501 -0.00000000000E+00  0.00000000000E+00  0.78017437119E+03  0.78017437119E+03  0.00000000000E+00 0.  1.
          2   -1    0    0  501    0  0.00000000000E+00 -0.00000000000E+00 -0.92807978633E+03  0.92807978633E+03  0.00000000000E+00 0. -1.
         23    2    1    2    0    0 -0.42501052314E+02 -0.82543245717E+03  0.11830132736E+03  0.83991602606E+03  0.91206611441E+02 0.  0.
         13    1    3    3    0    0  0.17813736640E+02 -0.51230487884E+03  0.68687577751E+02  0.51719590238E+03  0.00000000000E+00 0.  1.
        -13    1    3    3    0    0 -0.60314788953E+02 -0.31312757833E+03  0.49613749609E+02  0.32272012368E+03  0.00000000000E+00 0. -1.
         22    1    1    2    0    0  0.42501052314E+02  0.82543245717E+03 -0.26620674250E+03  0.86833813146E+03  0.00000000000E+00 0. -1.
<mgrwt>
<rscale>  0 0.17018391E+04</rscale>
<asrwt>0</asrwt>
<pdfrwt beam="1">  1        2 0.14278150E+00 0.17018391E+04</pdfrwt>
<pdfrwt beam="2">  1       -2 0.12002683E+00 0.17018391E+04</pdfrwt>
<totfact> 0.14175539E+01</totfact>
</mgrwt>
</event>
<event>
 6    1  0.1885829E-005  0.5245317E+04  0.7818608E-02  0.7791740E-01
         -2   -1    0    0    0  501 -0.00000000000E+00  0.00000000000E+00  0.23688441786E+04  0.23688441786E+04  0.00000000000E+00 0.  1.
          2   -1    0    0  501    0  0.00000000000E+00 -0.00000000000E+00 -0.29036682504E+04  0.29036682504E+04  0.00000000000E+00 0. -1.
         23    2    1    2    0    0  0.13509470532E+04 -0.17486064771E+04  0.11507396547E+04  0.24933385178E+04  0.99260563152E+02 0.  0.
         13    1    3    3    0    0  0.56327627033E+03 -0.80947105366E+03  0.50819794197E+03  0.11094091633E+04  0.00000000000E+00 0. -1.
        -13    1    3    3    0    0  0.78767078283E+03 -0.93913542345E+03  0.64254171275E+03  0.13839293545E+04  0.00000000000E+00 0.  1.
         22    1    1    2    0    0 -0.13509470532E+04  0.17486064771E+04 -0.16855637266E+04  0.27791739112E+04  0.00000000000E+00 0. -1.
<mgrwt>
<rscale>  0 0.52453170E+04</rscale>
<asrwt>0</asrwt>
<pdfrwt beam="1">  1        2 0.44671819E+00 0.52453170E+04</pdfrwt>
<pdfrwt beam="2">  1       -2 0.36443757E+00 0.52453170E+04</pdfrwt>
<totfact> 0.17980247E-02</totfact>
</mgrwt>
</event>
<event>
 6    1  0.1885829E-005  0.3016709E+04  0.7818608E-02  0.8238976E-01
         -2   -1    0    0    0  501 -0.00000000000E+00  0.00000000000E+00  0.35777058183E+04  0.35777058183E+04  0.00000000000E+00 0.  1.
          2   -1    0    0  501    0  0.00000000000E+00 -0.00000000000E+00 -0.63591970754E+03  0.63591970754E+03  0.00000000000E+00 0. -1.
         23    2    1    2    0    0  0.85546988205E+02  0.12683413193E+04  0.26021035525E+04  0.28978017421E+04  0.10150886312E+03 0.  0.
         11    1    3    3    0    0  0.78105574629E+02  0.47158935071E+03  0.93790585845E+03  0.10526938756E+04  0.00000000000E+00 0.  1.
        -11    1    3    3    0    0  0.74414135761E+01  0.79675196859E+03  0.16641976941E+04  0.18451078665E+04  0.00000000000E+00 0. -1.
         22    1    1    2    0    0 -0.85546988205E+02 -0.12683413193E+04  0.33968255827E+03  0.13158237837E+04  0.00000000000E+00 0. -1.
<mgrwt>
<rscale>  0 0.30167092E+04</rscale>
<asrwt>0</asrwt>
<pdfrwt beam="1">  1        2 0.97833803E-01 0.30167092E+04</pdfrwt>
<pdfrwt beam="2">  1       -2 0.55041627E+00 0.30167092E+04</pdfrwt>
<totfact> 0.33290674E-02</totfact>
</mgrwt>
</event>
<event>
 6    1  0.1885829E-005  0.1289902E+04  0.7818608E-02  0.9037612E-01
         -2   -1    0    0    0  501 -0.00000000000E+00  0.00000000000E+00  0.15130450776E+03  0.15130450776E+03  0.00000000000E+00 0.  1.
          2   -1    0    0  501    0  0.00000000000E+00 -0.00000000000E+00 -0.27491682238E+04  0.27491682238E+04  0.00000000000E+00 0. -1.
         23    2    1    2    0    0  0.56462157995E+02 -0.61036069145E+03 -0.87794315353E+03  0.10745880445E+04  0.90703559511E+02 0.  0.
         13    1    3    3    0    0 -0.60161005651E+00 -0.29791465167E+03 -0.48687203636E+03  0.57078707185E+03  0.00000000000E+00 0. -1.
        -13    1    3    3    0    0  0.57063768051E+02 -0.31244603978E+03 -0.39107111717E+03  0.50380097269E+03  0.00000000000E+00 0.  1.
         22    1    1    2    0    0 -0.56462157995E+02  0.61036069145E+03 -0.17199205626E+04  0.18258846871E+04  0.00000000000E+00 0. -1.
<mgrwt>
<rscale>  0 0.12899016E+04</rscale>
<asrwt>0</asrwt>
<pdfrwt beam="1">  1        2 0.42294897E+00 0.12899016E+04</pdfrwt>
<pdfrwt beam="2">  1       -2 0.23277616E-01 0.12899016E+04</pdfrwt>
<totfact> 0.40041409E+01</totfact>
</mgrwt>
</event>
<event>
 6    1  0.1885829E-005  0.1180340E+04  0.7818608E-02  0.9130241E-01
         -2   -1    0    0    0  501 -0.00000000000E+00  0.00000000000E+00  0.26996943300E+03  0.26996943300E+03  0.00000000000E+00 0.  1.
          2   -1    0    0  501    0  0.00000000000E+00 -0.00000000000E+00 -0.12901481098E+04  0.12901481098E+04  0.00000000000E+00 0. -1.
         23    2    1    2    0    0  0.38633477267E+03 -0.44044243204E+03 -0.47180087807E+03  0.75764492478E+03  0.90474697994E+02 0.  0.
         11    1    3    3    0    0  0.29634462636E+03 -0.31778836542E+03 -0.39502547879E+03  0.58724331556E+03  0.00000000000E+00 0. -1.
        -11    1    3    3    0    0  0.89990146310E+02 -0.12265406662E+03 -0.76775399278E+02  0.17040160922E+03  0.00000000000E+00 0.  1.
         22    1    1    2    0    0 -0.38633477267E+03  0.44044243204E+03 -0.54837779869E+03  0.80247261798E+03  0.00000000000E+00 0. -1.
<mgrwt>
<rscale>  0 0.11803399E+04</rscale>
<asrwt>0</asrwt>
<pdfrwt beam="1">  1        2 0.19848432E+00 0.11803399E+04</pdfrwt>
<pdfrwt beam="2">  1       -2 0.41533760E-01 0.11803399E+04</pdfrwt>
<totfact> 0.90846376E+01</totfact>
</mgrwt>
</event>
<event>
 6    1  0.1885829E-005  0.1866490E+04  0.7818608E-02  0.8671719E-01
          2   -1    0    0  501    0  0.00000000000E+00  0.00000000000E+00  0.20898898487E+04  0.20898898487E+04  0.00000000000E+00 0. -1.
         -2   -1    0    0    0  501 -0.00000000000E+00 -0.00000000000E+00 -0.41674249928E+03  0.41674249928E+03  0.00000000000E+00 0.  1.
         23    2    1    2    0    0  0.73238824819E+03  0.48769467865E+03  0.12474345137E+04  0.15291508575E+04  0.89279523869E+02 0.  0.
         13    1    3    3    0    0  0.33020514475E+03  0.19987656386E+03  0.47650462214E+03  0.61322323286E+03  0.00000000000E+00 0. -1.
        -13    1    3    3    0    0  0.40218310344E+03  0.28781811479E+03  0.77092989156E+03  0.91592762465E+03  0.00000000000E+00 0.  1.
         22    1    1    2    0    0 -0.73238824819E+03 -0.48769467865E+03  0.42571283567E+03  0.97748149043E+03  0.00000000000E+00 0.  1.
<mgrwt>
<rscale>  0 0.18664897E+04</rscale>
<asrwt>0</asrwt>
<pdfrwt beam="1">  1        2 0.32152151E+00 0.18664897E+04</pdfrwt>
<pdfrwt beam="2">  1       -2 0.64114232E-01 0.18664897E+04</pdfrwt>
<totfact> 0.12569759E+01</totfact>
</mgrwt>
</event>
<event>
 6    1  0.1885829E-005  0.1866670E+04  0.7818608E-02  0.8671627E-01
          2   -1    0    0  501    0  0.00000000000E+00  0.00000000000E+00  0.21266516465E+04  0.21266516465E+04  0.00000000000E+00 0.  1.
         -2   -1    0    0    0  501 -0.00000000000E+00 -0.00000000000E+00 -0.40961774574E+03  0.40961774574E+03  0.00000000000E+00 0. -1.
         23    2    1    2    0    0 -0.31228609294E+03  0.74240642463E+03  0.22476929758E+03  0.84052662015E+03  0.85286920856E+02 0.  0.
         13    1    3    3    0    0 -0.14818875502E+03  0.24902809190E+03  0.88939540954E+02  0.30312561689E+03  0.00000000000E+00 0. -1.
        -13    1    3    3    0    0 -0.16409733793E+03  0.49337833273E+03  0.13582975663E+03  0.53740100326E+03  0.00000000000E+00 0.  1.
         22    1    1    2    0    0  0.31228609294E+03 -0.74240642463E+03  0.14922646032E+04  0.16957427721E+04  0.00000000000E+00 0.  1.
<mgrwt>
<rscale>  0 0.18666700E+04</rscale>
<asrwt>0</asrwt>
<pdfrwt beam="1">  1        2 0.32717717E+00 0.18666700E+04</pdfrwt>
<pdfrwt beam="2">  1       -2 0.63018116E-01 0.18666700E+04</pdfrwt>
<totfact> 0.12439887E+01</totfact>
</mgrwt>
</event>
<event>
 6    1  0.1885829E-005  0.1402145E+04  0.7818608E-02  0.8952268E-01
         -2   -1    0    0    0  501 -0.00000000000E+00  0.00000000000E+00  0.62826412891E+03  0.62826412891E+03  0.00000000000E+00 0.  1.
          2   -1    0    0  501    0  0.00000000000E+00 -0.00000000000E+00 -0.78231798504E+03  0.78231798504E+03  0.00000000000E+00 0. -1.
         23    2    1    2    0    0 -0.36670300618E+03 -0.59247960777E+03 -0.12403445500E+03  0.71315516809E+03  0.87764271673E+02 0.  0.
         13    1    3    3    0    0 -0.16283341396E+03 -0.34543739486E+03 -0.73233069691E+02  0.38885061009E+03  0.00000000000E+00 0.  1.
        -13    1    3    3    0    0 -0.20386959222E+03 -0.24704221291E+03 -0.50801385305E+02  0.32430455800E+03  0.00000000000E+00 0. -1.
         22    1    1    2    0    0  0.36670300618E+03  0.59247960777E+03 -0.30019401133E+02  0.69742694586E+03  0.00000000000E+00 0. -1.
<mgrwt>
<rscale>  0 0.14021445E+04</rscale>
<asrwt>0</asrwt>
<pdfrwt beam="1">  1        2 0.12035661E+00 0.14021445E+04</pdfrwt>
<pdfrwt beam="2">  1       -2 0.96656020E-01 0.14021445E+04</pdfrwt>
<totfact> 0.30913640E+01</totfact>
</mgrwt>
</event>
<event>
 6    1  0.1885829E-005  0.3609605E+04  0.7818608E-02  0.8088295E-01
          2   -1    0    0  501    0  0.00000000000E+00  0.00000000000E+00  0.17427275137E+04  0.17427275137E+04  0.00000000000E+00 0. -1.
         -2   -1    0    0    0  501 -0.00000000000E+00 -0.00000000000E+00 -0.18690883110E+04  0.18690883110E+04  0.00000000000E+00 0.  1.
         23    2    1    2    0    0 -0.90149875894E+03 -0.21502832297E+03 -0.16116825912E+04  0.18610679779E+04  0.84356693387E+02 0.  0.
         11    1    3    3    0    0 -0.55567554103E+03 -0.17233756073E+03 -0.98189973319E+03  0.11413161822E+04  0.00000000000E+00 0. -1.
        -11    1    3    3    0    0 -0.34582321791E+03 -0.42690762248E+02 -0.62978285796E+03  0.71975179570E+03  0.00000000000E+00 0.  1.
         22    1    1    2    0    0  0.90149875894E+03  0.21502832297E+03  0.14853217938E+04  0.17507478468E+04  0.00000000000E+00 0. -1.
<mgrwt>
<rscale>  0 0.36096048E+04</rscale>
<asrwt>0</asrwt>
<pdfrwt beam="1">  1        2 0.26811193E+00 0.36096048E+04</pdfrwt>
<pdfrwt beam="2">  1       -2 0.28755205E+00 0.36096048E+04</pdfrwt>
<totfact> 0.28635570E-01</totfact>
</mgrwt>
</event>
<event>
 6    1  0.1885829E-005  0.3417899E+04  0.7818608E-02  0.8133527E-01
         -1   -1    0    0    0  501 -0.00000000000E+00  0.00000000000E+00  0.68059304173E+03  0.68059304173E+03  0.00000000000E+00 0.  1.
          1   -1    0    0  501    0  0.00000000000E+00 -0.00000000000E+00 -0.42911219358E+04  0.42911219358E+04  0.00000000000E+00 0. -1.
         23    2    1    2    0    0  0.48697106005E+03 -0.10106457981E+04 -0.36793920262E+04  0.38477541804E+04  0.93492289011E+02 0.  0.
         11    1    3    3    0    0  0.22276540152E+03 -0.47876518830E+03 -0.15748462416E+04  0.16610181259E+04  0.00000000000E+00 0. -1.
        -11    1    3    3    0    0  0.26420565853E+03 -0.53188060977E+03 -0.21045457845E+04  0.21867360545E+04  0.00000000000E+00 0.  1.
         22    1    1    2    0    0 -0.48697106005E+03  0.10106457981E+04  0.68863132103E+02  0.11239607971E+04  0.00000000000E+00 0.  1.
<mgrwt>
<rscale>  0 0.34178986E+04</rscale>
<asrwt>0</asrwt>
<pdfrwt beam="1">  1        1 0.66017261E+00 0.34178986E+04</pdfrwt>
<pdfrwt beam="2">  1       -1 0.10470662E+00 0.34178986E+04</pdfrwt>
<totfact> 0.36417860E-02</totfact>
</mgrwt>
</event>
<event>
 6    1  0.1885829E-005  0.2480241E+04  0.7818608E-02  0.8410059E-01
         -2   -1    0    0    0  501 -0.00000000000E+00  0.00000000000E+00  0.98128210020E+03  0.98128210020E+03  0.00000000000E+00 0.  1.
          2   -1    0    0  501    0  0.00000000000E+00 -0.00000000000E+00 -0.15672343880E+04  0.15672343880E+04  0.00000000000E+00 0. -1.
         23    2    1    2    0    0  0.93116745142E+03 -0.24169430347E+03  0.50829045069E+03  0.10915140415E+04  0.86918131678E+02 0.  0.
         11    1    3    3    0    0  0.22650283811E+03 -0.33334762745E+02  0.90158765078E+02  0.24605557299E+03  0.00000000000E+00 0.  1.
        -11    1    3    3    0    0  0.70466461332E+03 -0.20835954072E+03  0.41813168561E+03  0.84545846851E+03  0.00000000000E+00 0. -1.
         22    1    1    2    0    0 -0.93116745142E+03  0.24169430347E+03 -0.10942427385E+04  0.14570024467E+04  0.00000000000E+00 0. -1.
<mgrwt>
<rscale>  0 0.24802412E+04</rscale>
<asrwt>0</asrwt>
<pdfrwt beam="1">  1        2 0.24111298E+00 0.24802412E+04</pdfrwt>
<pdfrwt beam="2">  1       -2 0.15096648E+00 0.24802412E+04</pdfrwt>
<totfact> 0.30617129E+00</totfact>
</mgrwt>
</event>
<event>
 6    1  0.1885829E-005  0.2317807E+04  0.7818608E-02  0.8470933E-01
          2   -1    0    0  501    0  0.00000000000E+00  0.00000000000E+00  0.12864841803E+04  0.12864841803E+04  0.00000000000E+00 0. -1.
         -2   -1    0    0    0  501 -0.00000000000E+00 -0.00000000000E+00 -0.10439752109E+04  0.10439752109E+04  0.00000000000E+00 0.  1.
         23    2    1    2    0    0 -0.21913096232E+03  0.15288157540E+03 -0.10106459897E+04  0.10491364395E+04  0.88830160735E+02 0.  0.
         13    1    3    3    0    0 -0.74133431791E+02  0.32875711046E+02 -0.46302280144E+03  0.47007094437E+03  0.00000000000E+00 0. -1.
        -13    1    3    3    0    0 -0.14499753052E+03  0.12000586435E+03 -0.54762318828E+03  0.57906549515E+03  0.00000000000E+00 0.  1.
         22    1    1    2    0    0  0.21913096232E+03 -0.15288157540E+03  0.12531549591E+04  0.12813229516E+04  0.00000000000E+00 0. -1.
<mgrwt>
<rscale>  0 0.23178072E+04</rscale>
<asrwt>0</asrwt>
<pdfrwt beam="1">  1        2 0.19792064E+00 0.23178072E+04</pdfrwt>
<pdfrwt beam="2">  1       -2 0.16061157E+00 0.23178072E+04</pdfrwt>
<totfact> 0.37996525E+00</totfact>
</mgrwt>
</event>
<event>
 6    1  0.1885829E-005  0.1385455E+04  0.7818608E-02  0.8964414E-01
          2   -1    0    0  501    0  0.00000000000E+00  0.00000000000E+00  0.87771086176E+03  0.87771086176E+03  0.00000000000E+00 0. -1.
         -2   -1    0    0    0  501 -0.00000000000E+00 -0.00000000000E+00 -0.54673090585E+03  0.54673090585E+03  0.00000000000E+00 0.  1.
         23    2    1    2    0    0 -0.59812682451E+03  0.31919555078E+03  0.35714390640E+02  0.68496678367E+03  0.90898180382E+02 0.  0.
         11    1    3    3    0    0 -0.41642810273E+03  0.20673864641E+03 -0.15686106176E+02  0.46518736719E+03  0.00000000000E+00 0.  1.
        -11    1    3    3    0    0 -0.18169872178E+03  0.11245690437E+03  0.51400496817E+02  0.21977941649E+03  0.00000000000E+00 0. -1.
         22    1    1    2    0    0  0.59812682451E+03 -0.31919555078E+03  0.29526556527E+03  0.73947498394E+03  0.00000000000E+00 0. -1.
<mgrwt>
<rscale>  0 0.13854554E+04</rscale>
<asrwt>0</asrwt>
<pdfrwt beam="1">  1        2 0.13503244E+00 0.13854554E+04</pdfrwt>
<pdfrwt beam="2">  1       -2 0.84112447E-01 0.13854554E+04</pdfrwt>
<totfact> 0.36523594E+01</totfact>
</mgrwt>
</event>
<event>
 6    1  0.1885829E-005  0.1384782E+04  0.7818608E-02  0.8964908E-01
         -2   -1    0    0    0  501 -0.00000000000E+00  0.00000000000E+00  0.46018005593E+03  0.46018005593E+03  0.00000000000E+00 0.  1.
          2   -1    0    0  501    0  0.00000000000E+00 -0.00000000000E+00 -0.10417774481E+04  0.10417774481E+04  0.00000000000E+00 0. -1.
         23    2    1    2    0    0 -0.27504665002E+03 -0.60969693806E+03 -0.47262183524E+03  0.82427270416E+03  0.93129349325E+02 0.  0.
         11    1    3    3    0    0 -0.12134846422E+03 -0.25892682207E+03 -0.14666660023E+03  0.32137149932E+03  0.00000000000E+00 0. -1.
        -11    1    3    3    0    0 -0.15369818580E+03 -0.35077011599E+03 -0.32595523501E+03  0.50290120483E+03  0.00000000000E+00 0.  1.
         22    1    1    2    0    0  0.27504665002E+03  0.60969693806E+03 -0.10897555692E+03  0.67768479987E+03  0.00000000000E+00 0.  1.
<mgrwt>
<rscale>  0 0.13847819E+04</rscale>
<asrwt>0</asrwt>
<pdfrwt beam="1">  1        2 0.16027345E+00 0.13847819E+04</pdfrwt>
<pdfrwt beam="2">  1       -2 0.70796932E-01 0.13847819E+04</pdfrwt>
<totfact> 0.41866866E+01</totfact>
</mgrwt>
</event>
<event>
 6    1  0.1885829E-005  0.1201002E+04  0.7818608E-02  0.9111980E-01
         -1   -1    0    0    0  501 -0.00000000000E+00  0.00000000000E+00  0.23644620368E+03  0.23644620368E+03  0.00000000000E+00 0. -1.
          1   -1    0    0  501    0  0.00000000000E+00 -0.00000000000E+00 -0.15250878900E+04  0.15250878900E+04  0.00000000000E+00 0.  1.
         23    2    1    2    0    0 -0.58843171183E+03  0.21692248427E+01 -0.79456672277E+03  0.99318088411E+03  0.93890396831E+02 0.  0.
         11    1    3    3    0    0 -0.23997857888E+03  0.71563848337E+01 -0.40212091872E+03  0.46833979698E+03  0.00000000000E+00 0. -1.
        -11    1    3    3    0    0 -0.34845313295E+03 -0.49871599909E+01 -0.39244580405E+03  0.52484108713E+03  0.00000000000E+00 0.  1.
         22    1    1    2    0    0  0.58843171183E+03 -0.21692248427E+01 -0.49407496352E+03  0.76835320953E+03  0.00000000000E+00 0.  1.
<mgrwt>
<rscale>  0 0.12010017E+04</rscale>
<asrwt>0</asrwt>
<pdfrwt beam="1">  1        1 0.23462891E+00 0.12010017E+04</pdfrwt>
<pdfrwt beam="2">  1       -1 0.36376338E-01 0.12010017E+04</pdfrwt>
<totfact> 0.45019586E+01</totfact>
</mgrwt>
</event>
<event>
 6    1  0.1885829E-005  0.1757925E+04  0.7818608E-02  0.8729000E-01
         -1   -1    0    0    0  501 -0.00000000000E+00  0.00000000000E+00  0.35459411760E+03  0.35459411760E+03  0.00000000000E+00 0.  1.
          1   -1    0    0  501    0  0.00000000000E+00 -0.00000000000E+00 -0.21787592050E+04  0.21787592050E+04  0.00000000000E+00 0. -1.
         23    2    1    2    0    0  0.74635133478E+03 -0.11255735773E+03 -0.27207774690E+03  0.80746671385E+03  0.90921504104E+02 0.  0.
         13    1    3    3    0    0  0.63598962772E+03 -0.12306129348E+03 -0.25045333934E+03  0.69451692831E+03  0.00000000000E+00 0.  1.
        -13    1    3    3    0    0  0.11036170706E+03  0.10503935748E+02 -0.21624407562E+02  0.11294978554E+03  0.00000000000E+00 0. -1.
         22    1    1    2    0    0 -0.74635133478E+03  0.11255735773E+03 -0.15520873405E+04  0.17258866087E+04  0.00000000000E+00 0. -1.
<mgrwt>
<rscale>  0 0.17579251E+04</rscale>
<asrwt>0</asrwt>
<pdfrwt beam="1">  1        1 0.33519373E+00 0.17579251E+04</pdfrwt>
<pdfrwt beam="2">  1       -1 0.54552941E-01 0.17579251E+04</pdfrwt>
<totfact> 0.72437585E+00</totfact>
</mgrwt>
</event>
<event>
 6    1  0.1885829E-005  0.1234015E+04  0.7818608E-02  0.9083593E-01
          2   -1    0    0  501    0  0.00000000000E+00  0.00000000000E+00  0.10900742103E+04  0.10900742103E+04  0.00000000000E+00 0. -1.
         -2   -1    0    0    0  501 -0.00000000000E+00 -0.00000000000E+00 -0.34924091470E+03  0.34924091470E+03  0.00000000000E+00 0.  1.
         23    2    1    2    0    0  0.31236534573E+03  0.51124185716E+03  0.52748348389E+03  0.80334461636E+03  0.90462153007E+02 0.  0.
         11    1    3    3    0    0  0.15979798313E+03  0.28913992975E+03  0.34651802928E+03  0.47876094139E+03  0.00000000000E+00 0. -1.
        -11    1    3    3    0    0  0.15256736260E+03  0.22210192741E+03  0.18096545461E+03  0.32458367496E+03  0.00000000000E+00 0.  1.
         22    1    1    2    0    0 -0.31236534573E+03 -0.51124185716E+03  0.21334981173E+03  0.63597050866E+03  0.00000000000E+00 0. -1.
<mgrwt>
<rscale>  0 0.12340154E+04</rscale>
<asrwt>0</asrwt>
<pdfrwt beam="1">  1        2 0.16770372E+00 0.12340154E+04</pdfrwt>
<pdfrwt beam="2">  1       -2 0.53729372E-01 0.12340154E+04</pdfrwt>
<totfact> 0.70993531E+01</totfact>
</mgrwt>
</event>
<event>
 6    1  0.2257943E-005  0.3965163E+04  0.7818608E-02  0.8011611E-01
         -2   -1    0    0    0  501 -0.00000000000E+00  0.00000000000E+00  0.24749254550E+04  0.24749254550E+04  0.00000000000E+00 0.  1.
          2   -1    0    0  501    0  0.00000000000E+00 -0.00000000000E+00 -0.15881812235E+04  0.15881812235E+04  0.00000000000E+00 0. -1.
         23    2    1    2    0    0 -0.18971386102E+04  0.25389777131E+03  0.96905707392E+03  0.21472845603E+04  0.90334852589E+02 0.  0.
         13    1    3    3    0    0 -0.12911828790E+04  0.19476453726E+03  0.70096234540E+03  0.14820373348E+04  0.00000000000E+00 0. -1.
        -13    1    3    3    0    0 -0.60595573122E+03  0.59133234046E+02  0.26809472852E+03  0.66524722550E+03  0.00000000000E+00 0.  1.
         22    1    1    2    0    0  0.18971386102E+04 -0.25389777131E+03 -0.82312842426E+02  0.19158221182E+04  0.00000000000E+00 0. -1.
<mgrwt>
<rscale>  0 0.39651634E+04</rscale>
<asrwt>0</asrwt>
<pdfrwt beam="1">  1        2 0.24433557E+00 0.39651634E+04</pdfrwt>
<pdfrwt beam="2">  1       -2 0.38075776E+00 0.39651634E+04</pdfrwt>
<totfact> 0.88642147E-02</totfact>
</mgrwt>
</event>
<event>
 6    1  0.1885829E-005  0.3592035E+04  0.7818608E-02  0.8092319E-01
         -2   -1    0    0    0  501 -0.00000000000E+00  0.00000000000E+00  0.11266266510E+04  0.11266266510E+04  0.00000000000E+00 0.  1.
          2   -1    0    0  501    0  0.00000000000E+00 -0.00000000000E+00 -0.28631307979E+04  0.28631307979E+04  0.00000000000E+00 0. -1.
         23    2    1    2    0    0 -0.62288403953E+03  0.15985098257E+04 -0.14546131115E+04  0.22511716024E+04  0.93038109180E+02 0.  0.
         11    1    3    3    0    0 -0.21056867194E+03  0.66612970046E+03 -0.58888784883E+03  0.91370500816E+03  0.00000000000E+00 0. -1.
        -11    1    3    3    0    0 -0.41231536759E+03  0.93238012529E+03 -0.86572526264E+03  0.13374665943E+04  0.00000000000E+00 0.  1.
         22    1    1    2    0    0  0.62288403953E+03 -0.15985098257E+04 -0.28189103545E+03  0.17385858465E+04  0.00000000000E+00 0.  1.
<mgrwt>
<rscale>  0 0.35920353E+04</rscale>
<asrwt>0</asrwt>
<pdfrwt beam="1">  1        2 0.44048165E+00 0.35920353E+04</pdfrwt>
<pdfrwt beam="2">  1       -2 0.17332718E+00 0.35920353E+04</pdfrwt>
<totfact> 0.34831893E-01</totfact>
</mgrwt>
</event>
<event>
 6    1  0.1885829E-005  0.1275138E+04  0.7818608E-02  0.9049517E-01
          1   -1    0    0  501    0  0.00000000000E+00  0.00000000000E+00  0.22573075060E+04  0.22573075060E+04  0.00000000000E+00 0. -1.
         -1   -1    0    0    0  501 -0.00000000000E+00 -0.00000000000E+00 -0.18007923970E+03  0.18007923970E+03  0.00000000000E+00 0.  1.
         23    2    1    2    0    0  0.13613123319E+03 -0.30100703568E+03  0.20789637785E+04  0.21070233698E+04  0.91214803712E+02 0.  0.
         11    1    3    3    0    0  0.12535004271E+02 -0.32313965392E+02  0.45720754587E+03  0.45851942019E+03  0.00000000000E+00 0. -1.
        -11    1    3    3    0    0  0.12359622892E+03 -0.26869307029E+03  0.16217562326E+04  0.16485039496E+04  0.00000000000E+00 0.  1.
         22    1    1    2    0    0 -0.13613123319E+03  0.30100703568E+03 -0.17355121289E+01  0.33036337597E+03  0.00000000000E+00 0.  1.
<mgrwt>
<rscale>  0 0.12751380E+04</rscale>
<asrwt>0</asrwt>
<pdfrwt beam="1">  1        1 0.34727806E+00 0.12751380E+04</pdfrwt>
<pdfrwt beam="2">  1       -1 0.27704500E-01 0.12751380E+04</pdfrwt>
<totfact> 0.23051064E+01</totfact>
</mgrwt>
</event>
<event>
 6    1  0.1885829E-005  0.2700107E+04  0.7818608E-02  0.8334970E-01
          1   -1    0    0  501    0  0.00000000000E+00  0.00000000000E+00  0.15400178571E+04  0.15400178571E+04  0.00000000000E+00 0. -1.
         -1   -1    0    0    0  501 -0.00000000000E+00 -0.00000000000E+00 -0.11835212993E+04  0.11835212993E+04  0.00000000000E+00 0.  1.
         23    2    1    2    0    0 -0.10206075241E+04 -0.87140232287E+03  0.44749353690E+02  0.13457989611E+04  0.90502002619E+02 0.  0.
         13    1    3    3    0    0 -0.62609433146E+03 -0.49703084251E+03 -0.74408945182E+01  0.79943050805E+03  0.00000000000E+00 0.  1.
        -13    1    3    3    0    0 -0.39451319265E+03 -0.37437148036E+03  0.52190248208E+02  0.54636845305E+03  0.00000000000E+00 0. -1.
         22    1    1    2    0    0  0.10206075241E+04  0.87140232287E+03  0.31174720416E+03  0.13777401953E+04  0.00000000000E+00 0. -1.
<mgrwt>
<rscale>  0 0.27001066E+04</rscale>
<asrwt>0</asrwt>
<pdfrwt beam="1">  1        1 0.23692582E+00 0.27001066E+04</pdfrwt>
<pdfrwt beam="2">  1       -1 0.18208020E+00 0.27001066E+04</pdfrwt>
<totfact> 0.10776134E+00</totfact>
</mgrwt>
</event>
<event>
 6    1  0.2230907E-005  0.1831762E+04  0.7818608E-02  0.8689589E-01
         -1   -1    0    0    0  501 -0.00000000000E+00  0.00000000000E+00  0.67838849437E+03  0.67838849437E+03  0.00000000000E+00 0.  1.
          1   -1    0    0  501    0  0.00000000000E+00 -0.00000000000E+00 -0.12365152939E+04  0.12365152939E+04  0.00000000000E+00 0. -1.
         23    2    1    2    0    0  0.28312311261E+03 -0.65350127531E+03  0.31867075869E+03  0.78530360598E+03  0.89039807928E+02 0.  0.
         13    1    3    3    0    0  0.11438069410E+03 -0.35968113941E+03  0.14270309391E+03  0.40350667682E+03  0.00000000000E+00 0. -1.
        -13    1    3    3    0    0  0.16874241851E+03 -0.29382013590E+03  0.17596766479E+03  0.38179692916E+03  0.00000000000E+00 0.  1.
         22    1    1    2    0    0 -0.28312311261E+03  0.65350127531E+03 -0.87679755818E+03  0.11296001823E+04  0.00000000000E+00 0. -1.
<mgrwt>
<rscale>  0 0.18317617E+04</rscale>
<asrwt>0</asrwt>
<pdfrwt beam="1">  1        1 0.19023312E+00 0.18317617E+04</pdfrwt>
<pdfrwt beam="2">  1       -1 0.10436746E+00 0.18317617E+04</pdfrwt>
<totfact> 0.81670609E+00</totfact>
</mgrwt>
</event>
<event>
 6    1  0.1885829E-005  0.1472236E+04  0.7818608E-02  0.8903129E-01
         -2   -1    0    0    0  501 -0.00000000000E+00  0.00000000000E+00  0.41556264463E+03  0.41556264463E+03  0.00000000000E+00 0. -1.
          2   -1    0    0  501    0  0.00000000000E+00 -0.00000000000E+00 -0.13039417092E+04  0.13039417092E+04  0.00000000000E+00 0.  1.
         23    2    1    2    0    0  0.50971835004E+03  0.50586522639E+03 -0.26964742999E+03  0.77159019145E+03  0.83242197314E+02 0.  0.
         11    1    3    3    0    0  0.15686238818E+03  0.10561983078E+03 -0.61569806474E+02  0.19887734549E+03  0.00000000000E+00 0. -1.
        -11    1    3    3    0    0  0.35285596185E+03  0.40024539561E+03 -0.20807762351E+03  0.57271284596E+03  0.00000000000E+00 0.  1.
         22    1    1    2    0    0 -0.50971835004E+03 -0.50586522639E+03 -0.61873163462E+03  0.94791416241E+03  0.00000000000E+00 0.  1.
<mgrwt>
<rscale>  0 0.14722357E+04</rscale>
<asrwt>0</asrwt>
<pdfrwt beam="1">  1        2 0.20060642E+00 0.14722357E+04</pdfrwt>
<pdfrwt beam="2">  1       -2 0.63932714E-01 0.14722357E+04</pdfrwt>
<totfact> 0.36015756E+01</totfact>
</mgrwt>
</event>
<event>
 6    1  0.1885829E-005  0.1911133E+04  0.7818608E-02  0.8649335E-01
         -2   -1    0    0    0  501 -0.00000000000E+00  0.00000000000E+00  0.38332950998E+03  0.38332950998E+03  0.00000000000E+00 0. -1.
          2   -1    0    0  501    0  0.00000000000E+00 -0.00000000000E+00 -0.23820425123E+04  0.23820425123E+04  0.00000000000E+00 0.  1.
         23    2    1    2    0    0 -0.43848456534E+03 -0.82683003725E+03 -0.12635345022E+04  0.15752442763E+04  0.94649180787E+02 0.  0.
         11    1    3    3    0    0 -0.83607066300E+02 -0.10326580956E+03 -0.21566249477E+03  0.25330669278E+03  0.00000000000E+00 0.  1.
        -11    1    3    3    0    0 -0.35487749904E+03 -0.72356422769E+03 -0.10478720074E+04  0.13219375836E+04  0.00000000000E+00 0. -1.
         22    1    1    2    0    0  0.43848456534E+03  0.82683003725E+03 -0.73517850012E+03  0.11901277459E+04  0.00000000000E+00 0. -1.
<mgrwt>
<rscale>  0 0.19111328E+04</rscale>
<asrwt>0</asrwt>
<pdfrwt beam="1">  1        2 0.36646808E+00 0.19111328E+04</pdfrwt>
<pdfrwt beam="2">  1       -2 0.58973771E-01 0.19111328E+04</pdfrwt>
<totfact> 0.10236732E+01</totfact>
</mgrwt>
</event>
<event>
 6    1  0.1885829E-005  0.3263357E+04  0.7818608E-02  0.8172282E-01
          2   -1    0    0  501    0  0.00000000000E+00  0.00000000000E+00  0.28146666878E+04  0.28146666878E+04  0.00000000000E+00 0. -1.
         -2   -1    0    0    0  501 -0.00000000000E+00 -0.00000000000E+00 -0.94589353965E+03  0.94589353965E+03  0.00000000000E+00 0.  1.
         23    2    1    2    0    0  0.38801180367E+03 -0.11441774368E+04 -0.32676110858E+03  0.12545542739E+04  0.86246376984E+02 0.  0.
         11    1    3    3    0    0  0.29416628253E+03 -0.93342454396E+03 -0.29152037675E+03  0.10211754556E+04  0.00000000000E+00 0.  1.
        -11    1    3    3    0    0  0.93845521141E+02 -0.21075289281E+03 -0.35240731822E+02  0.23337881833E+03  0.00000000000E+00 0. -1.
         22    1    1    2    0    0 -0.38801180367E+03  0.11441774368E+04  0.21955342567E+04  0.25060059535E+04  0.00000000000E+00 0. -1.
<mgrwt>
<rscale>  0 0.32633572E+04</rscale>
<asrwt>0</asrwt>
<pdfrwt beam="1">  1        2 0.43302564E+00 0.32633572E+04</pdfrwt>
<pdfrwt beam="2">  1       -2 0.14552208E+00 0.32633572E+04</pdfrwt>
<totfact> 0.61572454E-01</totfact>
</mgrwt>
</event>
<event>
 6    1  0.1885829E-005  0.1073635E+04  0.7818608E-02  0.9231277E-01
         -2   -1    0    0    0  501 -0.00000000000E+00  0.00000000000E+00  0.50602908115E+03  0.50602908115E+03  0.00000000000E+00 0.  1.
          2   -1    0    0  501    0  0.00000000000E+00 -0.00000000000E+00 -0.56947869850E+03  0.56947869850E+03  0.00000000000E+00 0. -1.
         23    2    1    2    0    0 -0.24336138607E+03  0.26881134780E+03  0.35954763026E+03  0.51836239789E+03  0.89111010463E+02 0.  0.
         11    1    3    3    0    0  0.10220057535E+00  0.12187920314E+02 -0.22236298535E+01  0.12389526878E+02  0.00000000000E+00 0. -1.
        -11    1    3    3    0    0 -0.24346358664E+03  0.25662342749E+03  0.36177126011E+03  0.50597287101E+03  0.00000000000E+00 0.  1.
         22    1    1    2    0    0  0.24336138607E+03 -0.26881134780E+03 -0.42299724761E+03  0.55714538177E+03  0.00000000000E+00 0. -1.
<mgrwt>
<rscale>  0 0.10736345E+04</rscale>
<asrwt>0</asrwt>
<pdfrwt beam="1">  1        2 0.87612107E-01 0.10736345E+04</pdfrwt>
<pdfrwt beam="2">  1       -2 0.77850628E-01 0.10736345E+04</pdfrwt>
<totfact> 0.77223828E+01</totfact>
</mgrwt>
</event>
<event>
 6    1  0.1885829E-005  0.3329243E+04  0.7818608E-02  0.8155494E-01
         -2   -1    0    0    0  501 -0.00000000000E+00  0.00000000000E+00  0.77779068377E+03  0.77779068377E+03  0.00000000000E+00 0.  1.
          2   -1    0    0  501    0  0.00000000000E+00 -0.00000000000E+00 -0.35626104809E+04  0.35626104809E+04  0.00000000000E+00 0. -1.
         23    2    1    2    0    0  0.82872014602E+03  0.67600245011E+03  0.26624281610E+03  0.11073314990E+04  0.10743099490E+03 0.  0.
         13    1    3    3    0    0  0.60844274797E+03  0.43822887855E+03  0.16512594460E+03  0.76779795853E+03  0.00000000000E+00 0.  1.
        -13    1    3    3    0    0  0.22027739805E+03  0.23777357156E+03  0.10111687149E+03  0.33953354050E+03  0.00000000000E+00 0. -1.
         22    1    1    2    0    0 -0.82872014602E+03 -0.67600245011E+03 -0.30510626132E+04  0.32330696656E+04  0.00000000000E+00 0. -1.
<mgrwt>
<rscale>  0 0.33292433E+04</rscale>
<asrwt>0</asrwt>
<pdfrwt beam="1">  1        2 0.54809393E+00 0.33292433E+04</pdfrwt>
<pdfrwt beam="2">  1       -2 0.11966010E+00 0.33292433E+04</pdfrwt>
<totfact> 0.32666903E-01</totfact>
</mgrwt>
</event>
<event>
 6    1  0.1885829E-005  0.2877811E+04  0.7818608E-02  0.8279510E-01
         -2   -1    0    0    0  501 -0.00000000000E+00  0.00000000000E+00  0.63299781695E+03  0.63299781695E+03  0.00000000000E+00 0.  1.
          2   -1    0    0  501    0  0.00000000000E+00 -0.00000000000E+00 -0.32708617449E+04  0.32708617449E+04  0.00000000000E+00 0. -1.
         23    2    1    2    0    0  0.49330464744E+02  0.86674640395E+03 -0.28745194527E+04  0.30040325446E+04  0.87559247324E+02 0.  0.
         11    1    3    3    0    0 -0.16746107461E+02  0.43772946119E+03 -0.14908473957E+04  0.15538704806E+04  0.00000000000E+00 0.  1.
        -11    1    3    3    0    0  0.66076572205E+02  0.42901694277E+03 -0.13836720570E+04  0.14501620640E+04  0.00000000000E+00 0. -1.
         22    1    1    2    0    0 -0.49330464744E+02 -0.86674640395E+03  0.23665552475E+03  0.89982701721E+03  0.00000000000E+00 0.  1.
<mgrwt>
<rscale>  0 0.28778105E+04</rscale>
<asrwt>0</asrwt>
<pdfrwt beam="1">  1        2 0.50320951E+00 0.28778105E+04</pdfrwt>
<pdfrwt beam="2">  1       -2 0.97384278E-01 0.28778105E+04</pdfrwt>
<totfact> 0.88509839E-01</totfact>
</mgrwt>
</event>
<event>
 6    1  0.1885829E-005  0.1911798E+04  0.7818608E-02  0.8649006E-01
         -2   -1    0    0    0  501 -0.00000000000E+00  0.00000000000E+00  0.34397789962E+03  0.34397789962E+03  0.00000000000E+00 0.  1.
          2   -1    0    0  501    0  0.00000000000E+00 -0.00000000000E+00 -0.26563996805E+04  0.26563996805E+04  0.00000000000E+00 0. -1.
         23    2    1    2    0    0 -0.86562437305E+03  0.11110681925E+03 -0.55473108806E+03  0.10379487656E+04  0.89223200178E+02 0.  0.
         13    1    3    3    0    0 -0.27647671994E+03  0.13394223786E+02 -0.13471920959E+03  0.30784419327E+03  0.00000000000E+00 0. -1.
        -13    1    3    3    0    0 -0.58914765311E+03  0.97712595463E+02 -0.42001187848E+03  0.73010457233E+03  0.00000000000E+00 0.  1.
         22    1    1    2    0    0  0.86562437305E+03 -0.11110681925E+03 -0.17576906929E+04  0.19624288146E+04  0.00000000000E+00 0. -1.
<mgrwt>
<rscale>  0 0.19117979E+04</rscale>
<asrwt>0</asrwt>
<pdfrwt beam="1">  1        2 0.40867686E+00 0.19117979E+04</pdfrwt>
<pdfrwt beam="2">  1       -2 0.52919678E-01 0.19117979E+04</pdfrwt>
<totfact> 0.88942054E+00</totfact>
</mgrwt>
</event>
<event>
 6    1  0.1885829E-005  0.2981411E+04  0.7818608E-02  0.8249059E-01
         -2   -1    0    0    0  501 -0.00000000000E+00  0.00000000000E+00  0.12214075657E+04  0.12214075657E+04  0.00000000000E+00 0.  1.
          2   -1    0    0  501    0  0.00000000000E+00 -0.00000000000E+00 -0.18193784054E+04  0.18193784054E+04  0.00000000000E+00 0. -1.
         23    2    1    2    0    0  0.14843585681E+04 -0.75802821732E+02 -0.39683879325E+03  0.15409458041E+04  0.89255345752E+02 0.  0.
         11    1    3    3    0    0  0.85032121153E+02 -0.11655630108E+02 -0.43750210404E+02  0.96334813288E+02  0.00000000000E+00 0. -1.
        -11    1    3    3    0    0  0.13993264470E+04 -0.64147191624E+02 -0.35308858285E+03  0.14446109908E+04  0.00000000000E+00 0.  1.
         22    1    1    2    0    0 -0.14843585681E+04  0.75802821732E+02 -0.20113204638E+03  0.14998401670E+04  0.00000000000E+00 0.  1.
<mgrwt>
<rscale>  0 0.29814108E+04</rscale>
<asrwt>0</asrwt>
<pdfrwt beam="1">  1        2 0.27990437E+00 0.29814108E+04</pdfrwt>
<pdfrwt beam="2">  1       -2 0.18790886E+00 0.29814108E+04</pdfrwt>
<totfact> 0.11556017E+00</totfact>
</mgrwt>
</event>
<event>
 6    1  0.1885829E-005  0.9967712E+03  0.7818608E-02  0.9312093E-01
         -2   -1    0    0    0  501 -0.00000000000E+00  0.00000000000E+00  0.37231710554E+03  0.37231710554E+03  0.00000000000E+00 0.  1.
          2   -1    0    0  501    0  0.00000000000E+00 -0.00000000000E+00 -0.66714158299E+03  0.66714158299E+03  0.00000000000E+00 0. -1.
         23    2    1    2    0    0 -0.28883725421E+03 -0.38619250740E+03 -0.26177137230E+03  0.55607052158E+03  0.90103060003E+02 0.  0.
         13    1    3    3    0    0 -0.21755271322E+03 -0.25974151267E+03 -0.14000156287E+03  0.36659960998E+03  0.00000000000E+00 0.  1.
        -13    1    3    3    0    0 -0.71284540997E+02 -0.12645099473E+03 -0.12176980944E+03  0.18947091160E+03  0.00000000000E+00 0. -1.
         22    1    1    2    0    0  0.28883725421E+03  0.38619250740E+03 -0.33053105154E+02  0.48338816695E+03  0.00000000000E+00 0.  1.
<mgrwt>
<rscale>  0 0.99677123E+03</rscale>
<asrwt>0</asrwt>
<pdfrwt beam="1">  1        2 0.10263717E+00 0.99677123E+03</pdfrwt>
<pdfrwt beam="2">  1       -2 0.57279555E-01 0.99677123E+03</pdfrwt>
<totfact> 0.12419783E+02</totfact>
</mgrwt>
</event>
<event>
 6    1  0.1885829E-005  0.1293579E+04  0.7818608E-02  0.9034673E-01
         -2   -1    0    0    0  501 -0.00000000000E+00  0.00000000000E+00  0.20838035200E+03  0.20838035200E+03  0.00000000000E+00 0.  1.
          2   -1    0    0  501    0  0.00000000000E+00 -0.00000000000E+00 -0.20075624103E+04  0.20075624103E+04  0.00000000000E+00 0. -1.
         23    2    1    2    0    0 -0.12021673109E+03 -0.52755290946E+03 -0.30682403933E+03  0.62852454661E+03  0.90210752528E+02 0.  0.
         13    1    3    3    0    0 -0.89514385168E+02 -0.31043204000E+03 -0.22832054128E+03  0.39561489631E+03  0.00000000000E+00 0. -1.
        -13    1    3    3    0    0 -0.30702345922E+02 -0.21712086946E+03 -0.78503498056E+02  0.23290965031E+03  0.00000000000E+00 0.  1.
         22    1    1    2    0    0  0.12021673109E+03  0.52755290946E+03 -0.14923580190E+04  0.15874182157E+04  0.00000000000E+00 0. -1.
<mgrwt>
<rscale>  0 0.12935789E+04</rscale>
<asrwt>0</asrwt>
<pdfrwt beam="1">  1        2 0.30885575E+00 0.12935789E+04</pdfrwt>
<pdfrwt beam="2">  1       -2 0.32058516E-01 0.12935789E+04</pdfrwt>
<totfact> 0.58794297E+01</totfact>
</mgrwt>
</event>
<event>
 6    1  0.1885829E-005  0.1438620E+04  0.7818608E-02  0.8926328E-01
         -2   -1    0    0    0  501 -0.00000000000E+00  0.00000000000E+00  0.42276151979E+03  0.42276151979E+03  0.00000000000E+00 0.  1.
          2   -1    0    0  501    0  0.00000000000E+00 -0.00000000000E+00 -0.12238748195E+04  0.12238748195E+04  0.00000000000E+00 0. -1.
         23    2    1    2    0    0 -0.33429757004E+03 -0.31540460317E+03  0.22709408429E+03  0.52038354638E+03  0.89400129680E+02 0.  0.
         13    1    3    3    0    0 -0.15099502395E+03 -0.99945137771E+02  0.12325724318E+03  0.21904537388E+03  0.00000000000E+00 0.  1.
        -13    1    3    3    0    0 -0.18330254608E+03 -0.21545946540E+03  0.10383684111E+03  0.30133817250E+03  0.00000000000E+00 0. -1.
         22    1    1    2    0    0  0.33429757004E+03  0.31540460317E+03 -0.10282073840E+04  0.11262527929E+04  0.00000000000E+00 0. -1.
<mgrwt>
<rscale>  0 0.14386204E+04</rscale>
<asrwt>0</asrwt>
<pdfrwt beam="1">  1        2 0.18828843E+00 0.14386204E+04</pdfrwt>
<pdfrwt beam="2">  1       -2 0.65040234E-01 0.14386204E+04</pdfrwt>
<totfact> 0.38788993E+01</totfact>
</mgrwt>
</event>
<event>
 6    1  0.1885829E-005  0.3558487E+04  0.7818608E-02  0.8100068E-01
          2   -1    0    0  501    0  0.00000000000E+00  0.00000000000E+00  0.15825839812E+04  0.15825839812E+04  0.00000000000E+00 0. -1.
         -2   -1    0    0    0  501 -0.00000000000E+00 -0.00000000000E+00 -0.20003406657E+04  0.20003406657E+04  0.00000000000E+00 0.  1.
         23    2    1    2    0    0  0.30683127701E+03 -0.14839040221E+04 -0.11453826326E+04  0.19019855939E+04  0.97628093913E+02 0.  0.
         13    1    3    3    0    0  0.10737762765E+02 -0.14383669658E+03 -0.13733188649E+03  0.19915908686E+03  0.00000000000E+00 0.  1.
        -13    1    3    3    0    0  0.29609351424E+03 -0.13400673256E+04 -0.10080507461E+04  0.17028265070E+04  0.00000000000E+00 0. -1.
         22    1    1    2    0    0 -0.30683127701E+03  0.14839040221E+04  0.72762594811E+03  0.16809390530E+04  0.00000000000E+00 0. -1.
<mgrwt>
<rscale>  0 0.35584868E+04</rscale>
<asrwt>0</asrwt>
<pdfrwt beam="1">  1        2 0.24347446E+00 0.35584868E+04</pdfrwt>
<pdfrwt beam="2">  1       -2 0.30774472E+00 0.35584868E+04</pdfrwt>
<totfact> 0.26570357E-01</totfact>
</mgrwt>
</event>
<event>
 6    1  0.1885829E-005  0.5179123E+04  0.7818608E-02  0.7801455E-01
         -2   -1    0    0    0  501 -0.00000000000E+00  0.00000000000E+00  0.13574734190E+04  0.13574734190E+04  0.00000000000E+00 0.  1.
          2   -1    0    0  501    0  0.00000000000E+00 -0.00000000000E+00 -0.49399345585E+04  0.49399345585E+04  0.00000000000E+00 0. -1.
         23    2    1    2    0    0  0.12387927395E+04 -0.22344191525E+04 -0.22993302602E+04  0.34384464083E+04  0.93582351624E+02 0.  0.
         11    1    3    3    0    0  0.47103284786E+03 -0.90039840106E+03 -0.86264569326E+03  0.13329466668E+04  0.00000000000E+00 0. -1.
        -11    1    3    3    0    0  0.76775989169E+03 -0.13340207514E+04 -0.14366845669E+04  0.21054997415E+04  0.00000000000E+00 0.  1.
         22    1    1    2    0    0 -0.12387927395E+04  0.22344191525E+04 -0.12831308794E+04  0.28589615692E+04  0.00000000000E+00 0.  1.
<mgrwt>
<rscale>  0 0.51791234E+04</rscale>
<asrwt>0</asrwt>
<pdfrwt beam="1">  1        2 0.75998993E+00 0.51791234E+04</pdfrwt>
<pdfrwt beam="2">  1       -2 0.20884206E+00 0.51791234E+04</pdfrwt>
<totfact> 0.33516057E-03</totfact>
</mgrwt>
</event>
<event>
 6    1  0.2011116E-005  0.3452570E+04  0.7818608E-02  0.8125123E-01
          2   -1    0    0  501    0  0.00000000000E+00  0.00000000000E+00  0.30996664921E+04  0.30996664921E+04  0.00000000000E+00 0. -1.
         -2   -1    0    0    0  501 -0.00000000000E+00 -0.00000000000E+00 -0.96141313418E+03  0.96141313418E+03  0.00000000000E+00 0.  1.
         23    2    1    2    0    0 -0.55766851423E+03 -0.14928178381E+04  0.29291759679E+03  0.16228910895E+04  0.92062479764E+02 0.  0.
         13    1    3    3    0    0 -0.38735170298E+03 -0.92019662665E+03  0.20134044573E+03  0.10184994593E+04  0.00000000000E+00 0. -1.
        -13    1    3    3    0    0 -0.17031681124E+03 -0.57262121148E+03  0.91577151052E+02  0.60439163018E+03  0.00000000000E+00 0.  1.
         22    1    1    2    0    0  0.55766851423E+03  0.14928178381E+04  0.18453357611E+04  0.24381885368E+04  0.00000000000E+00 0.  1.
<mgrwt>
<rscale>  0 0.34525701E+04</rscale>
<asrwt>0</asrwt>
<pdfrwt beam="1">  1        2 0.47687176E+00 0.34525701E+04</pdfrwt>
<pdfrwt beam="2">  1       -2 0.14790971E+00 0.34525701E+04</pdfrwt>
<totfact> 0.38586436E-01</totfact>
</mgrwt>
</event>
<event>
 6    1  0.1885829E-005  0.3881869E+04  0.7818608E-02  0.8028811E-01
          2   -1    0    0  501    0  0.00000000000E+00  0.00000000000E+00  0.19741160275E+04  0.19741160275E+04  0.00000000000E+00 0. -1.
         -2   -1    0    0    0  501 -0.00000000000E+00 -0.00000000000E+00 -0.19083108746E+04  0.19083108746E+04  0.00000000000E+00 0.  1.
         23    2    1    2    0    0 -0.54559330318E+03 -0.58594058040E+02 -0.18280342309E+04  0.19106934191E+04  0.89077923296E+02 0.  0.
         13    1    3    3    0    0 -0.14799397781E+03 -0.46324808966E+02 -0.42722939732E+03  0.45450320497E+03  0.00000000000E+00 0. -1.
        -13    1    3    3    0    0 -0.39759932537E+03 -0.12269249074E+02 -0.14008048336E+04  0.14561902142E+04  0.00000000000E+00 0.  1.
         22    1    1    2    0    0  0.54559330318E+03  0.58594058040E+02  0.18938393838E+04  0.19717334829E+04  0.00000000000E+00 0. -1.
<mgrwt>
<rscale>  0 0.38818692E+04</rscale>
<asrwt>0</asrwt>
<pdfrwt beam="1">  1        2 0.30371016E+00 0.38818692E+04</pdfrwt>
<pdfrwt beam="2">  1       -2 0.29358629E+00 0.38818692E+04</pdfrwt>
<totfact> 0.19136930E-01</totfact>
</mgrwt>
</event>
<event>
 6    1  0.1885829E-005  0.2278375E+04  0.7818608E-02  0.8486497E-01
         -2   -1    0    0    0  501 -0.00000000000E+00  0.00000000000E+00  0.87298440739E+03  0.87298440739E+03  0.00000000000E+00 0.  1.
          2   -1    0    0  501    0  0.00000000000E+00 -0.00000000000E+00 -0.14865650241E+04  0.14865650241E+04  0.00000000000E+00 0. -1.
         23    2    1    2    0    0  0.33399105226E+02 -0.94838780683E+03  0.34068368457E+03  0.10137503049E+04  0.10521109919E+03 0.  0.
         13    1    3    3    0    0  0.53636120312E+02 -0.34139723211E+03  0.93182424419E+02  0.35792718214E+03  0.00000000000E+00 0. -1.
        -13    1    3    3    0    0 -0.20237015085E+02 -0.60699057472E+03  0.24750126015E+03  0.65582312277E+03  0.00000000000E+00 0.  1.
         22    1    1    2    0    0 -0.33399105226E+02  0.94838780683E+03 -0.95426430123E+03  0.13457991265E+04  0.00000000000E+00 0. -1.
<mgrwt>
<rscale>  0 0.22783749E+04</rscale>
<asrwt>0</asrwt>
<pdfrwt beam="1">  1        2 0.22870231E+00 0.22783749E+04</pdfrwt>
<pdfrwt beam="2">  1       -2 0.13430529E+00 0.22783749E+04</pdfrwt>
<totfact> 0.46908059E+00</totfact>
</mgrwt>
</event>
<event>
 6    1  0.1885829E-005  0.3511500E+04  0.7818608E-02  0.8111070E-01
         -1   -1    0    0    0  501 -0.00000000000E+00  0.00000000000E+00  0.10364143541E+04  0.10364143541E+04  0.00000000000E+00 0.  1.
          1   -1    0    0  501    0  0.00000000000E+00 -0.00000000000E+00 -0.29743484714E+04  0.29743484714E+04  0.00000000000E+00 0. -1.
         23    2    1    2    0    0 -0.20785597277E+03 -0.17191342937E+04 -0.12923211111E+04  0.21626711127E+04  0.91791404644E+02 0.  0.
         13    1    3    3    0    0 -0.10034811232E+03 -0.11568002040E+04 -0.84299368920E+03  0.14348849486E+04  0.00000000000E+00 0. -1.
        -13    1    3    3    0    0 -0.10750786045E+03 -0.56233408970E+03 -0.44932742193E+03  0.72778616406E+03  0.00000000000E+00 0.  1.
         22    1    1    2    0    0  0.20785597277E+03  0.17191342937E+04 -0.64561300614E+03  0.18480917128E+04  0.00000000000E+00 0. -1.
<mgrwt>
<rscale>  0 0.35114997E+04</rscale>
<asrwt>0</asrwt>
<pdfrwt beam="1">  1        1 0.45759207E+00 0.35114997E+04</pdfrwt>
<pdfrwt beam="2">  1       -1 0.15944836E+00 0.35114997E+04</pdfrwt>
<totfact> 0.14997601E-01</totfact>
</mgrwt>
</event>
<event>
 6    1  0.1885829E-005  0.4657953E+04  0.7818608E-02  0.7883553E-01
         -2   -1    0    0    0  501 -0.00000000000E+00  0.00000000000E+00  0.17655566762E+04  0.17655566762E+04  0.00000000000E+00 0.  1.
          2   -1    0    0  501    0  0.00000000000E+00 -0.00000000000E+00 -0.30721932560E+04  0.30721932560E+04  0.00000000000E+00 0. -1.
         23    2    1    2    0    0  0.15309930126E+04 -0.89434109261E+03  0.91332395318E+03  0.19966215713E+04  0.92474110959E+02 0.  0.
         11    1    3    3    0    0  0.38841835862E+03 -0.20252839967E+03  0.26411530200E+03  0.51151096444E+03  0.00000000000E+00 0.  1.
        -11    1    3    3    0    0  0.11425746540E+04 -0.69181269294E+03  0.64920865118E+03  0.14851106069E+04  0.00000000000E+00 0. -1.
         22    1    1    2    0    0 -0.15309930126E+04  0.89434109261E+03 -0.22199605330E+04  0.28411283608E+04  0.00000000000E+00 0. -1.
<mgrwt>
<rscale>  0 0.46579529E+04</rscale>
<asrwt>0</asrwt>
<pdfrwt beam="1">  1        2 0.47264511E+00 0.46579529E+04</pdfrwt>
<pdfrwt beam="2">  1       -2 0.27162411E+00 0.46579529E+04</pdfrwt>
<totfact> 0.55517951E-02</totfact>
</mgrwt>
</event>
<event>
 6    1  0.1885829E-005  0.4480595E+04  0.7818608E-02  0.7914043E-01
          2   -1    0    0  501    0  0.00000000000E+00  0.00000000000E+00  0.13106201826E+04  0.13106201826E+04  0.00000000000E+00 0. -1.
         -2   -1    0    0    0  501 -0.00000000000E+00 -0.00000000000E+00 -0.38294333352E+04  0.38294333352E+04  0.00000000000E+00 0.  1.
         23    2    1    2    0    0  0.17971060815E+04 -0.85006358738E+03 -0.24424744162E+04  0.31505746983E+04  0.90781524438E+02 0.  0.
         13    1    3    3    0    0  0.12490606265E+04 -0.63200513567E+03 -0.17470974383E+04  0.22387345531E+04  0.00000000000E+00 0. -1.
        -13    1    3    3    0    0  0.54804545501E+03 -0.21805845172E+03 -0.69537697792E+03  0.91184014528E+03  0.00000000000E+00 0.  1.
         22    1    1    2    0    0 -0.17971060815E+04  0.85006358738E+03 -0.76338736326E+02  0.19894788195E+04  0.00000000000E+00 0. -1.
<mgrwt>
<rscale>  0 0.44805949E+04</rscale>
<asrwt>0</asrwt>
<pdfrwt beam="1">  1        2 0.20163387E+00 0.44805949E+04</pdfrwt>
<pdfrwt beam="2">  1       -2 0.58914359E+00 0.44805949E+04</pdfrwt>
<totfact> 0.69800239E-03</totfact>
</mgrwt>
</event>
<event>
 6    1  0.1885829E-005  0.1793619E+04  0.7818608E-02  0.8709700E-01
         -2   -1    0    0    0  501 -0.00000000000E+00  0.00000000000E+00  0.59556547094E+03  0.59556547094E+03  0.00000000000E+00 0.  1.
          2   -1    0    0  501    0  0.00000000000E+00 -0.00000000000E+00 -0.13504269239E+04  0.13504269239E+04  0.00000000000E+00 0. -1.
         23    2    1    2    0    0  0.59867941520E+03 -0.49390562038E+03 -0.86095101660E+03  0.11626567072E+04  0.90411071826E+02 0.  0.
         11    1    3    3    0    0  0.32299375725E+03 -0.31009317373E+03 -0.53819371388E+03  0.70009657711E+03  0.00000000000E+00 0. -1.
        -11    1    3    3    0    0  0.27568565794E+03 -0.18381244665E+03 -0.32275730272E+03  0.46256013014E+03  0.00000000000E+00 0.  1.
         22    1    1    2    0    0 -0.59867941520E+03  0.49390562038E+03  0.10608956359E+03  0.78333568764E+03  0.00000000000E+00 0.  1.
<mgrwt>
<rscale>  0 0.17936194E+04</rscale>
<asrwt>0</asrwt>
<pdfrwt beam="1">  1        2 0.20775799E+00 0.17936194E+04</pdfrwt>
<pdfrwt beam="2">  1       -2 0.91625457E-01 0.17936194E+04</pdfrwt>
<totfact> 0.14801111E+01</totfact>
</mgrwt>
</event>
<event>
 6    1  0.1885829E-005  0.1428708E+04  0.7818608E-02  0.8933297E-01
          1   -1    0    0  501    0  0.00000000000E+00  0.00000000000E+00  0.21475271151E+04  0.21475271151E+04  0.00000000000E+00 0. -1.
         -1   -1    0    0    0  501 -0.00000000000E+00 -0.00000000000E+00 -0.23762276052E+03  0.23762276052E+03  0.00000000000E+00 0.  1.
         23    2    1    2    0    0 -0.10086070798E+01 -0.64994237039E+03  0.47587203099E+03  0.81070559043E+03  0.91450873982E+02 0.  0.
         11    1    3    3    0    0  0.18573699890E+02 -0.48510228252E+03  0.39601979526E+03  0.62649891067E+03  0.00000000000E+00 0. -1.
        -11    1    3    3    0    0 -0.19582306970E+02 -0.16484008787E+03  0.79852235733E+02  0.18420667976E+03  0.00000000000E+00 0.  1.
         22    1    1    2    0    0  0.10086070798E+01  0.64994237039E+03  0.14340323236E+04  0.15744442852E+04  0.00000000000E+00 0. -1.
<mgrwt>
<rscale>  0 0.14287076E+04</rscale>
<asrwt>0</asrwt>
<pdfrwt beam="1">  1        1 0.33038877E+00 0.14287076E+04</pdfrwt>
<pdfrwt beam="2">  1       -1 0.36557349E-01 0.14287076E+04</pdfrwt>
<totfact> 0.16534305E+01</totfact>
</mgrwt>
</event>
<event>
 6    1  0.1885829E-005  0.2174161E+04  0.7818608E-02  0.8529260E-01
          2   -1    0    0  501    0  0.00000000000E+00  0.00000000000E+00  0.44537069358E+04  0.44537069358E+04  0.00000000000E+00 0.  1.
         -2   -1    0    0    0  501 -0.00000000000E+00 -0.00000000000E+00 -0.26533939626E+03  0.26533939626E+03  0.00000000000E+00 0. -1.
         23    2    1    2    0    0  0.71801023460E+03 -0.50840967954E+03  0.34768611271E+04  0.35875603736E+04  0.89482054128E+02 0.  0.
         11    1    3    3    0    0  0.19387671437E+03 -0.17767032517E+03  0.93999984238E+03  0.97609150621E+03  0.00000000000E+00 0.  1.
        -11    1    3    3    0    0  0.52413352023E+03 -0.33073935438E+03  0.25368612847E+04  0.26114688674E+04  0.00000000000E+00 0. -1.
         22    1    1    2    0    0 -0.71801023460E+03  0.50840967954E+03  0.71150641249E+03  0.11314859585E+04  0.00000000000E+00 0. -1.
<mgrwt>
<rscale>  0 0.21741609E+04</rscale>
<asrwt>0</asrwt>
<pdfrwt beam="1">  1        2 0.68518563E+00 0.21741609E+04</pdfrwt>
<pdfrwt beam="2">  1       -2 0.40821449E-01 0.21741609E+04</pdfrwt>
<totfact> 0.71880311E-01</totfact>
</mgrwt>
</event>
<event>
 6    1  0.2459518E-005  0.2666420E+04  0.7818608E-02  0.8345983E-01
         -2   -1    0    0    0  501 -0.00000000000E+00  0.00000000000E+00  0.11413311094E+04  0.11413311094E+04  0.00000000000E+00 0.  1.
          2   -1    0    0  501    0  0.00000000000E+00 -0.00000000000E+00 -0.15573471770E+04  0.15573471770E+04  0.00000000000E+00 0. -1.
         23    2    1    2    0    0 -0.12978246350E+04 -0.22646786898E+02  0.92117012638E+02  0.13047410973E+04  0.94879538684E+02 0.  0.
         11    1    3    3    0    0 -0.75368760326E+03 -0.54974260273E+02  0.32412683024E+02  0.75638466049E+03  0.00000000000E+00 0.  1.
        -11    1    3    3    0    0 -0.54413703169E+03  0.32327473375E+02  0.59704329614E+02  0.54835643679E+03  0.00000000000E+00 0. -1.
         22    1    1    2    0    0  0.12978246350E+04  0.22646786898E+02 -0.50813308027E+03  0.13939371892E+04  0.00000000000E+00 0. -1.
<mgrwt>
<rscale>  0 0.26664199E+04</rscale>
<asrwt>0</asrwt>
<pdfrwt beam="1">  1        2 0.23959187E+00 0.26664199E+04</pdfrwt>
<pdfrwt beam="2">  1       -2 0.17558940E+00 0.26664199E+04</pdfrwt>
<totfact> 0.20177441E+00</totfact>
</mgrwt>
</event>
<event>
 6    1  0.1885829E-005  0.3081694E+04  0.7818608E-02  0.8220780E-01
          1   -1    0    0  501    0  0.00000000000E+00  0.00000000000E+00  0.19461487825E+04  0.19461487825E+04  0.00000000000E+00 0. -1.
         -1   -1    0    0    0  501 -0.00000000000E+00 -0.00000000000E+00 -0.12199527592E+04  0.12199527592E+04  0.00000000000E+00 0.  1.
         23    2    1    2    0    0  0.50159664675E+03  0.10783921653E+03  0.18547063478E+04  0.19264386661E+04  0.89452808098E+02 0.  0.
         11    1    3    3    0    0  0.24452169801E+03  0.15891089318E+02  0.77931253562E+03  0.81692803581E+03  0.00000000000E+00 0. -1.
        -11    1    3    3    0    0  0.25707494873E+03  0.91948127209E+02  0.10753938122E+04  0.11095106302E+04  0.00000000000E+00 0.  1.
         22    1    1    2    0    0 -0.50159664675E+03 -0.10783921653E+03 -0.11285103245E+04  0.12396628756E+04  0.00000000000E+00 0.  1.
<mgrwt>
<rscale>  0 0.30816941E+04</rscale>
<asrwt>0</asrwt>
<pdfrwt beam="1">  1        1 0.29940750E+00 0.30816941E+04</pdfrwt>
<pdfrwt beam="2">  1       -1 0.18768504E+00 0.30816941E+04</pdfrwt>
<totfact> 0.50263141E-01</totfact>
</mgrwt>
</event>
<event>
 6    1  0.1885829E-005  0.2419141E+04  0.7818608E-02  0.8432372E-01
         -2   -1    0    0    0  501 -0.00000000000E+00  0.00000000000E+00  0.60016841943E+03  0.60016841943E+03  0.00000000000E+00 0.  1.
          2   -1    0    0  501    0  0.00000000000E+00 -0.00000000000E+00 -0.24377498893E+04  0.24377498893E+04  0.00000000000E+00 0. -1.
         23    2    1    2    0    0  0.75532091765E+02 -0.11979673402E+04 -0.75169651378E+03  0.14192840131E+04  0.92133684523E+02 0.  0.
         11    1    3    3    0    0  0.88284867629E+02 -0.11497341289E+04 -0.73080727766E+03  0.13651967119E+04  0.00000000000E+00 0.  1.
        -11    1    3    3    0    0 -0.12752775863E+02 -0.48233211332E+02 -0.20889236123E+02  0.54087301222E+02  0.00000000000E+00 0. -1.
         22    1    1    2    0    0 -0.75532091765E+02  0.11979673402E+04 -0.10858849561E+04  0.16186342956E+04  0.00000000000E+00 0. -1.
<mgrwt>
<rscale>  0 0.24191408E+04</rscale>
<asrwt>0</asrwt>
<pdfrwt beam="1">  1        2 0.37503845E+00 0.24191408E+04</pdfrwt>
<pdfrwt beam="2">  1       -2 0.92333601E-01 0.24191408E+04</pdfrwt>
<totfact> 0.33811825E+00</totfact>
</mgrwt>
</event>
<event>
 6    1  0.1885829E-005  0.6579168E+03  0.7818608E-02  0.9792036E-01
          2   -1    0    0  501    0  0.00000000000E+00  0.00000000000E+00  0.42680514195E+03  0.42680514195E+03  0.00000000000E+00 0.  1.
         -2   -1    0    0    0  501 -0.00000000000E+00 -0.00000000000E+00 -0.25354337747E+03  0.25354337747E+03  0.00000000000E+00 0. -1.
         23    2    1    2    0    0  0.59556637762E+02 -0.31674890329E+03  0.72396164212E+02  0.34263454257E+03  0.90996507251E+02 0.  0.
         13    1    3    3    0    0  0.15961676672E+02 -0.12845187616E+02  0.24448577681E+02  0.31898384249E+02  0.00000000000E+00 0.  1.
        -13    1    3    3    0    0  0.43594961090E+02 -0.30390371568E+03  0.47947586531E+02  0.31073615832E+03  0.00000000000E+00 0. -1.
         22    1    1    2    0    0 -0.59556637762E+02  0.31674890329E+03  0.10086560027E+03  0.33771397684E+03  0.00000000000E+00 0.  1.
<mgrwt>
<rscale>  0 0.65791676E+03</rscale>
<asrwt>0</asrwt>
<pdfrwt beam="1">  1        2 0.65662329E-01 0.65791676E+03</pdfrwt>
<pdfrwt beam="2">  1       -2 0.39006674E-01 0.65791676E+03</pdfrwt>
<totfact> 0.46263569E+02</totfact>
</mgrwt>
</event>
<event>
 6    1  0.1885829E-005  0.3289159E+04  0.7818608E-02  0.8165659E-01
         -2   -1    0    0    0  501 -0.00000000000E+00  0.00000000000E+00  0.82917233103E+03  0.82917233103E+03  0.00000000000E+00 0.  1.
          2   -1    0    0  501    0  0.00000000000E+00 -0.00000000000E+00 -0.32618567731E+04  0.32618567731E+04  0.00000000000E+00 0. -1.
         23    2    1    2    0    0  0.15177944209E+04 -0.51115540225E+03 -0.16750614938E+04  0.23193146008E+04  0.91703108906E+02 0.  0.
         11    1    3    3    0    0  0.14301468218E+04 -0.48382035640E+03 -0.15457825666E+04  0.21607512148E+04  0.00000000000E+00 0. -1.
        -11    1    3    3    0    0  0.87647599133E+02 -0.27335045855E+02 -0.12927892720E+03  0.15856338601E+03  0.00000000000E+00 0.  1.
         22    1    1    2    0    0 -0.15177944209E+04  0.51115540225E+03 -0.75762294829E+03  0.17717145033E+04  0.00000000000E+00 0.  1.
<mgrwt>
<rscale>  0 0.32891588E+04</rscale>
<asrwt>0</asrwt>
<pdfrwt beam="1">  1        2 0.50182412E+00 0.32891588E+04</pdfrwt>
<pdfrwt beam="2">  1       -2 0.12756497E+00 0.32891588E+04</pdfrwt>
<totfact> 0.44921544E-01</totfact>
</mgrwt>
</event>
<event>
 6    1  0.1885829E-005  0.3182831E+04  0.7818608E-02  0.8193366E-01
         -2   -1    0    0    0  501 -0.00000000000E+00  0.00000000000E+00  0.83617578981E+03  0.83617578981E+03  0.00000000000E+00 0.  1.
          2   -1    0    0  501    0  0.00000000000E+00 -0.00000000000E+00 -0.30287931644E+04  0.30287931644E+04  0.00000000000E+00 0. -1.
         23    2    1    2    0    0  0.14844704536E+04  0.50609311218E+03 -0.14183925309E+04  0.21159101003E+04  0.73860780954E+02 0.  0.
         13    1    3    3    0    0  0.10601107077E+04  0.39586708936E+03 -0.10143874033E+04  0.15197128903E+04  0.00000000000E+00 0.  1.
        -13    1    3    3    0    0  0.42435974591E+03  0.11022602283E+03 -0.40400512761E+03  0.59619720998E+03  0.00000000000E+00 0. -1.
         22    1    1    2    0    0 -0.14844704536E+04 -0.50609311218E+03 -0.77422484376E+03  0.17490588540E+04  0.00000000000E+00 0.  1.
<mgrwt>
<rscale>  0 0.31828311E+04</rscale>
<asrwt>0</asrwt>
<pdfrwt beam="1">  1        2 0.46596819E+00 0.31828311E+04</pdfrwt>
<pdfrwt beam="2">  1       -2 0.12864243E+00 0.31828311E+04</pdfrwt>
<totfact> 0.62761426E-01</totfact>
</mgrwt>
</event>
<event>
 6    1  0.1885829E-005  0.2126865E+04  0.7818608E-02  0.8549501E-01
         -2   -1    0    0    0  501 -0.00000000000E+00  0.00000000000E+00  0.51070019016E+03  0.51070019016E+03  0.00000000000E+00 0.  1.
          2   -1    0    0  501    0  0.00000000000E+00 -0.00000000000E+00 -0.22143883504E+04  0.22143883504E+04  0.00000000000E+00 0. -1.
         23    2    1    2    0    0  0.29768505795E+03 -0.88121419810E+03 -0.15087794065E+04  0.17747495069E+04  0.90364030797E+02 0.  0.
         11    1    3    3    0    0  0.16251351971E+03 -0.60450295007E+03 -0.10405235088E+04  0.12142996471E+04  0.00000000000E+00 0. -1.
        -11    1    3    3    0    0  0.13517153824E+03 -0.27671124803E+03 -0.46825589768E+03  0.56044985971E+03  0.00000000000E+00 0.  1.
         22    1    1    2    0    0 -0.29768505795E+03  0.88121419810E+03 -0.19490875375E+03  0.95033903368E+03  0.00000000000E+00 0.  1.
<mgrwt>
<rscale>  0 0.21268649E+04</rscale>
<asrwt>0</asrwt>
<pdfrwt beam="1">  1        2 0.34067514E+00 0.21268649E+04</pdfrwt>
<pdfrwt beam="2">  1       -2 0.78569259E-01 0.21268649E+04</pdfrwt>
<totfact> 0.67083015E+00</totfact>
</mgrwt>
</event>
<event>
 6    1  0.1885829E-005  0.2524957E+04  0.7818608E-02  0.8394148E-01
         -2   -1    0    0    0  501 -0.00000000000E+00  0.00000000000E+00  0.45636769208E+03  0.45636769208E+03  0.00000000000E+00 0.  1.
          2   -1    0    0  501    0  0.00000000000E+00 -0.00000000000E+00 -0.34924721137E+04  0.34924721137E+04  0.00000000000E+00 0. -1.
         23    2    1    2    0    0 -0.56475534740E+03  0.10302948446E+03  0.23630816061E+03  0.62645394838E+03  0.83900688811E+02 0.  0.
         11    1    3    3    0    0 -0.36934337854E+03  0.96719502771E+02  0.12646608461E+03  0.40219754355E+03  0.00000000000E+00 0. -1.
        -11    1    3    3    0    0 -0.19541196887E+03  0.63099816874E+01  0.10984207600E+03  0.22425640483E+03  0.00000000000E+00 0.  1.
         22    1    1    2    0    0  0.56475534740E+03 -0.10302948446E+03 -0.32724125823E+04  0.33223858574E+04  0.00000000000E+00 0.  1.
<mgrwt>
<rscale>  0 0.25249566E+04</rscale>
<asrwt>0</asrwt>
<pdfrwt beam="1">  1        2 0.53730338E+00 0.25249566E+04</pdfrwt>
<pdfrwt beam="2">  1       -2 0.70210417E-01 0.25249566E+04</pdfrwt>
<totfact> 0.13541347E+00</totfact>
</mgrwt>
</event>
<event>
 6    1  0.1885829E-005  0.1449200E+04  0.7818608E-02  0.8918955E-01
          2   -1    0    0  501    0  0.00000000000E+00  0.00000000000E+00  0.91767050267E+03  0.91767050267E+03  0.00000000000E+00 0. -1.
         -2   -1    0    0    0  501 -0.00000000000E+00 -0.00000000000E+00 -0.57215005447E+03  0.57215005447E+03  0.00000000000E+00 0.  1.
         23    2    1    2    0    0 -0.24870422982E+03 -0.16292004175E+03 -0.50292949655E+03  0.59078549515E+03  0.87707974808E+02 0.  0.
         13    1    3    3    0    0 -0.76581792727E+02 -0.93734689298E+02 -0.24264328284E+03  0.27115811930E+03  0.00000000000E+00 0.  1.
        -13    1    3    3    0    0 -0.17212243709E+03 -0.69185352453E+02 -0.26028621371E+03  0.31962737585E+03  0.00000000000E+00 0. -1.
         22    1    1    2    0    0  0.24870422982E+03  0.16292004175E+03  0.84844994475E+03  0.89903506199E+03  0.00000000000E+00 0. -1.
<mgrwt>
<rscale>  0 0.14492001E+04</rscale>
<asrwt>0</asrwt>
<pdfrwt beam="1">  1        2 0.14118008E+00 0.14492001E+04</pdfrwt>
<pdfrwt beam="2">  1       -2 0.88023085E-01 0.14492001E+04</pdfrwt>
<totfact> 0.30783024E+01</totfact>
</mgrwt>
</event>
<event>
 6    1  0.1885829E-005  0.2890920E+04  0.7818608E-02  0.8275584E-01
         -2   -1    0    0    0  501 -0.00000000000E+00  0.00000000000E+00  0.57069571761E+03  0.57069571761E+03  0.00000000000E+00 0. -1.
          2   -1    0    0  501    0  0.00000000000E+00 -0.00000000000E+00 -0.36610652331E+04  0.36610652331E+04  0.00000000000E+00 0.  1.
         23    2    1    2    0    0 -0.34118141973E+03 -0.12503630368E+04 -0.24788594425E+04  0.27986674247E+04  0.89346143324E+02 0.  0.
         13    1    3    3    0    0 -0.31591331640E+03 -0.10875844505E+04 -0.21111235568E+04  0.23957219856E+04  0.00000000000E+00 0.  1.
        -13    1    3    3    0    0 -0.25268103335E+02 -0.16277858629E+03 -0.36773588570E+03  0.40294543903E+03  0.00000000000E+00 0. -1.
         22    1    1    2    0    0  0.34118141973E+03  0.12503630368E+04 -0.61151007297E+03  0.14330935260E+04  0.00000000000E+00 0.  1.
<mgrwt>
<rscale>  0 0.28909198E+04</rscale>
<asrwt>0</asrwt>
<pdfrwt beam="1">  1        2 0.56324080E+00 0.28909198E+04</pdfrwt>
<pdfrwt beam="2">  1       -2 0.87799342E-01 0.28909198E+04</pdfrwt>
<totfact> 0.60226259E-01</totfact>
</mgrwt>
</event>
<event>
 6    1  0.1885829E-005  0.2936544E+04  0.7818608E-02  0.8262087E-01
          2   -1    0    0  501    0  0.00000000000E+00  0.00000000000E+00  0.39533777809E+04  0.39533777809E+04  0.00000000000E+00 0. -1.
         -2   -1    0    0    0  501 -0.00000000000E+00 -0.00000000000E+00 -0.54531143179E+03  0.54531143179E+03  0.00000000000E+00 0.  1.
         23    2    1    2    0    0 -0.93832134630E+03 -0.10694496636E+04  0.22528214185E+04  0.26659970995E+04  0.90369571820E+02 0.  0.
         11    1    3    3    0    0 -0.28250988273E+03 -0.30382567042E+03  0.73204171386E+03  0.84143148425E+03  0.00000000000E+00 0. -1.
        -11    1    3    3    0    0 -0.65581146357E+03 -0.76562399315E+03  0.15207797046E+04  0.18245656153E+04  0.00000000000E+00 0.  1.
         22    1    1    2    0    0  0.93832134630E+03  0.10694496636E+04  0.11552449307E+04  0.18326921132E+04  0.00000000000E+00 0.  1.
<mgrwt>
<rscale>  0 0.29365436E+04</rscale>
<asrwt>0</asrwt>
<pdfrwt beam="1">  1        2 0.60821195E+00 0.29365436E+04</pdfrwt>
<pdfrwt beam="2">  1       -2 0.83894069E-01 0.29365436E+04</pdfrwt>
<totfact> 0.39829638E-01</totfact>
</mgrwt>
</event>
<event>
 6    1  0.1885829E-005  0.5777953E+03  0.7818608E-02  0.9952576E-01
         -2   -1    0    0    0  501 -0.00000000000E+00  0.00000000000E+00  0.40844085327E+03  0.40844085327E+03  0.00000000000E+00 0.  1.
          2   -1    0    0  501    0  0.00000000000E+00 -0.00000000000E+00 -0.20434256098E+03  0.20434256098E+03  0.00000000000E+00 0. -1.
         23    2    1    2    0    0  0.21754537061E+03  0.16007268434E+03  0.18907958326E+03  0.34227497785E+03  0.91933775685E+02 0.  0.
         13    1    3    3    0    0  0.29243470146E+02  0.64890081460E+02  0.70800064212E+02  0.10039199326E+03  0.00000000000E+00 0.  1.
        -13    1    3    3    0    0  0.18830190046E+03  0.95182602879E+02  0.11827951905E+03  0.24188298459E+03  0.00000000000E+00 0. -1.
         22    1    1    2    0    0 -0.21754537061E+03 -0.16007268434E+03  0.15018709026E+02  0.27050843640E+03  0.00000000000E+00 0. -1.
<mgrwt>
<rscale>  0 0.57779529E+03</rscale>
<asrwt>0</asrwt>
<pdfrwt beam="1">  1        2 0.31437317E-01 0.57779529E+03</pdfrwt>
<pdfrwt beam="2">  1       -2 0.62837054E-01 0.57779529E+03</pdfrwt>
<totfact> 0.40008793E+02</totfact>
</mgrwt>
</event>
<event>
 6    1  0.1885829E-005  0.2837069E+04  0.7818608E-02  0.8291852E-01
         -2   -1    0    0    0  501 -0.00000000000E+00  0.00000000000E+00  0.26284231606E+04  0.26284231606E+04  0.00000000000E+00 0.  1.
          2   -1    0    0  501    0  0.00000000000E+00 -0.00000000000E+00 -0.76556917289E+03  0.76556917289E+03  0.00000000000E+00 0. -1.
         23    2    1    2    0    0 -0.67932049166E+03  0.66735733236E+02  0.24180120059E+04  0.25141455210E+04  0.90640230516E+02 0.  0.
         11    1    3    3    0    0 -0.54340352252E+03  0.25909952374E+02  0.20016699288E+04  0.20742808917E+04  0.00000000000E+00 0. -1.
        -11    1    3    3    0    0 -0.13591696914E+03  0.40825780862E+02  0.41634207709E+03  0.43986462922E+03  0.00000000000E+00 0.  1.
         22    1    1    2    0    0  0.67932049166E+03 -0.66735733236E+02 -0.55515801815E+03  0.87984681257E+03  0.00000000000E+00 0. -1.
<mgrwt>
<rscale>  0 0.28370687E+04</rscale>
<asrwt>0</asrwt>
<pdfrwt beam="1">  1        2 0.11777987E+00 0.28370687E+04</pdfrwt>
<pdfrwt beam="2">  1       -2 0.40437279E+00 0.28370687E+04</pdfrwt>
<totfact> 0.21995375E-01</totfact>
</mgrwt>
</event>
<event>
 6    1  0.1885829E-005  0.8840161E+03  0.7818608E-02  0.9445786E-01
         -2   -1    0    0    0  501 -0.00000000000E+00  0.00000000000E+00  0.57130237401E+03  0.57130237401E+03  0.00000000000E+00 0.  1.
          2   -1    0    0  501    0  0.00000000000E+00 -0.00000000000E+00 -0.34197494862E+03  0.34197494862E+03  0.00000000000E+00 0. -1.
         23    2    1    2    0    0 -0.27506446933E+03  0.32665322366E+03  0.21144688667E+03  0.48586358340E+03  0.94820066280E+02 0.  0.
         13    1    3    3    0    0 -0.17133150382E+03  0.13231608618E+03  0.91323444622E+02  0.23495106384E+03  0.00000000000E+00 0. -1.
        -13    1    3    3    0    0 -0.10373296552E+03  0.19433713748E+03  0.12012344205E+03  0.25091251956E+03  0.00000000000E+00 0.  1.
         22    1    1    2    0    0  0.27506446933E+03 -0.32665322366E+03  0.17880538723E+02  0.42741373923E+03  0.00000000000E+00 0.  1.
<mgrwt>
<rscale>  0 0.88401606E+03</rscale>
<asrwt>0</asrwt>
<pdfrwt beam="1">  1        2 0.52611531E-01 0.88401606E+03</pdfrwt>
<pdfrwt beam="2">  1       -2 0.87892673E-01 0.88401606E+03</pdfrwt>
<totfact> 0.10632128E+02</totfact>
</mgrwt>
</event>
<event>
 6    1  0.1885829E-005  0.1030727E+04  0.7818608E-02  0.9275471E-01
         -2   -1    0    0    0  501 -0.00000000000E+00  0.00000000000E+00  0.15375594331E+04  0.15375594331E+04  0.00000000000E+00 0.  1.
          2   -1    0    0  501    0  0.00000000000E+00 -0.00000000000E+00 -0.17274110580E+03  0.17274110580E+03  0.00000000000E+00 0. -1.
         23    2    1    2    0    0  0.30910615918E+03 -0.31191415810E+03  0.25411104926E+03  0.51593555400E+03  0.93701712135E+02 0.  0.
         11    1    3    3    0    0  0.66030203008E+02 -0.12503844572E+03  0.96474398440E+02  0.17117800727E+03  0.00000000000E+00 0. -1.
        -11    1    3    3    0    0  0.24307595617E+03 -0.18687571238E+03  0.15763665082E+03  0.34475754673E+03  0.00000000000E+00 0.  1.
         22    1    1    2    0    0 -0.30910615918E+03  0.31191415810E+03  0.11107072780E+04  0.11943649849E+04  0.00000000000E+00 0.  1.
<mgrwt>
<rscale>  0 0.10307273E+04</rscale>
<asrwt>0</asrwt>
<pdfrwt beam="1">  1        2 0.26575556E-01 0.10307273E+04</pdfrwt>
<pdfrwt beam="2">  1       -2 0.23654760E+00 0.10307273E+04</pdfrwt>
<totfact> 0.15928924E+01</totfact>
</mgrwt>
</event>
<event>
 6    1  0.1885829E-005  0.3422023E+04  0.7818608E-02  0.8132522E-01
         -2   -1    0    0    0  501 -0.00000000000E+00  0.00000000000E+00  0.27749749635E+04  0.27749749635E+04  0.00000000000E+00 0.  1.
          2   -1    0    0  501    0  0.00000000000E+00 -0.00000000000E+00 -0.10549860246E+04  0.10549860246E+04  0.00000000000E+00 0. -1.
         23    2    1    2    0    0 -0.14169307577E+03 -0.92250914685E+03  0.24638069009E+04  0.26364932616E+04  0.98245711296E+02 0.  0.
         13    1    3    3    0    0 -0.18588621927E+02 -0.41021853141E+03  0.10200148222E+04  0.10995703788E+04  0.00000000000E+00 0. -1.
        -13    1    3    3    0    0 -0.12310445384E+03 -0.51229061544E+03  0.14437920786E+04  0.15369228828E+04  0.00000000000E+00 0.  1.
         22    1    1    2    0    0  0.14169307577E+03  0.92250914685E+03 -0.74381796201E+03  0.11934677266E+04  0.00000000000E+00 0. -1.
<mgrwt>
<rscale>  0 0.34220227E+04</rscale>
<asrwt>0</asrwt>
<pdfrwt beam="1">  1        2 0.16230554E+00 0.34220227E+04</pdfrwt>
<pdfrwt beam="2">  1       -2 0.42691922E+00 0.34220227E+04</pdfrwt>
<totfact> 0.94735277E-02</totfact>
</mgrwt>
</event>
<event>
 6    1  0.1885829E-005  0.2067605E+04  0.7818608E-02  0.8575650E-01
         -2   -1    0    0    0  501 -0.00000000000E+00  0.00000000000E+00  0.85129116601E+03  0.85129116601E+03  0.00000000000E+00 0.  1.
          2   -1    0    0  501    0  0.00000000000E+00 -0.00000000000E+00 -0.12554428059E+04  0.12554428059E+04  0.00000000000E+00 0. -1.
         23    2    1    2    0    0  0.41216334677E+03  0.19421974515E+02  0.76121999729E+03  0.87047069483E+03  0.89484684580E+02 0.  0.
         13    1    3    3    0    0  0.88860942560E+02 -0.57938935499E+01  0.24674323302E+03  0.26232052790E+03  0.00000000000E+00 0. -1.
        -13    1    3    3    0    0  0.32330240421E+03  0.25215868065E+02  0.51447676427E+03  0.60815016694E+03  0.00000000000E+00 0.  1.
         22    1    1    2    0    0 -0.41216334677E+03 -0.19421974515E+02 -0.11653716372E+04  0.12362632771E+04  0.00000000000E+00 0. -1.
<mgrwt>
<rscale>  0 0.20676048E+04</rscale>
<asrwt>0</asrwt>
<pdfrwt beam="1">  1        2 0.19314505E+00 0.20676048E+04</pdfrwt>
<pdfrwt beam="2">  1       -2 0.13096787E+00 0.20676048E+04</pdfrwt>
<totfact> 0.69152783E+00</totfact>
</mgrwt>
</event>
<event>
 6    1  0.1885829E-005  0.1204639E+04  0.7818608E-02  0.9108806E-01
          2   -1    0    0  501    0  0.00000000000E+00  0.00000000000E+00  0.14813281517E+04  0.14813281517E+04  0.00000000000E+00 0. -1.
         -2   -1    0    0    0  501 -0.00000000000E+00 -0.00000000000E+00 -0.24490775871E+03  0.24490775871E+03  0.00000000000E+00 0.  1.
         23    2    1    2    0    0  0.51108885632E+02 -0.55662836327E+03  0.31507205595E+03  0.64858568370E+03  0.94581899271E+02 0.  0.
         11    1    3    3    0    0 -0.12233846860E+02 -0.23363315237E+03  0.94238797464E+02  0.25222027643E+03  0.00000000000E+00 0.  1.
        -11    1    3    3    0    0  0.63342732492E+02 -0.32299521089E+03  0.22083325849E+03  0.39636540726E+03  0.00000000000E+00 0. -1.
         22    1    1    2    0    0 -0.51108885632E+02  0.55662836327E+03  0.92134833701E+03  0.10776502267E+04  0.00000000000E+00 0. -1.
<mgrwt>
<rscale>  0 0.12046390E+04</rscale>
<asrwt>0</asrwt>
<pdfrwt beam="1">  1        2 0.22789663E+00 0.12046390E+04</pdfrwt>
<pdfrwt beam="2">  1       -2 0.37678118E-01 0.12046390E+04</pdfrwt>
<totfact> 0.85217674E+01</totfact>
</mgrwt>
</event>
<event>
 6    1  0.1885829E-005  0.2603916E+04  0.7818608E-02  0.8366872E-01
          2   -1    0    0  501    0  0.00000000000E+00  0.00000000000E+00  0.29231105402E+04  0.29231105402E+04  0.00000000000E+00 0. -1.
         -2   -1    0    0    0  501 -0.00000000000E+00 -0.00000000000E+00 -0.57989391656E+03  0.57989391656E+03  0.00000000000E+00 0.  1.
         23    2    1    2    0    0 -0.10982756679E+03 -0.83317552270E+03  0.25079915646E+04  0.26466200061E+04  0.91281010149E+02 0.  0.
         13    1    3    3    0    0 -0.81525006856E+02 -0.53020010363E+03  0.14639187570E+04  0.15591076306E+04  0.00000000000E+00 0. -1.
        -13    1    3    3    0    0 -0.28302559933E+02 -0.30297541907E+03  0.10440728076E+04  0.10875123755E+04  0.00000000000E+00 0.  1.
         22    1    1    2    0    0  0.10982756679E+03  0.83317552270E+03 -0.16477494097E+03  0.85638445060E+03  0.00000000000E+00 0.  1.
<mgrwt>
<rscale>  0 0.26039155E+04</rscale>
<asrwt>0</asrwt>
<pdfrwt beam="1">  1        2 0.44970930E+00 0.26039155E+04</pdfrwt>
<pdfrwt beam="2">  1       -2 0.89214451E-01 0.26039155E+04</pdfrwt>
<totfact> 0.18536740E+00</totfact>
</mgrwt>
</event>
<event>
 6    1  0.1885829E-005  0.3651874E+04  0.7818608E-02  0.8078712E-01
          2   -1    0    0  501    0  0.00000000000E+00  0.00000000000E+00  0.12662871822E+04  0.12662871822E+04  0.00000000000E+00 0.  1.
         -2   -1    0    0    0  501 -0.00000000000E+00 -0.00000000000E+00 -0.26329305115E+04  0.26329305115E+04  0.00000000000E+00 0. -1.
         23    2    1    2    0    0  0.15053307028E+04  0.49560450662E+03 -0.16495088640E+04  0.22893551957E+04  0.92862088417E+02 0.  0.
         13    1    3    3    0    0  0.65845406690E+03  0.18221424219E+03 -0.66423865554E+03  0.95287815580E+03  0.00000000000E+00 0. -1.
        -13    1    3    3    0    0  0.84687663593E+03  0.31339026443E+03 -0.98527020849E+03  0.13364770399E+04  0.00000000000E+00 0.  1.
         22    1    1    2    0    0 -0.15053307028E+04 -0.49560450662E+03  0.28286553469E+03  0.16098624980E+04  0.00000000000E+00 0.  1.
<mgrwt>
<rscale>  0 0.36518741E+04</rscale>
<asrwt>0</asrwt>
<pdfrwt beam="1">  1        2 0.19481341E+00 0.36518741E+04</pdfrwt>
<pdfrwt beam="2">  1       -2 0.40506623E+00 0.36518741E+04</pdfrwt>
<totfact> 0.96472686E-02</totfact>
</mgrwt>
</event>
<event>
 6    1  0.2075015E-005  0.1212734E+04  0.7818608E-02  0.9101783E-01
         -1   -1    0    0    0  501 -0.00000000000E+00  0.00000000000E+00  0.56411725083E+03  0.56411725083E+03  0.00000000000E+00 0.  1.
          1   -1    0    0  501    0  0.00000000000E+00 -0.00000000000E+00 -0.65178092457E+03  0.65178092457E+03  0.00000000000E+00 0. -1.
         23    2    1    2    0    0 -0.50147394359E+03 -0.22444949346E+03 -0.29272400431E+03  0.62946537414E+03  0.93196691663E+02 0.  0.
         11    1    3    3    0    0 -0.31284982797E+03 -0.12662223917E+03 -0.12937411731E+03  0.36144967636E+03  0.00000000000E+00 0.  1.
        -11    1    3    3    0    0 -0.18862411562E+03 -0.97827254286E+02 -0.16334988700E+03  0.26801569778E+03  0.00000000000E+00 0. -1.
         22    1    1    2    0    0  0.50147394359E+03  0.22444949346E+03  0.20506033056E+03  0.58643280125E+03  0.00000000000E+00 0.  1.
<mgrwt>
<rscale>  0 0.12127339E+04</rscale>
<asrwt>0</asrwt>
<pdfrwt beam="1">  1        1 0.10027399E+00 0.12127339E+04</pdfrwt>
<pdfrwt beam="2">  1       -1 0.86787269E-01 0.12127339E+04</pdfrwt>
<totfact> 0.39265602E+01</totfact>
</mgrwt>
</event>
<event>
 6    1  0.1885829E-005  0.2325096E+04  0.7818608E-02  0.8468092E-01
          2   -1    0    0  501    0  0.00000000000E+00  0.00000000000E+00  0.20405351477E+04  0.20405351477E+04  0.00000000000E+00 0. -1.
         -2   -1    0    0    0  501 -0.00000000000E+00 -0.00000000000E+00 -0.66233474117E+03  0.66233474117E+03  0.00000000000E+00 0.  1.
         23    2    1    2    0    0  0.66344914500E+03 -0.26313761713E+03 -0.37400697383E+03  0.81087705662E+03  0.90742553027E+02 0.  0.
         11    1    3    3    0    0  0.30538239627E+03 -0.16974084216E+03 -0.18588784515E+03  0.39575832578E+03  0.00000000000E+00 0. -1.
        -11    1    3    3    0    0  0.35806674872E+03 -0.93396774972E+02 -0.18811912868E+03  0.41511873084E+03  0.00000000000E+00 0.  1.
         22    1    1    2    0    0 -0.66344914500E+03  0.26313761713E+03  0.17522073804E+04  0.18919928323E+04  0.00000000000E+00 0. -1.
<mgrwt>
<rscale>  0 0.23250955E+04</rscale>
<asrwt>0</asrwt>
<pdfrwt beam="1">  1        2 0.31392848E+00 0.23250955E+04</pdfrwt>
<pdfrwt beam="2">  1       -2 0.10189765E+00 0.23250955E+04</pdfrwt>
<totfact> 0.45322248E+00</totfact>
</mgrwt>
</event>
<event>
 6    1  0.1885829E-005  0.1030644E+04  0.7818608E-02  0.9275559E-01
         -1   -1    0    0    0  501 -0.00000000000E+00  0.00000000000E+00  0.83008267044E+03  0.83008267044E+03  0.00000000000E+00 0.  1.
          1   -1    0    0  501    0  0.00000000000E+00 -0.00000000000E+00 -0.31991604001E+03  0.31991604001E+03  0.00000000000E+00 0. -1.
         23    2    1    2    0    0  0.85899269832E+02  0.27063057745E+03  0.73106538364E+03  0.79025456084E+03  0.97088010474E+02 0.  0.
         11    1    3    3    0    0  0.55187878227E+02  0.92607132695E+02  0.38585710109E+03  0.40063385452E+03  0.00000000000E+00 0. -1.
        -11    1    3    3    0    0  0.30711391605E+02  0.17802344475E+03  0.34520828255E+03  0.38962070632E+03  0.00000000000E+00 0.  1.
         22    1    1    2    0    0 -0.85899269832E+02 -0.27063057745E+03 -0.22089875320E+03  0.35974414960E+03  0.00000000000E+00 0. -1.
<mgrwt>
<rscale>  0 0.10306440E+04</rscale>
<asrwt>0</asrwt>
<pdfrwt beam="1">  1        1 0.49217853E-01 0.10306440E+04</pdfrwt>
<pdfrwt beam="2">  1       -1 0.12770503E+00 0.10306440E+04</pdfrwt>
<totfact> 0.42801599E+01</totfact>
</mgrwt>
</event>
<event>
 6    1  0.1885829E-005  0.1120533E+04  0.7818608E-02  0.9185407E-01
          2   -1    0    0  501    0  0.00000000000E+00  0.00000000000E+00  0.12582614519E+04  0.12582614519E+04  0.00000000000E+00 0. -1.
         -2   -1    0    0    0  501 -0.00000000000E+00 -0.00000000000E+00 -0.24947003033E+03  0.24947003033E+03  0.00000000000E+00 0.  1.
         23    2    1    2    0    0 -0.34140347421E+03 -0.20852126471E+03 -0.42842663818E+01  0.41853003183E+03  0.12292917704E+03 0.  0.
         13    1    3    3    0    0 -0.26811306838E+03 -0.97229967220E+02 -0.60271367597E+01  0.28526235352E+03  0.00000000000E+00 0.  1.
        -13    1    3    3    0    0 -0.73290405835E+02 -0.11129129749E+03  0.17428703778E+01  0.13326767831E+03  0.00000000000E+00 0. -1.
         22    1    1    2    0    0  0.34140347421E+03  0.20852126471E+03  0.10130756880E+04  0.10892014504E+04  0.00000000000E+00 0.  1.
<mgrwt>
<rscale>  0 0.11205329E+04</rscale>
<asrwt>0</asrwt>
<pdfrwt beam="1">  1        2 0.19357868E+00 0.11205329E+04</pdfrwt>
<pdfrwt beam="2">  1       -2 0.38380005E-01 0.11205329E+04</pdfrwt>
<totfact> 0.11111386E+02</totfact>
</mgrwt>
</event>
<event>
 6    1  0.3598532E-005  0.2829420E+04  0.7818608E-02  0.8294192E-01
          2   -1    0    0  501    0  0.00000000000E+00  0.00000000000E+00  0.12935656976E+04  0.12935656976E+04  0.00000000000E+00 0. -1.
         -2   -1    0    0    0  501 -0.00000000000E+00 -0.00000000000E+00 -0.15471993612E+04  0.15471993612E+04  0.00000000000E+00 0.  1.
         23    2    1    2    0    0  0.12321804346E+04  0.69123141875E+03 -0.91478182684E+02  0.14186666453E+04  0.90428395749E+02 0.  0.
         13    1    3    3    0    0  0.47541013983E+03  0.29692035508E+03 -0.71888689454E+02  0.56510572638E+03  0.00000000000E+00 0. -1.
        -13    1    3    3    0    0  0.75677029477E+03  0.39431106367E+03 -0.19589493229E+02  0.85356091887E+03  0.00000000000E+00 0.  1.
         22    1    1    2    0    0 -0.12321804346E+04 -0.69123141875E+03 -0.16215548091E+03  0.14220984135E+04  0.00000000000E+00 0.  1.
<mgrwt>
<rscale>  0 0.28294197E+04</rscale>
<asrwt>0</asrwt>
<pdfrwt beam="1">  1        2 0.19901011E+00 0.28294197E+04</pdfrwt>
<pdfrwt beam="2">  1       -2 0.23803067E+00 0.28294197E+04</pdfrwt>
<totfact> 0.11028433E+00</totfact>
</mgrwt>
</event>
<event>
 6    1  0.1885829E-005  0.3853398E+04  0.7818608E-02  0.8034792E-01
          2   -1    0    0  501    0  0.00000000000E+00  0.00000000000E+00  0.31255495603E+04  0.31255495603E+04  0.00000000000E+00 0.  1.
         -2   -1    0    0    0  501 -0.00000000000E+00 -0.00000000000E+00 -0.11876850578E+04  0.11876850578E+04  0.00000000000E+00 0. -1.
         23    2    1    2    0    0 -0.30872503268E+03 -0.12866708801E+03  0.30920865089E+04  0.31115296604E+04  0.93549363922E+02 0.  0.
         13    1    3    3    0    0 -0.28348167509E+03 -0.97788761036E+02  0.24644657260E+04  0.24826429096E+04  0.00000000000E+00 0. -1.
        -13    1    3    3    0    0 -0.25243357583E+02 -0.30878326972E+02  0.62762078289E+03  0.62888675077E+03  0.00000000000E+00 0.  1.
         22    1    1    2    0    0  0.30872503268E+03  0.12866708801E+03 -0.11542220064E+04  0.12017049577E+04  0.00000000000E+00 0. -1.
<mgrwt>
<rscale>  0 0.38533977E+04</rscale>
<asrwt>0</asrwt>
<pdfrwt beam="1">  1        2 0.48085378E+00 0.38533977E+04</pdfrwt>
<pdfrwt beam="2">  1       -2 0.18272078E+00 0.38533977E+04</pdfrwt>
<totfact> 0.20073763E-01</totfact>
</mgrwt>
</event>
<event>
 6    1  0.1885829E-005  0.2094275E+04  0.7818608E-02  0.8563770E-01
          2   -1    0    0  501    0  0.00000000000E+00  0.00000000000E+00  0.15405195162E+04  0.15405195162E+04  0.00000000000E+00 0. -1.
         -2   -1    0    0    0  501 -0.00000000000E+00 -0.00000000000E+00 -0.71177057750E+03  0.71177057750E+03  0.00000000000E+00 0.  1.
         23    2    1    2    0    0  0.52488454730E+03  0.64022672800E+03  0.11012339922E+04  0.13807155669E+04  0.90912705335E+02 0.  0.
         11    1    3    3    0    0  0.50003658224E+03  0.63153457471E+03  0.10531219996E+04  0.13258727121E+04  0.00000000000E+00 0. -1.
        -11    1    3    3    0    0  0.24847965056E+02  0.86921532853E+01  0.48111992590E+02  0.54842854842E+02  0.00000000000E+00 0.  1.
         22    1    1    2    0    0 -0.52488454730E+03 -0.64022672800E+03 -0.27248505354E+03  0.87157452673E+03  0.00000000000E+00 0.  1.
<mgrwt>
<rscale>  0 0.20942745E+04</rscale>
<asrwt>0</asrwt>
<pdfrwt beam="1">  1        2 0.23700300E+00 0.20942745E+04</pdfrwt>
<pdfrwt beam="2">  1       -2 0.10950317E+00 0.20942745E+04</pdfrwt>
<totfact> 0.73766201E+00</totfact>
</mgrwt>
</event>
<event>
 6    1  0.1885829E-005  0.2516256E+04  0.7818608E-02  0.8397217E-01
         -2   -1    0    0    0  501 -0.00000000000E+00  0.00000000000E+00  0.50818450212E+03  0.50818450212E+03  0.00000000000E+00 0.  1.
          2   -1    0    0  501    0  0.00000000000E+00 -0.00000000000E+00 -0.31147867053E+04  0.31147867053E+04  0.00000000000E+00 0. -1.
         23    2    1    2    0    0 -0.80207997718E+03  0.19207390276E+03 -0.26698227459E+04  0.27957943757E+04  0.91038576494E+02 0.  0.
         13    1    3    3    0    0 -0.18679484167E+03  0.11801749560E+02 -0.67494797310E+03  0.70041870374E+03  0.00000000000E+00 0. -1.
        -13    1    3    3    0    0 -0.61528513551E+03  0.18027215320E+03 -0.19948747728E+04  0.20953756719E+04  0.00000000000E+00 0.  1.
         22    1    1    2    0    0  0.80207997718E+03 -0.19207390276E+03  0.63220542784E+02  0.82717683173E+03  0.00000000000E+00 0.  1.
<mgrwt>
<rscale>  0 0.25162562E+04</rscale>
<asrwt>0</asrwt>
<pdfrwt beam="1">  1        2 0.47919795E+00 0.25162562E+04</pdfrwt>
<pdfrwt beam="2">  1       -2 0.78182231E-01 0.25162562E+04</pdfrwt>
<totfact> 0.19093655E+00</totfact>
</mgrwt>
</event>
<event>
 6    1  0.1885829E-005  0.2898716E+04  0.7818608E-02  0.8273259E-01
          2   -1    0    0  501    0  0.00000000000E+00  0.00000000000E+00  0.14379710396E+04  0.14379710396E+04  0.00000000000E+00 0. -1.
         -2   -1    0    0    0  501 -0.00000000000E+00 -0.00000000000E+00 -0.14608355218E+04  0.14608355218E+04  0.00000000000E+00 0.  1.
         23    2    1    2    0    0 -0.45402288228E+03  0.68605366522E+03 -0.12024331784E+04  0.14606867061E+04  0.10465990468E+03 0.  0.
         13    1    3    3    0    0 -0.26907972127E+03  0.33707001597E+03 -0.69000848760E+03  0.81371481799E+03  0.00000000000E+00 0.  1.
        -13    1    3    3    0    0 -0.18494316101E+03  0.34898364925E+03 -0.51242469078E+03  0.64697188808E+03  0.00000000000E+00 0. -1.
         22    1    1    2    0    0  0.45402288228E+03 -0.68605366522E+03  0.11795686962E+04  0.14381198553E+04  0.00000000000E+00 0. -1.
<mgrwt>
<rscale>  0 0.28987164E+04</rscale>
<asrwt>0</asrwt>
<pdfrwt beam="1">  1        2 0.22122631E+00 0.28987164E+04</pdfrwt>
<pdfrwt beam="2">  1       -2 0.22474393E+00 0.28987164E+04</pdfrwt>
<totfact> 0.10960959E+00</totfact>
</mgrwt>
</event>
<event>
 6    1  0.1885829E-005  0.3799610E+04  0.7818608E-02  0.8046239E-01
          2   -1    0    0  501    0  0.00000000000E+00  0.00000000000E+00  0.18697956487E+04  0.18697956487E+04  0.00000000000E+00 0. -1.
         -2   -1    0    0    0  501 -0.00000000000E+00 -0.00000000000E+00 -0.19302960474E+04  0.19302960474E+04  0.00000000000E+00 0.  1.
         23    2    1    2    0    0  0.22571162497E+03  0.93300395925E+03  0.16081240725E+04  0.18750592935E+04  0.91335622722E+02 0.  0.
         11    1    3    3    0    0  0.17611518166E+03  0.74777597402E+03  0.12120412650E+04  0.14350015654E+04  0.00000000000E+00 0. -1.
        -11    1    3    3    0    0  0.49596443313E+02  0.18522798523E+03  0.39608280745E+03  0.44005772810E+03  0.00000000000E+00 0.  1.
         22    1    1    2    0    0 -0.22571162497E+03 -0.93300395925E+03 -0.16686244711E+04  0.19250324027E+04  0.00000000000E+00 0.  1.
<mgrwt>
<rscale>  0 0.37996101E+04</rscale>
<asrwt>0</asrwt>
<pdfrwt beam="1">  1        2 0.28766087E+00 0.37996101E+04</pdfrwt>
<pdfrwt beam="2">  1       -2 0.29696862E+00 0.37996101E+04</pdfrwt>
<totfact> 0.20991696E-01</totfact>
</mgrwt>
</event>
<event>
 6    1  0.1885829E-005  0.7272595E+03  0.7818608E-02  0.9671718E-01
         -2   -1    0    0    0  501 -0.00000000000E+00  0.00000000000E+00  0.10358796496E+04  0.10358796496E+04  0.00000000000E+00 0.  1.
          2   -1    0    0  501    0  0.00000000000E+00 -0.00000000000E+00 -0.12764668484E+03  0.12764668484E+03  0.00000000000E+00 0. -1.
         23    2    1    2    0    0  0.35264840108E+03  0.61141800698E+02  0.45913501867E+03  0.58925446523E+03  0.91195640515E+02 0.  0.
         11    1    3    3    0    0  0.13331228053E+03 -0.20768901066E+02  0.15664937372E+03  0.20674268470E+03  0.00000000000E+00 0.  1.
        -11    1    3    3    0    0  0.21933612055E+03  0.81910701764E+02  0.30248564495E+03  0.38251178053E+03  0.00000000000E+00 0. -1.
         22    1    1    2    0    0 -0.35264840108E+03 -0.61141800698E+02  0.44909794606E+03  0.57427186918E+03  0.00000000000E+00 0. -1.
<mgrwt>
<rscale>  0 0.72725952E+03</rscale>
<asrwt>0</asrwt>
<pdfrwt beam="1">  1        2 0.19637952E-01 0.72725952E+03</pdfrwt>
<pdfrwt beam="2">  1       -2 0.15936609E+00 0.72725952E+03</pdfrwt>
<totfact> 0.74878235E+01</totfact>
</mgrwt>
</event>
<event>
 6    1  0.1885829E-005  0.1215889E+04  0.7818608E-02  0.9099062E-01
         -2   -1    0    0    0  501 -0.00000000000E+00  0.00000000000E+00  0.69650817088E+03  0.69650817088E+03  0.00000000000E+00 0.  1.
          2   -1    0    0  501    0  0.00000000000E+00 -0.00000000000E+00 -0.53064181881E+03  0.53064181881E+03  0.00000000000E+00 0. -1.
         23    2    1    2    0    0  0.14328951776E+03  0.20121571798E+03  0.64024734201E+03  0.69230704576E+03  0.91393301687E+02 0.  0.
         13    1    3    3    0    0  0.12265025859E+03  0.97439645896E+02  0.41025589381E+03  0.43914401844E+03  0.00000000000E+00 0. -1.
        -13    1    3    3    0    0  0.20639259173E+02  0.10377607209E+03  0.22999144820E+03  0.25316302732E+03  0.00000000000E+00 0.  1.
         22    1    1    2    0    0 -0.14328951776E+03 -0.20121571798E+03 -0.47438098994E+03  0.53484294394E+03  0.00000000000E+00 0. -1.
<mgrwt>
<rscale>  0 0.12158887E+04</rscale>
<asrwt>0</asrwt>
<pdfrwt beam="1">  1        2 0.81637203E-01 0.12158887E+04</pdfrwt>
<pdfrwt beam="2">  1       -2 0.10715510E+00 0.12158887E+04</pdfrwt>
<totfact> 0.39632780E+01</totfact>
</mgrwt>
</event>
<event>
 6    1  0.1885829E-005  0.2304145E+04  0.7818608E-02  0.8476288E-01
          2   -1    0    0  501    0  0.00000000000E+00  0.00000000000E+00  0.17238195460E+04  0.17238195460E+04  0.00000000000E+00 0. -1.
         -2   -1    0    0    0  501 -0.00000000000E+00 -0.00000000000E+00 -0.76995956900E+03  0.76995956900E+03  0.00000000000E+00 0.  1.
         23    2    1    2    0    0 -0.26106504036E+03  0.80632563891E+03  0.13193111110E+04  0.15708107935E+04  0.92459450113E+02 0.  0.
         13    1    3    3    0    0 -0.15725377910E+03  0.60423051103E+03  0.10003513771E+04  0.11792057238E+04  0.00000000000E+00 0. -1.
        -13    1    3    3    0    0 -0.10381126126E+03  0.20209512788E+03  0.31895973394E+03  0.39160506962E+03  0.00000000000E+00 0.  1.
         22    1    1    2    0    0  0.26106504036E+03 -0.80632563891E+03 -0.36545113400E+03  0.92296832156E+03  0.00000000000E+00 0.  1.
<mgrwt>
<rscale>  0 0.23041453E+04</rscale>
<asrwt>0</asrwt>
<pdfrwt beam="1">  1        2 0.26520301E+00 0.23041453E+04</pdfrwt>
<pdfrwt beam="2">  1       -2 0.11845532E+00 0.23041453E+04</pdfrwt>
<totfact> 0.47279198E+00</totfact>
</mgrwt>
</event>
<event>
 6    1  0.1885829E-005  0.1318618E+04  0.7818608E-02  0.9014930E-01
         -1   -1    0    0    0  501 -0.00000000000E+00  0.00000000000E+00  0.44195646475E+03  0.44195646475E+03  0.00000000000E+00 0.  1.
          1   -1    0    0  501    0  0.00000000000E+00 -0.00000000000E+00 -0.98355528260E+03  0.98355528260E+03  0.00000000000E+00 0. -1.
         23    2    1    2    0    0 -0.13370497615E+03  0.55267863997E+03 -0.62652370848E+03  0.85058311111E+03  0.87343986062E+02 0.  0.
         13    1    3    3    0    0 -0.82935313219E+02  0.19561939872E+03 -0.26850834282E+03  0.34240611194E+03  0.00000000000E+00 0.  1.
        -13    1    3    3    0    0 -0.50769662930E+02  0.35705924125E+03 -0.35801536566E+03  0.50817699916E+03  0.00000000000E+00 0. -1.
         22    1    1    2    0    0  0.13370497615E+03 -0.55267863997E+03  0.84924890621E+02  0.57492863624E+03  0.00000000000E+00 0.  1.
<mgrwt>
<rscale>  0 0.13186184E+04</rscale>
<asrwt>0</asrwt>
<pdfrwt beam="1">  1        1 0.15131620E+00 0.13186184E+04</pdfrwt>
<pdfrwt beam="2">  1       -1 0.67993302E-01 0.13186184E+04</pdfrwt>
<totfact> 0.33499272E+01</totfact>
</mgrwt>
</event>
<event>
 6    1  0.1885829E-005  0.2838110E+04  0.7818608E-02  0.8291534E-01
          2   -1    0    0  501    0  0.00000000000E+00  0.00000000000E+00  0.20336314505E+04  0.20336314505E+04  0.00000000000E+00 0. -1.
         -2   -1    0    0    0  501 -0.00000000000E+00 -0.00000000000E+00 -0.99020720321E+03  0.99020720321E+03  0.00000000000E+00 0.  1.
         23    2    1    2    0    0  0.12870209852E+04  0.49833933715E+03  0.17711028317E+03  0.13943402659E+04  0.89730782597E+02 0.  0.
         13    1    3    3    0    0  0.86195244478E+03  0.34131847625E+03  0.16073126737E+03  0.94090108917E+03  0.00000000000E+00 0. -1.
        -13    1    3    3    0    0  0.42506854047E+03  0.15702086090E+03  0.16379015795E+02  0.45343917675E+03  0.00000000000E+00 0.  1.
         22    1    1    2    0    0 -0.12870209852E+04 -0.49833933715E+03  0.86631396416E+03  0.16294983878E+04  0.00000000000E+00 0.  1.
<mgrwt>
<rscale>  0 0.28381096E+04</rscale>
<asrwt>0</asrwt>
<pdfrwt beam="1">  1        2 0.31286637E+00 0.28381096E+04</pdfrwt>
<pdfrwt beam="2">  1       -2 0.15233957E+00 0.28381096E+04</pdfrwt>
<totfact> 0.15961719E+00</totfact>
</mgrwt>
</event>
<event>
 6    1  0.1885829E-005  0.2577063E+04  0.7818608E-02  0.8376034E-01
          2   -1    0    0  501    0  0.00000000000E+00  0.00000000000E+00  0.22038806707E+04  0.22038806707E+04  0.00000000000E+00 0.  1.
         -2   -1    0    0    0  501 -0.00000000000E+00 -0.00000000000E+00 -0.75335902939E+03  0.75335902939E+03  0.00000000000E+00 0. -1.
         23    2    1    2    0    0 -0.89311882539E+03  0.21612569741E+03  0.17600779105E+04  0.19876023261E+04  0.91198696295E+02 0.  0.
         11    1    3    3    0    0 -0.15295352290E+03  0.14678731259E+02  0.24069971992E+03  0.28556365400E+03  0.00000000000E+00 0. -1.
        -11    1    3    3    0    0 -0.74016530249E+03  0.20144696615E+03  0.15193781906E+04  0.17020386721E+04  0.00000000000E+00 0.  1.
         22    1    1    2    0    0  0.89311882539E+03 -0.21612569741E+03 -0.30955626918E+03  0.96963737404E+03  0.00000000000E+00 0. -1.
<mgrwt>
<rscale>  0 0.25770630E+04</rscale>
<asrwt>0</asrwt>
<pdfrwt beam="1">  1        2 0.33905856E+00 0.25770630E+04</pdfrwt>
<pdfrwt beam="2">  1       -2 0.11590139E+00 0.25770630E+04</pdfrwt>
<totfact> 0.26338479E+00</totfact>
</mgrwt>
</event>
<event>
 6    1  0.1885829E-005  0.4437784E+04  0.7818608E-02  0.7921620E-01
          2   -1    0    0  501    0  0.00000000000E+00  0.00000000000E+00  0.16011242866E+04  0.16011242866E+04  0.00000000000E+00 0. -1.
         -2   -1    0    0    0  501 -0.00000000000E+00 -0.00000000000E+00 -0.30750151776E+04  0.30750151776E+04  0.00000000000E+00 0.  1.
         23    2    1    2    0    0  0.67514734542E+03 -0.12755382378E+04  0.10373640357E+04  0.17797239138E+04  0.92039843146E+02 0.  0.
         11    1    3    3    0    0  0.51479828333E+03 -0.90495944113E+03  0.71442908506E+03  0.12626867308E+04  0.00000000000E+00 0. -1.
        -11    1    3    3    0    0  0.16034906208E+03 -0.37057879663E+03  0.32293495064E+03  0.51703718296E+03  0.00000000000E+00 0.  1.
         22    1    1    2    0    0 -0.67514734542E+03  0.12755382378E+04 -0.25112549266E+04  0.28964155504E+04  0.00000000000E+00 0.  1.
<mgrwt>
<rscale>  0 0.44377839E+04</rscale>
<asrwt>0</asrwt>
<pdfrwt beam="1">  1        2 0.24632682E+00 0.44377839E+04</pdfrwt>
<pdfrwt beam="2">  1       -2 0.47307925E+00 0.44377839E+04</pdfrwt>
<totfact> 0.20806641E-02</totfact>
</mgrwt>
</event>
<event>
 6    1  0.1885829E-005  0.1507797E+04  0.7818608E-02  0.8879284E-01
         -2   -1    0    0    0  501 -0.00000000000E+00  0.00000000000E+00  0.34513606010E+03  0.34513606010E+03  0.00000000000E+00 0.  1.
          2   -1    0    0  501    0  0.00000000000E+00 -0.00000000000E+00 -0.16467795082E+04  0.16467795082E+04  0.00000000000E+00 0. -1.
         23    2    1    2    0    0  0.29255370552E+03 -0.17353065730E+03 -0.15380023877E+04  0.15777101748E+04  0.89540446573E+02 0.  0.
         11    1    3    3    0    0  0.14003760619E+03 -0.41550015271E+02 -0.53205249343E+03  0.55173978530E+03  0.00000000000E+00 0.  1.
        -11    1    3    3    0    0  0.15251609933E+03 -0.13198064203E+03 -0.10059498943E+04  0.10259703895E+04  0.00000000000E+00 0. -1.
         22    1    1    2    0    0 -0.29255370552E+03  0.17353065730E+03  0.23635893961E+03  0.41420539345E+03  0.00000000000E+00 0.  1.
<mgrwt>
<rscale>  0 0.15077971E+04</rscale>
<asrwt>0</asrwt>
<pdfrwt beam="1">  1        2 0.25335069E+00 0.15077971E+04</pdfrwt>
<pdfrwt beam="2">  1       -2 0.53097855E-01 0.15077971E+04</pdfrwt>
<totfact> 0.33905397E+01</totfact>
</mgrwt>
</event>
<event>
 6    1  0.1885829E-005  0.2201031E+04  0.7818608E-02  0.8517999E-01
         -2   -1    0    0    0  501 -0.00000000000E+00  0.00000000000E+00  0.99210328601E+03  0.99210328601E+03  0.00000000000E+00 0. -1.
          2   -1    0    0  501    0  0.00000000000E+00 -0.00000000000E+00 -0.12207748439E+04  0.12207748439E+04  0.00000000000E+00 0.  1.
         23    2    1    2    0    0  0.46461183507E+03 -0.60883082353E+03  0.67730259746E+03  0.10265694436E+04  0.92557469334E+02 0.  0.
         13    1    3    3    0    0  0.15296763488E+03 -0.26553448193E+03  0.29929840392E+03  0.42835405100E+03  0.00000000000E+00 0.  1.
        -13    1    3    3    0    0  0.31164420019E+03 -0.34329634159E+03  0.37800419353E+03  0.59821539264E+03  0.00000000000E+00 0. -1.
         22    1    1    2    0    0 -0.46461183507E+03  0.60883082353E+03 -0.90597415535E+03  0.11863086863E+04  0.00000000000E+00 0.  1.
<mgrwt>
<rscale>  0 0.22010313E+04</rscale>
<asrwt>0</asrwt>
<pdfrwt beam="1">  1        2 0.18781151E+00 0.22010313E+04</pdfrwt>
<pdfrwt beam="2">  1       -2 0.15263127E+00 0.22010313E+04</pdfrwt>
<totfact> 0.48132539E+00</totfact>
</mgrwt>
</event>
<event>
 6    1  0.1885829E-005  0.2861399E+04  0.7818608E-02  0.8284456E-01
         -2   -1    0    0    0  501 -0.00000000000E+00  0.00000000000E+00  0.83053160467E+03  0.83053160467E+03  0.00000000000E+00 0.  1.
          2   -1    0    0  501    0  0.00000000000E+00 -0.00000000000E+00 -0.24645681278E+04  0.24645681278E+04  0.00000000000E+00 0. -1.
         23    2    1    2    0    0 -0.98977627787E+03  0.11023433093E+02 -0.20050827378E+04  0.22380028165E+04  0.92310482452E+02 0.  0.
         13    1    3    3    0    0 -0.48788147284E+03 -0.12158718842E+02 -0.89202560552E+03  0.10168017736E+04  0.00000000000E+00 0. -1.
        -13    1    3    3    0    0 -0.50189480503E+03  0.23182151935E+02 -0.11130571323E+04  0.12212010429E+04  0.00000000000E+00 0.  1.
         22    1    1    2    0    0  0.98977627787E+03 -0.11023433093E+02  0.37104621463E+03  0.10570969159E+04  0.00000000000E+00 0.  1.
<mgrwt>
<rscale>  0 0.28613995E+04</rscale>
<asrwt>0</asrwt>
<pdfrwt beam="1">  1        2 0.37916432E+00 0.28613995E+04</pdfrwt>
<pdfrwt beam="2">  1       -2 0.12777410E+00 0.28613995E+04</pdfrwt>
<totfact> 0.14332463E+00</totfact>
</mgrwt>
</event>
<event>
 6    1  0.1885829E-005  0.1354846E+04  0.7818608E-02  0.8987168E-01
          2   -1    0    0  501    0  0.00000000000E+00  0.00000000000E+00  0.12213228938E+04  0.12213228938E+04  0.00000000000E+00 0. -1.
         -2   -1    0    0    0  501 -0.00000000000E+00 -0.00000000000E+00 -0.37574166612E+03  0.37574166612E+03  0.00000000000E+00 0.  1.
         23    2    1    2    0    0  0.54641399910E+03 -0.15875659153E+03 -0.14429697738E+01  0.57666174492E+03  0.93620361687E+02 0.  0.
         13    1    3    3    0    0  0.24614327124E+03 -0.10897740457E+03  0.29134003380E+02  0.27076073356E+03  0.00000000000E+00 0.  1.
        -13    1    3    3    0    0  0.30027072786E+03 -0.49779186962E+02 -0.30576973154E+02  0.30590101136E+03  0.00000000000E+00 0. -1.
         22    1    1    2    0    0 -0.54641399910E+03  0.15875659153E+03  0.84702419746E+03  0.10204028150E+04  0.00000000000E+00 0. -1.
<mgrwt>
<rscale>  0 0.13548460E+04</rscale>
<asrwt>0</asrwt>
<pdfrwt beam="1">  1        2 0.18789583E+00 0.13548460E+04</pdfrwt>
<pdfrwt beam="2">  1       -2 0.57806411E-01 0.13548460E+04</pdfrwt>
<totfact> 0.50315315E+01</totfact>
</mgrwt>
</event>
<event>
 6    1  0.2620256E-005  0.2404202E+04  0.7818608E-02  0.8437932E-01
         -2   -1    0    0    0  501 -0.00000000000E+00  0.00000000000E+00  0.90391539220E+03  0.90391539220E+03  0.00000000000E+00 0.  1.
          2   -1    0    0  501    0  0.00000000000E+00 -0.00000000000E+00 -0.15986521702E+04  0.15986521702E+04  0.00000000000E+00 0. -1.
         23    2    1    2    0    0  0.83107708836E+02 -0.72024475543E+03 -0.13437503793E+04  0.15294909704E+04  0.89544109757E+02 0.  0.
         11    1    3    3    0    0  0.86694007309E+02 -0.39321731607E+03 -0.70521127733E+03  0.81207059683E+03  0.00000000000E+00 0. -1.
        -11    1    3    3    0    0 -0.35862984726E+01 -0.32702743936E+03 -0.63853910201E+03  0.71742037358E+03  0.00000000000E+00 0.  1.
         22    1    1    2    0    0 -0.83107708836E+02  0.72024475543E+03  0.64901360139E+03  0.97307659194E+03  0.00000000000E+00 0.  1.
<mgrwt>
<rscale>  0 0.24042016E+04</rscale>
<asrwt>0</asrwt>
<pdfrwt beam="1">  1        2 0.24594648E+00 0.24042016E+04</pdfrwt>
<pdfrwt beam="2">  1       -2 0.13906391E+00 0.24042016E+04</pdfrwt>
<totfact> 0.36707795E+00</totfact>
</mgrwt>
</event>
<event>
 6    1  0.1885829E-005  0.5120372E+04  0.7818608E-02  0.7810202E-01
         -2   -1    0    0    0  501 -0.00000000000E+00  0.00000000000E+00  0.27650179961E+04  0.27650179961E+04  0.00000000000E+00 0.  1.
          2   -1    0    0  501    0  0.00000000000E+00 -0.00000000000E+00 -0.23705281565E+04  0.23705281565E+04  0.00000000000E+00 0. -1.
         23    2    1    2    0    0 -0.92935896534E+03  0.23389688817E+04  0.66323486901E+03  0.26043987039E+04  0.92350427199E+02 0.  0.
         11    1    3    3    0    0 -0.55913667584E+03  0.12923402528E+04  0.38884684704E+03  0.14608145063E+04  0.00000000000E+00 0. -1.
        -11    1    3    3    0    0 -0.37022228950E+03  0.10466286289E+04  0.27438802197E+03  0.11435841976E+04  0.00000000000E+00 0.  1.
         22    1    1    2    0    0  0.92935896534E+03 -0.23389688817E+04 -0.26874502933E+03  0.25311474487E+04  0.00000000000E+00 0. -1.
<mgrwt>
<rscale>  0 0.51203723E+04</rscale>
<asrwt>0</asrwt>
<pdfrwt beam="1">  1        2 0.36469664E+00 0.51203723E+04</pdfrwt>
<pdfrwt beam="2">  1       -2 0.42538738E+00 0.51203723E+04</pdfrwt>
<totfact> 0.15080494E-02</totfact>
</mgrwt>
</event>
<event>
 6    1  0.1885829E-005  0.1566913E+04  0.7818608E-02  0.8841137E-01
          2   -1    0    0  501    0  0.00000000000E+00  0.00000000000E+00  0.12228767226E+04  0.12228767226E+04  0.00000000000E+00 0. -1.
         -2   -1    0    0    0  501 -0.00000000000E+00 -0.00000000000E+00 -0.50193439212E+03  0.50193439212E+03  0.00000000000E+00 0.  1.
         23    2    1    2    0    0 -0.77548730827E+03 -0.87479056746E+02  0.38101393109E+03  0.87358584058E+03  0.94590985386E+02 0.  0.
         11    1    3    3    0    0 -0.45878938964E+03 -0.36459177588E+02  0.27297077479E+03  0.53509814013E+03  0.00000000000E+00 0. -1.
        -11    1    3    3    0    0 -0.31669791863E+03 -0.51019879159E+02  0.10804315630E+03  0.33848770045E+03  0.00000000000E+00 0.  1.
         22    1    1    2    0    0  0.77548730827E+03  0.87479056746E+02  0.33992839944E+03  0.85122527418E+03  0.00000000000E+00 0.  1.
<mgrwt>
<rscale>  0 0.15669127E+04</rscale>
<asrwt>0</asrwt>
<pdfrwt beam="1">  1        2 0.18813488E+00 0.15669127E+04</pdfrwt>
<pdfrwt beam="2">  1       -2 0.77220676E-01 0.15669127E+04</pdfrwt>
<totfact> 0.26406612E+01</totfact>
</mgrwt>
</event>
<event>
 6    1  0.1885829E-005  0.1739405E+04  0.7818608E-02  0.8739204E-01
          1   -1    0    0  501    0  0.00000000000E+00  0.00000000000E+00  0.14752825780E+04  0.14752825780E+04  0.00000000000E+00 0. -1.
         -1   -1    0    0    0  501 -0.00000000000E+00 -0.00000000000E+00 -0.51270366742E+03  0.51270366742E+03  0.00000000000E+00 0.  1.
         23    2    1    2    0    0  0.87675248616E+02  0.44032565526E+03 -0.36558375106E+03  0.58599134968E+03  0.90336874824E+02 0.  0.
         11    1    3    3    0    0  0.95832837249E+02  0.43597852147E+03 -0.34756802574E+03  0.56574264149E+03  0.00000000000E+00 0. -1.
        -11    1    3    3    0    0 -0.81575886335E+01  0.43471337931E+01 -0.18015725323E+02  0.20248708192E+02  0.00000000000E+00 0.  1.
         22    1    1    2    0    0 -0.87675248616E+02 -0.44032565526E+03  0.13281626616E+04  0.14019948957E+04  0.00000000000E+00 0. -1.
<mgrwt>
<rscale>  0 0.17394054E+04</rscale>
<asrwt>0</asrwt>
<pdfrwt beam="1">  1        1 0.22696655E+00 0.17394054E+04</pdfrwt>
<pdfrwt beam="2">  1       -1 0.78877488E-01 0.17394054E+04</pdfrwt>
<totfact> 0.10376079E+01</totfact>
</mgrwt>
</event>
<event>
 6    1  0.1885829E-005  0.3205544E+04  0.7818608E-02  0.8187355E-01
          2   -1    0    0  501    0  0.00000000000E+00  0.00000000000E+00  0.13168947833E+04  0.13168947833E+04  0.00000000000E+00 0. -1.
         -2   -1    0    0    0  501 -0.00000000000E+00 -0.00000000000E+00 -0.19507082303E+04  0.19507082303E+04  0.00000000000E+00 0.  1.
         23    2    1    2    0    0  0.78940338079E+03  0.13811964891E+04 -0.12958610175E+03  0.15987391321E+04  0.91174643902E+02 0.  0.
         11    1    3    3    0    0  0.15612683733E+03  0.22064678903E+03 -0.44304463408E+02  0.27390414440E+03  0.00000000000E+00 0. -1.
        -11    1    3    3    0    0  0.63327654347E+03  0.11605497001E+04 -0.85281638344E+02  0.13248349877E+04  0.00000000000E+00 0.  1.
         22    1    1    2    0    0 -0.78940338079E+03 -0.13811964891E+04 -0.50422734517E+03  0.16688638815E+04  0.00000000000E+00 0.  1.
<mgrwt>
<rscale>  0 0.32055436E+04</rscale>
<asrwt>0</asrwt>
<pdfrwt beam="1">  1        2 0.20259920E+00 0.32055436E+04</pdfrwt>
<pdfrwt beam="2">  1       -2 0.30010896E+00 0.32055436E+04</pdfrwt>
<totfact> 0.43161509E-01</totfact>
</mgrwt>
</event>
<event>
 6    1  0.1885829E-005  0.1025691E+04  0.7818608E-02  0.9280808E-01
          2   -1    0    0  501    0  0.00000000000E+00  0.00000000000E+00  0.89260638596E+03  0.89260638596E+03  0.00000000000E+00 0. -1.
         -2   -1    0    0    0  501 -0.00000000000E+00 -0.00000000000E+00 -0.29465436770E+03  0.29465436770E+03  0.00000000000E+00 0.  1.
         23    2    1    2    0    0 -0.49046477759E+03 -0.73798461539E+02  0.43321992492E+03  0.66463414359E+03  0.89761520086E+02 0.  0.
         13    1    3    3    0    0 -0.15768683894E+03 -0.63944963315E+02  0.12739490171E+03  0.21256424556E+03  0.00000000000E+00 0. -1.
        -13    1    3    3    0    0 -0.33277793865E+03 -0.98534982242E+01  0.30582502321E+03  0.45206989802E+03  0.00000000000E+00 0.  1.
         22    1    1    2    0    0  0.49046477759E+03  0.73798461539E+02  0.16473209334E+03  0.52262661007E+03  0.00000000000E+00 0.  1.
<mgrwt>
<rscale>  0 0.10256907E+04</rscale>
<asrwt>0</asrwt>
<pdfrwt beam="1">  1        2 0.13732406E+00 0.10256907E+04</pdfrwt>
<pdfrwt beam="2">  1       -2 0.45331442E-01 0.10256907E+04</pdfrwt>
<totfact> 0.13642763E+02</totfact>
</mgrwt>
</event>
<event>
 6    1  0.1885829E-005  0.1303490E+04  0.7818608E-02  0.9026802E-01
          2   -1    0    0  501    0  0.00000000000E+00  0.00000000000E+00  0.17161749276E+04  0.17161749276E+04  0.00000000000E+00 0. -1.
         -2   -1    0    0    0  501 -0.00000000000E+00 -0.00000000000E+00 -0.24751048023E+03  0.24751048023E+03  0.00000000000E+00 0.  1.
         23    2    1    2    0    0  0.14528488888E+03  0.62036457903E+03  0.91872605837E+03  0.11220250598E+04  0.94460333078E+02 0.  0.
         13    1    3    3    0    0 -0.83083976657E+01  0.54846840322E+02  0.53794841169E+02  0.77272830293E+02  0.00000000000E+00 0. -1.
        -13    1    3    3    0    0  0.15359328655E+03  0.56551773871E+03  0.86493121720E+03  0.10447522295E+04  0.00000000000E+00 0.  1.
         22    1    1    2    0    0 -0.14528488888E+03 -0.62036457903E+03  0.54993838903E+03  0.84166034811E+03  0.00000000000E+00 0.  1.
<mgrwt>
<rscale>  0 0.13034896E+04</rscale>
<asrwt>0</asrwt>
<pdfrwt beam="1">  1        2 0.26402690E+00 0.13034896E+04</pdfrwt>
<pdfrwt beam="2">  1       -2 0.38078537E-01 0.13034896E+04</pdfrwt>
<totfact> 0.61278576E+01</totfact>
</mgrwt>
</event>
<event>
 6    1  0.1885829E-005  0.1940475E+04  0.7818608E-02  0.8634968E-01
         -2   -1    0    0    0  501 -0.00000000000E+00  0.00000000000E+00  0.67664957974E+03  0.67664957974E+03  0.00000000000E+00 0.  1.
          2   -1    0    0  501    0  0.00000000000E+00 -0.00000000000E+00 -0.13912085526E+04  0.13912085526E+04  0.00000000000E+00 0. -1.
         23    2    1    2    0    0 -0.48205107327E+03  0.40805023806E+03 -0.11401169375E+04  0.13062953869E+04  0.87537265040E+02 0.  0.
         13    1    3    3    0    0 -0.33837647630E+03  0.24132010045E+03 -0.69639926410E+03  0.81099073091E+03  0.00000000000E+00 0. -1.
        -13    1    3    3    0    0 -0.14367459698E+03  0.16673013761E+03 -0.44371767336E+03  0.49530465600E+03  0.00000000000E+00 0.  1.
         22    1    1    2    0    0  0.48205107327E+03 -0.40805023806E+03  0.42555796459E+03  0.76156274544E+03  0.00000000000E+00 0.  1.
<mgrwt>
<rscale>  0 0.19404749E+04</rscale>
<asrwt>0</asrwt>
<pdfrwt beam="1">  1        2 0.21403208E+00 0.19404749E+04</pdfrwt>
<pdfrwt beam="2">  1       -2 0.10409994E+00 0.19404749E+04</pdfrwt>
<totfact> 0.10257348E+01</totfact>
</mgrwt>
</event>
<event>
 6    1  0.2092858E-005  0.4154487E+04  0.7818608E-02  0.7974087E-01
          2   -1    0    0  501    0  0.00000000000E+00  0.00000000000E+00  0.25773463133E+04  0.25773463133E+04  0.00000000000E+00 0. -1.
         -2   -1    0    0    0  501 -0.00000000000E+00 -0.00000000000E+00 -0.16741799174E+04  0.16741799174E+04  0.00000000000E+00 0.  1.
         23    2    1    2    0    0 -0.16635692406E+04 -0.12395772766E+04  0.53434524261E+03  0.21443851614E+04  0.94066142885E+02 0.  0.
         11    1    3    3    0    0 -0.63537610152E+03 -0.48626833179E+03  0.16011394553E+03  0.81596333033E+03  0.00000000000E+00 0. -1.
        -11    1    3    3    0    0 -0.10281931391E+04 -0.75330894477E+03  0.37423129707E+03  0.13284218311E+04  0.00000000000E+00 0.  1.
         22    1    1    2    0    0  0.16635692406E+04  0.12395772766E+04  0.36882115333E+03  0.21071410693E+04  0.00000000000E+00 0.  1.
<mgrwt>
<rscale>  0 0.41544874E+04</rscale>
<asrwt>0</asrwt>
<pdfrwt beam="1">  1        2 0.39651482E+00 0.41544874E+04</pdfrwt>
<pdfrwt beam="2">  1       -2 0.25756614E+00 0.41544874E+04</pdfrwt>
<totfact> 0.14115680E-01</totfact>
</mgrwt>
</event>
<event>
 6    1  0.2284894E-005  0.3445359E+04  0.7818608E-02  0.8126863E-01
          2   -1    0    0  501    0  0.00000000000E+00  0.00000000000E+00  0.26434940324E+04  0.26434940324E+04  0.00000000000E+00 0. -1.
         -2   -1    0    0    0  501 -0.00000000000E+00 -0.00000000000E+00 -0.11226144524E+04  0.11226144524E+04  0.00000000000E+00 0.  1.
         23    2    1    2    0    0 -0.98490020658E+03  0.61060580857E+02  0.23028868578E+04  0.25070246140E+04  0.90153888127E+02 0.  0.
         11    1    3    3    0    0 -0.48967165469E+03  0.47092305775E+02  0.10414688303E+04  0.11518043841E+04  0.00000000000E+00 0. -1.
        -11    1    3    3    0    0 -0.49522855189E+03  0.13968275081E+02  0.12614180275E+04  0.13552202299E+04  0.00000000000E+00 0.  1.
         22    1    1    2    0    0  0.98490020658E+03 -0.61060580857E+02 -0.78200727783E+03  0.12590838709E+04  0.00000000000E+00 0.  1.
<mgrwt>
<rscale>  0 0.34453590E+04</rscale>
<asrwt>0</asrwt>
<pdfrwt beam="1">  1        2 0.40669139E+00 0.34453590E+04</pdfrwt>
<pdfrwt beam="2">  1       -2 0.17270992E+00 0.34453590E+04</pdfrwt>
<totfact> 0.48270861E-01</totfact>
</mgrwt>
</event>
<event>
 6    1  0.1885829E-005  0.2147001E+04  0.7818608E-02  0.8540817E-01
          1   -1    0    0  501    0  0.00000000000E+00  0.00000000000E+00  0.21110075263E+04  0.21110075263E+04  0.00000000000E+00 0.  1.
         -1   -1    0    0    0  501 -0.00000000000E+00 -0.00000000000E+00 -0.54590198566E+03  0.54590198566E+03  0.00000000000E+00 0. -1.
         23    2    1    2    0    0  0.89860649736E+03 -0.39792381021E+03  0.13122355259E+04  0.16421286291E+04  0.93740936937E+02 0.  0.
         13    1    3    3    0    0  0.66869137771E+03 -0.32718072153E+03  0.10377312057E+04  0.12771379873E+04  0.00000000000E+00 0.  1.
        -13    1    3    3    0    0  0.22991511965E+03 -0.70743088684E+02  0.27450432019E+03  0.36499064186E+03  0.00000000000E+00 0. -1.
         22    1    1    2    0    0 -0.89860649736E+03  0.39792381021E+03  0.25287001471E+03  0.10147808828E+04  0.00000000000E+00 0.  1.
<mgrwt>
<rscale>  0 0.21470009E+04</rscale>
<asrwt>0</asrwt>
<pdfrwt beam="1">  1        1 0.32477038E+00 0.21470009E+04</pdfrwt>
<pdfrwt beam="2">  1       -1 0.83984922E-01 0.21470009E+04</pdfrwt>
<totfact> 0.32235921E+00</totfact>
</mgrwt>
</event>
<event>
 6    1  0.1885829E-005  0.2268019E+04  0.7818608E-02  0.8490639E-01
          2   -1    0    0  501    0  0.00000000000E+00  0.00000000000E+00  0.10281672375E+04  0.10281672375E+04  0.00000000000E+00 0. -1.
         -2   -1    0    0    0  501 -0.00000000000E+00 -0.00000000000E+00 -0.12507474820E+04  0.12507474820E+04  0.00000000000E+00 0.  1.
         23    2    1    2    0    0  0.97792521286E+03 -0.30532658814E+03  0.37268949944E+03  0.10940484336E+04  0.92100296919E+02 0.  0.
         11    1    3    3    0    0  0.46232942629E+03 -0.97430757962E+02  0.18191147666E+03  0.50629342910E+03  0.00000000000E+00 0.  1.
        -11    1    3    3    0    0  0.51559578657E+03 -0.20789583018E+03  0.19077802278E+03  0.58775500450E+03  0.00000000000E+00 0. -1.
         22    1    1    2    0    0 -0.97792521286E+03  0.30532658814E+03 -0.59526974390E+03  0.11848662859E+04  0.00000000000E+00 0.  1.
<mgrwt>
<rscale>  0 0.22680190E+04</rscale>
<asrwt>0</asrwt>
<pdfrwt beam="1">  1        2 0.15817957E+00 0.22680190E+04</pdfrwt>
<pdfrwt beam="2">  1       -2 0.19242269E+00 0.22680190E+04</pdfrwt>
<totfact> 0.32791408E+00</totfact>
</mgrwt>
</event>
<event>
 6    1  0.1885829E-005  0.3307524E+04  0.7818608E-02  0.8160983E-01
         -2   -1    0    0    0  501 -0.00000000000E+00  0.00000000000E+00  0.11638841507E+04  0.11638841507E+04  0.00000000000E+00 0.  1.
          2   -1    0    0  501    0  0.00000000000E+00 -0.00000000000E+00 -0.23498292853E+04  0.23498292853E+04  0.00000000000E+00 0. -1.
         23    2    1    2    0    0  0.12010777574E+04  0.48158190142E+03  0.49840279274E+03  0.13896755720E+04  0.91016177138E+02 0.  0.
         11    1    3    3    0    0  0.30109671508E+03  0.16319342348E+03  0.12374199579E+03  0.36414750696E+03  0.00000000000E+00 0. -1.
        -11    1    3    3    0    0  0.89998104235E+03  0.31838847794E+03  0.37466079696E+03  0.10255280651E+04  0.00000000000E+00 0.  1.
         22    1    1    2    0    0 -0.12010777574E+04 -0.48158190142E+03 -0.16843479274E+04  0.21240378640E+04  0.00000000000E+00 0. -1.
<mgrwt>
<rscale>  0 0.33075242E+04</rscale>
<asrwt>0</asrwt>
<pdfrwt beam="1">  1        2 0.36151220E+00 0.33075242E+04</pdfrwt>
<pdfrwt beam="2">  1       -2 0.17905910E+00 0.33075242E+04</pdfrwt>
<totfact> 0.65248242E-01</totfact>
</mgrwt>
</event>
<event>
 6    1  0.1885829E-005  0.2192812E+04  0.7818608E-02  0.8521426E-01
         -2   -1    0    0    0  501 -0.00000000000E+00  0.00000000000E+00  0.11231248710E+04  0.11231248710E+04  0.00000000000E+00 0.  1.
          2   -1    0    0  501    0  0.00000000000E+00 -0.00000000000E+00 -0.10703231218E+04  0.10703231218E+04  0.00000000000E+00 0. -1.
         23    2    1    2    0    0  0.91208710551E+03  0.56928788318E+03  0.23322587030E+03  0.11032441377E+04  0.82229793418E+02 0.  0.
         11    1    3    3    0    0  0.16767321610E+03  0.10163550413E+03  0.75402877071E+02  0.21007064757E+03  0.00000000000E+00 0.  1.
        -11    1    3    3    0    0  0.74441388940E+03  0.46765237905E+03  0.15782299323E+03  0.89317349018E+03  0.00000000000E+00 0. -1.
         22    1    1    2    0    0 -0.91208710551E+03 -0.56928788318E+03 -0.18042412110E+03  0.10902038550E+04  0.00000000000E+00 0. -1.
<mgrwt>
<rscale>  0 0.21928124E+04</rscale>
<asrwt>0</asrwt>
<pdfrwt beam="1">  1        2 0.16466509E+00 0.21928124E+04</pdfrwt>
<pdfrwt beam="2">  1       -2 0.17278844E+00 0.21928124E+04</pdfrwt>
<totfact> 0.42334169E+00</totfact>
</mgrwt>
</event>
<event>
 6    1  0.1885829E-005  0.2461640E+04  0.7818608E-02  0.8416780E-01
         -2   -1    0    0    0  501 -0.00000000000E+00  0.00000000000E+00  0.40780041742E+03  0.40780041742E+03  0.00000000000E+00 0.  1.
          2   -1    0    0  501    0  0.00000000000E+00 -0.00000000000E+00 -0.37148523544E+04  0.37148523544E+04  0.00000000000E+00 0. -1.
         23    2    1    2    0    0  0.46133291175E+03  0.29766421344E+03 -0.34973385933E+04  0.35415838851E+04  0.10003569195E+03 0.  0.
         13    1    3    3    0    0  0.26651709692E+03  0.15052801691E+03 -0.16460534538E+04  0.16742705933E+04  0.00000000000E+00 0.  1.
        -13    1    3    3    0    0  0.19481581483E+03  0.14713619654E+03 -0.18512851395E+04  0.18673132918E+04  0.00000000000E+00 0. -1.
         22    1    1    2    0    0 -0.46133291175E+03 -0.29766421344E+03  0.19028665639E+03  0.58106888665E+03  0.00000000000E+00 0.  1.
<mgrwt>
<rscale>  0 0.24616404E+04</rscale>
<asrwt>0</asrwt>
<pdfrwt beam="1">  1        2 0.57151575E+00 0.24616404E+04</pdfrwt>
<pdfrwt beam="2">  1       -2 0.62738525E-01 0.24616404E+04</pdfrwt>
<totfact> 0.12022003E+00</totfact>
</mgrwt>
</event>
<event>
 6    1  0.1885829E-005  0.1188402E+04  0.7818608E-02  0.9123069E-01
          2   -1    0    0  501    0  0.00000000000E+00  0.00000000000E+00  0.49846887744E+03  0.49846887744E+03  0.00000000000E+00 0. -1.
         -2   -1    0    0    0  501 -0.00000000000E+00 -0.00000000000E+00 -0.70831912684E+03  0.70831912684E+03  0.00000000000E+00 0.  1.
         23    2    1    2    0    0  0.22575709425E+03 -0.46572265422E+03  0.18358791276E+03  0.55666690502E+03  0.91157364958E+02 0.  0.
         13    1    3    3    0    0  0.33292811353E+02 -0.36296426888E+02  0.43398533745E+02  0.65645065495E+02  0.00000000000E+00 0.  1.
        -13    1    3    3    0    0  0.19246428289E+03 -0.42942622733E+03  0.14018937901E+03  0.49102183953E+03  0.00000000000E+00 0. -1.
         22    1    1    2    0    0 -0.22575709425E+03  0.46572265422E+03 -0.39343816216E+03  0.65012109925E+03  0.00000000000E+00 0.  1.
<mgrwt>
<rscale>  0 0.11884024E+04</rscale>
<asrwt>0</asrwt>
<pdfrwt beam="1">  1        2 0.76687520E-01 0.11884024E+04</pdfrwt>
<pdfrwt beam="2">  1       -2 0.10897217E+00 0.11884024E+04</pdfrwt>
<totfact> 0.41017762E+01</totfact>
</mgrwt>
</event>
<event>
 6    1  0.1885829E-005  0.2158766E+04  0.7818608E-02  0.8535789E-01
         -2   -1    0    0    0  501 -0.00000000000E+00  0.00000000000E+00  0.11199893867E+04  0.11199893867E+04  0.00000000000E+00 0.  1.
          2   -1    0    0  501    0  0.00000000000E+00 -0.00000000000E+00 -0.10402487093E+04  0.10402487093E+04  0.00000000000E+00 0. -1.
         23    2    1    2    0    0  0.56088014831E+03  0.17805538325E+03  0.94382662251E+03  0.11148028848E+04  0.75409007532E+02 0.  0.
         11    1    3    3    0    0  0.37063348838E+03  0.14157313656E+03  0.58172629446E+03  0.70414317960E+03  0.00000000000E+00 0.  1.
        -11    1    3    3    0    0  0.19024665993E+03  0.36482246689E+02  0.36210032804E+03  0.41065970524E+03  0.00000000000E+00 0. -1.
         22    1    1    2    0    0 -0.56088014831E+03 -0.17805538325E+03 -0.86408594504E+03  0.10454352111E+04  0.00000000000E+00 0. -1.
<mgrwt>
<rscale>  0 0.21587659E+04</rscale>
<asrwt>0</asrwt>
<pdfrwt beam="1">  1        2 0.16003826E+00 0.21587659E+04</pdfrwt>
<pdfrwt beam="2">  1       -2 0.17230606E+00 0.21587659E+04</pdfrwt>
<totfact> 0.44688560E+00</totfact>
</mgrwt>
</event>
<event>
 6    1  0.3235920E-005  0.2418606E+04  0.7818608E-02  0.8432570E-01
         -2   -1    0    0    0  501 -0.00000000000E+00  0.00000000000E+00  0.59748245878E+03  0.59748245878E+03  0.00000000000E+00 0.  1.
          2   -1    0    0  501    0  0.00000000000E+00 -0.00000000000E+00 -0.24476269223E+04  0.24476269223E+04  0.00000000000E+00 0. -1.
         23    2    1    2    0    0 -0.28749792562E+03 -0.11047605010E+04 -0.14234147389E+04  0.18264014260E+04  0.80509800535E+02 0.  0.
         13    1    3    3    0    0 -0.13685739725E+03 -0.43192008969E+03 -0.51467132770E+03  0.68569051810E+03  0.00000000000E+00 0.  1.
        -13    1    3    3    0    0 -0.15064052837E+03 -0.67284041136E+03 -0.90874341119E+03  0.11407109079E+04  0.00000000000E+00 0. -1.
         22    1    1    2    0    0  0.28749792562E+03  0.11047605010E+04 -0.42672972459E+03  0.12187079551E+04  0.00000000000E+00 0.  1.
<mgrwt>
<rscale>  0 0.24186063E+04</rscale>
<asrwt>0</asrwt>
<pdfrwt beam="1">  1        2 0.37655799E+00 0.24186063E+04</pdfrwt>
<pdfrwt beam="2">  1       -2 0.91920378E-01 0.24186063E+04</pdfrwt>
<totfact> 0.33722620E+00</totfact>
</mgrwt>
</event>
<event>
 6    1  0.1885829E-005  0.1236556E+04  0.7818608E-02  0.9081448E-01
         -2   -1    0    0    0  501 -0.00000000000E+00  0.00000000000E+00  0.84839292597E+03  0.84839292597E+03  0.00000000000E+00 0.  1.
          2   -1    0    0  501    0  0.00000000000E+00 -0.00000000000E+00 -0.45057840835E+03  0.45057840835E+03  0.00000000000E+00 0. -1.
         23    2    1    2    0    0 -0.82928225845E+02 -0.59258119190E+03  0.51631706841E+02  0.60768839795E+03  0.92681153460E+02 0.  0.
         13    1    3    3    0    0 -0.13241079544E+02 -0.34953354954E+03  0.59076651679E+02  0.35473804309E+03  0.00000000000E+00 0. -1.
        -13    1    3    3    0    0 -0.69687146301E+02 -0.24304764237E+03 -0.74449448379E+01  0.25295035486E+03  0.00000000000E+00 0.  1.
         22    1    1    2    0    0  0.82928225845E+02  0.59258119190E+03  0.34618281078E+03  0.69128293637E+03  0.00000000000E+00 0.  1.
<mgrwt>
<rscale>  0 0.12365558E+04</rscale>
<asrwt>0</asrwt>
<pdfrwt beam="1">  1        2 0.69319755E-01 0.12365558E+04</pdfrwt>
<pdfrwt beam="2">  1       -2 0.13052199E+00 0.12365558E+04</pdfrwt>
<totfact> 0.29371489E+01</totfact>
</mgrwt>
</event>
<event>
 6    1  0.1885829E-005  0.2210288E+04  0.7818608E-02  0.8514158E-01
          2   -1    0    0  501    0  0.00000000000E+00  0.00000000000E+00  0.74107350565E+03  0.74107350565E+03  0.00000000000E+00 0. -1.
         -2   -1    0    0    0  501 -0.00000000000E+00 -0.00000000000E+00 -0.16480726828E+04  0.16480726828E+04  0.00000000000E+00 0.  1.
         23    2    1    2    0    0  0.73681541285E+02 -0.26538888489E+03  0.69998138777E+03  0.75873312245E+03  0.99205736400E+02 0.  0.
         13    1    3    3    0    0 -0.73334396636E+01 -0.14039691907E+03  0.28410264409E+03  0.31698483655E+03  0.00000000000E+00 0.  1.
        -13    1    3    3    0    0  0.81014980949E+02 -0.12499196583E+03  0.41587874368E+03  0.44174828591E+03  0.00000000000E+00 0. -1.
         22    1    1    2    0    0 -0.73681541285E+02  0.26538888489E+03 -0.16069805649E+04  0.16304130660E+04  0.00000000000E+00 0.  1.
<mgrwt>
<rscale>  0 0.22102878E+04</rscale>
<asrwt>0</asrwt>
<pdfrwt beam="1">  1        2 0.11401131E+00 0.22102878E+04</pdfrwt>
<pdfrwt beam="2">  1       -2 0.25354965E+00 0.22102878E+04</pdfrwt>
<totfact> 0.21253370E+00</totfact>
</mgrwt>
</event>
<event>
 6    1  0.1885829E-005  0.2129615E+04  0.7818608E-02  0.8548309E-01
          2   -1    0    0  501    0  0.00000000000E+00  0.00000000000E+00  0.17895310742E+04  0.17895310742E+04  0.00000000000E+00 0. -1.
         -2   -1    0    0    0  501 -0.00000000000E+00 -0.00000000000E+00 -0.63358196624E+03  0.63358196624E+03  0.00000000000E+00 0.  1.
         23    2    1    2    0    0  0.37714104289E+03 -0.15042896206E+03 -0.53899609087E+03  0.68021216376E+03  0.85484284501E+02 0.  0.
         13    1    3    3    0    0  0.80066934739E+02 -0.40951633254E+02 -0.68226927586E+02  0.11288340867E+03  0.00000000000E+00 0.  1.
        -13    1    3    3    0    0  0.29707410815E+03 -0.10947732881E+03 -0.47076916329E+03  0.56732875509E+03  0.00000000000E+00 0. -1.
         22    1    1    2    0    0 -0.37714104289E+03  0.15042896206E+03  0.16949451988E+04  0.17429008767E+04  0.00000000000E+00 0. -1.
<mgrwt>
<rscale>  0 0.21296146E+04</rscale>
<asrwt>0</asrwt>
<pdfrwt beam="1">  1        2 0.27531247E+00 0.21296146E+04</pdfrwt>
<pdfrwt beam="2">  1       -2 0.97474149E-01 0.21296146E+04</pdfrwt>
<totfact> 0.70542829E+00</totfact>
</mgrwt>
</event>
<event>
 6    1  0.1885829E-005  0.2611309E+04  0.7818608E-02  0.8364370E-01
         -1   -1    0    0    0  501 -0.00000000000E+00  0.00000000000E+00  0.58819370260E+03  0.58819370260E+03  0.00000000000E+00 0.  1.
          1   -1    0    0  501    0  0.00000000000E+00 -0.00000000000E+00 -0.28982517729E+04  0.28982517729E+04  0.00000000000E+00 0. -1.
         23    2    1    2    0    0  0.82298076815E+03 -0.95339536286E+03 -0.70523104728E+03  0.14464136531E+04  0.92203921490E+02 0.  0.
         13    1    3    3    0    0  0.75950743218E+02 -0.90487556704E+02 -0.36780547012E+02  0.12373084479E+03  0.00000000000E+00 0. -1.
        -13    1    3    3    0    0  0.74703002493E+03 -0.86290780615E+03 -0.66845050027E+03  0.13226828083E+04  0.00000000000E+00 0.  1.
         22    1    1    2    0    0 -0.82298076815E+03  0.95339536286E+03 -0.16048270230E+04  0.20400318224E+04  0.00000000000E+00 0. -1.
<mgrwt>
<rscale>  0 0.26113088E+04</rscale>
<asrwt>0</asrwt>
<pdfrwt beam="1">  1        1 0.44588487E+00 0.26113088E+04</pdfrwt>
<pdfrwt beam="2">  1       -1 0.90491342E-01 0.26113088E+04</pdfrwt>
<totfact> 0.74379044E-01</totfact>
</mgrwt>
</event>
<event>
 6    1  0.1885829E-005  0.3662787E+04  0.7818608E-02  0.8076259E-01
          2   -1    0    0  501    0  0.00000000000E+00  0.00000000000E+00  0.17832105012E+04  0.17832105012E+04  0.00000000000E+00 0.  1.
         -2   -1    0    0    0  501 -0.00000000000E+00 -0.00000000000E+00 -0.18808785164E+04  0.18808785164E+04  0.00000000000E+00 0. -1.
         23    2    1    2    0    0 -0.75156506130E+03 -0.13207796363E+03 -0.17130269328E+04  0.18775619222E+04  0.92102493867E+02 0.  0.
         13    1    3    3    0    0 -0.28187522560E+03 -0.70537417102E+01 -0.59315958852E+03  0.65676608890E+03  0.00000000000E+00 0.  1.
        -13    1    3    3    0    0 -0.46968983570E+03 -0.12502422192E+03 -0.11198673443E+04  0.12207958333E+04  0.00000000000E+00 0. -1.
         22    1    1    2    0    0  0.75156506130E+03  0.13207796363E+03  0.16153589176E+04  0.17865270954E+04  0.00000000000E+00 0.  1.
<mgrwt>
<rscale>  0 0.36627871E+04</rscale>
<asrwt>0</asrwt>
<pdfrwt beam="1">  1        2 0.27434008E+00 0.36627871E+04</pdfrwt>
<pdfrwt beam="2">  1       -2 0.28936593E+00 0.36627871E+04</pdfrwt>
<totfact> 0.26390576E-01</totfact>
</mgrwt>
</event>
<event>
 6    1  0.1885829E-005  0.1390104E+04  0.7818608E-02  0.8961013E-01
          2   -1    0    0  501    0  0.00000000000E+00  0.00000000000E+00  0.29502248994E+03  0.29502248994E+03  0.00000000000E+00 0. -1.
         -2   -1    0    0    0  501 -0.00000000000E+00 -0.00000000000E+00 -0.16374928378E+04  0.16374928378E+04  0.00000000000E+00 0.  1.
         23    2    1    2    0    0 -0.29423559808E+03 -0.51727710963E+03 -0.18356579461E+03  0.62974521799E+03  0.93447543059E+02 0.  0.
         13    1    3    3    0    0 -0.33530959402E+02 -0.13686507826E+03 -0.51596030139E+02  0.15006173800E+03  0.00000000000E+00 0. -1.
        -13    1    3    3    0    0 -0.26070463868E+03 -0.38041203137E+03 -0.13196976447E+03  0.47968347999E+03  0.00000000000E+00 0.  1.
         22    1    1    2    0    0  0.29423559808E+03  0.51727710963E+03 -0.11589045533E+04  0.13027701098E+04  0.00000000000E+00 0.  1.
<mgrwt>
<rscale>  0 0.13901039E+04</rscale>
<asrwt>0</asrwt>
<pdfrwt beam="1">  1        2 0.45388076E-01 0.13901039E+04</pdfrwt>
<pdfrwt beam="2">  1       -2 0.25192197E+00 0.13901039E+04</pdfrwt>
<totfact> 0.68222562E+00</totfact>
</mgrwt>
</event>
<event>
 6    1  0.1885829E-005  0.1639192E+04  0.7818608E-02  0.8796826E-01
         -2   -1    0    0    0  501 -0.00000000000E+00  0.00000000000E+00  0.61691744479E+03  0.61691744479E+03  0.00000000000E+00 0.  1.
          2   -1    0    0  501    0  0.00000000000E+00 -0.00000000000E+00 -0.10888615503E+04  0.10888615503E+04  0.00000000000E+00 0. -1.
         23    2    1    2    0    0 -0.14150191041E+03 -0.44438649122E+01 -0.10741258148E+04  0.10871794885E+04  0.90390461739E+02 0.  0.
         13    1    3    3    0    0 -0.42712338678E+02  0.86906617668E+01 -0.65174343773E+03  0.65319934178E+03  0.00000000000E+00 0. -1.
        -13    1    3    3    0    0 -0.98789571728E+02 -0.13134526679E+02 -0.42238237709E+03  0.43398014673E+03  0.00000000000E+00 0.  1.
         22    1    1    2    0    0  0.14150191041E+03  0.44438649122E+01  0.60218170928E+03  0.61859950661E+03  0.00000000000E+00 0.  1.
<mgrwt>
<rscale>  0 0.16391921E+04</rscale>
<asrwt>0</asrwt>
<pdfrwt beam="1">  1        2 0.16751716E+00 0.16391921E+04</pdfrwt>
<pdfrwt beam="2">  1       -2 0.94910377E-01 0.16391921E+04</pdfrwt>
<totfact> 0.19770714E+01</totfact>
</mgrwt>
</event>
<event>
 6    1  0.1885829E-005  0.2034879E+04  0.7818608E-02  0.8590485E-01
         -2   -1    0    0    0  501 -0.00000000000E+00  0.00000000000E+00  0.63183340039E+03  0.63183340039E+03  0.00000000000E+00 0. -1.
          2   -1    0    0  501    0  0.00000000000E+00 -0.00000000000E+00 -0.16383794129E+04  0.16383794129E+04  0.00000000000E+00 0.  1.
         23    2    1    2    0    0  0.73402144641E+03 -0.69827237122E+03 -0.42785949440E+03  0.11034866781E+04  0.90814721680E+02 0.  0.
         13    1    3    3    0    0  0.23367446584E+03 -0.27000777984E+03 -0.12222008493E+03  0.37741980118E+03  0.00000000000E+00 0. -1.
        -13    1    3    3    0    0  0.50034698057E+03 -0.42826459138E+03 -0.30563940947E+03  0.72606687696E+03  0.00000000000E+00 0.  1.
         22    1    1    2    0    0 -0.73402144641E+03  0.69827237122E+03 -0.57868651809E+03  0.11667261351E+04  0.00000000000E+00 0.  1.
<mgrwt>
<rscale>  0 0.20348787E+04</rscale>
<asrwt>0</asrwt>
<pdfrwt beam="1">  1        2 0.25205837E+00 0.20348787E+04</pdfrwt>
<pdfrwt beam="2">  1       -2 0.97205139E-01 0.20348787E+04</pdfrwt>
<totfact> 0.86850485E+00</totfact>
</mgrwt>
</event>
<event>
 6    1  0.1885829E-005  0.1819952E+04  0.7818608E-02  0.8695760E-01
          2   -1    0    0  501    0  0.00000000000E+00  0.00000000000E+00  0.97671669618E+03  0.97671669618E+03  0.00000000000E+00 0. -1.
         -2   -1    0    0    0  501 -0.00000000000E+00 -0.00000000000E+00 -0.84779610680E+03  0.84779610680E+03  0.00000000000E+00 0.  1.
         23    2    1    2    0    0  0.33501093330E+03 -0.84397449998E+03  0.39709842817E+02  0.91210727947E+03  0.76403766952E+02 0.  0.
         11    1    3    3    0    0  0.14799978896E+03 -0.43767523048E+03 -0.96343946355E+01  0.46212159273E+03  0.00000000000E+00 0. -1.
        -11    1    3    3    0    0  0.18701114433E+03 -0.40629926950E+03  0.49344237453E+02  0.44998568674E+03  0.00000000000E+00 0.  1.
         22    1    1    2    0    0 -0.33501093330E+03  0.84397449998E+03  0.89210746562E+02  0.91240552352E+03  0.00000000000E+00 0. -1.
<mgrwt>
<rscale>  0 0.18199523E+04</rscale>
<asrwt>0</asrwt>
<pdfrwt beam="1">  1        2 0.15026411E+00 0.18199523E+04</pdfrwt>
<pdfrwt beam="2">  1       -2 0.13043017E+00 0.18199523E+04</pdfrwt>
<totfact> 0.10585891E+01</totfact>
</mgrwt>
</event>
<event>
 6    1  0.1885829E-005  0.5282778E+03  0.7818608E-02  0.1006651E+00
         -2   -1    0    0    0  501 -0.00000000000E+00  0.00000000000E+00  0.16188636436E+03  0.16188636436E+03  0.00000000000E+00 0.  1.
          2   -1    0    0  501    0  0.00000000000E+00 -0.00000000000E+00 -0.43097732228E+03  0.43097732228E+03  0.00000000000E+00 0. -1.
         23    2    1    2    0    0 -0.14731877319E+03 -0.14884130312E+02  0.94862501252E+02  0.19994323832E+03  0.95152751606E+02 0.  0.
         13    1    3    3    0    0 -0.82571408125E+02  0.38641414554E+02  0.39639264645E+02  0.99410601347E+02  0.00000000000E+00 0. -1.
        -13    1    3    3    0    0 -0.64747365063E+02 -0.53525544866E+02  0.55223236607E+02  0.10053263698E+03  0.00000000000E+00 0.  1.
         22    1    1    2    0    0  0.14731877319E+03  0.14884130312E+02 -0.36395345917E+03  0.39292044832E+03  0.00000000000E+00 0. -1.
<mgrwt>
<rscale>  0 0.52827777E+03</rscale>
<asrwt>0</asrwt>
<pdfrwt beam="1">  1        2 0.66304203E-01 0.52827777E+03</pdfrwt>
<pdfrwt beam="2">  1       -2 0.24905595E-01 0.52827777E+03</pdfrwt>
<totfact> 0.10565001E+03</totfact>
</mgrwt>
</event>
<event>
 6    1  0.2444008E-005  0.3753109E+04  0.7818608E-02  0.8056293E-01
         -2   -1    0    0    0  501 -0.00000000000E+00  0.00000000000E+00  0.10378578115E+04  0.10378578115E+04  0.00000000000E+00 0.  1.
          2   -1    0    0  501    0  0.00000000000E+00 -0.00000000000E+00 -0.33930043189E+04  0.33930043189E+04  0.00000000000E+00 0. -1.
         23    2    1    2    0    0  0.91388416598E+02 -0.18998619055E+03 -0.33784566913E+04  0.33860605570E+04  0.83605533633E+02 0.  0.
         11    1    3    3    0    0  0.94783290054E+02 -0.10661267067E+03 -0.20006161179E+04  0.20056956362E+04  0.00000000000E+00 0. -1.
        -11    1    3    3    0    0 -0.33948734555E+01 -0.83373519882E+02 -0.13778405734E+04  0.13803649209E+04  0.00000000000E+00 0.  1.
         22    1    1    2    0    0 -0.91388416598E+02  0.18998619055E+03  0.10233101839E+04  0.10448015734E+04  0.00000000000E+00 0.  1.
<mgrwt>
<rscale>  0 0.37531086E+04</rscale>
<asrwt>0</asrwt>
<pdfrwt beam="1">  1        2 0.52200067E+00 0.37531086E+04</pdfrwt>
<pdfrwt beam="2">  1       -2 0.15967043E+00 0.37531086E+04</pdfrwt>
<totfact> 0.19624678E-01</totfact>
</mgrwt>
</event>
<event>
 6    1  0.1885829E-005  0.1304269E+04  0.7818608E-02  0.9026186E-01
         -2   -1    0    0    0  501 -0.00000000000E+00  0.00000000000E+00  0.55363078593E+03  0.55363078593E+03  0.00000000000E+00 0.  1.
          2   -1    0    0  501    0  0.00000000000E+00 -0.00000000000E+00 -0.76816467577E+03  0.76816467577E+03  0.00000000000E+00 0. -1.
         23    2    1    2    0    0  0.84467689722E+02 -0.23659593939E+03 -0.71411799768E+03  0.76260255228E+03  0.92117908082E+02 0.  0.
         13    1    3    3    0    0  0.48680309310E+02 -0.16182355849E+03 -0.58703228262E+03  0.61087112998E+03  0.00000000000E+00 0. -1.
        -13    1    3    3    0    0  0.35787380411E+02 -0.74772380903E+02 -0.12708571505E+03  0.15173142230E+03  0.00000000000E+00 0.  1.
         22    1    1    2    0    0 -0.84467689722E+02  0.23659593939E+03  0.49958410784E+03  0.55919290943E+03  0.00000000000E+00 0.  1.
<mgrwt>
<rscale>  0 0.13042693E+04</rscale>
<asrwt>0</asrwt>
<pdfrwt beam="1">  1        2 0.11817918E+00 0.13042693E+04</pdfrwt>
<pdfrwt beam="2">  1       -2 0.85173967E-01 0.13042693E+04</pdfrwt>
<totfact> 0.42731205E+01</totfact>
</mgrwt>
</event>
<event>
 6    1  0.1885829E-005  0.1044255E+04  0.7818608E-02  0.9261296E-01
         -2   -1    0    0    0  501 -0.00000000000E+00  0.00000000000E+00  0.89924366944E+03  0.89924366944E+03  0.00000000000E+00 0.  1.
          2   -1    0    0  501    0  0.00000000000E+00 -0.00000000000E+00 -0.30316241228E+03  0.30316241228E+03  0.00000000000E+00 0. -1.
         23    2    1    2    0    0  0.38235122218E+02  0.18573826306E+03 -0.25460816937E+03  0.33083673432E+03  0.93096712776E+02 0.  0.
         13    1    3    3    0    0 -0.22480887664E+02  0.11779855624E+03 -0.13731779860E+03  0.18231310423E+03  0.00000000000E+00 0.  1.
        -13    1    3    3    0    0  0.60716009883E+02  0.67939706820E+02 -0.11729037077E+03  0.14852363008E+03  0.00000000000E+00 0. -1.
         22    1    1    2    0    0 -0.38235122218E+02 -0.18573826306E+03  0.85068942652E+03  0.87156934740E+03  0.00000000000E+00 0.  1.
<mgrwt>
<rscale>  0 0.10442545E+04</rscale>
<asrwt>0</asrwt>
<pdfrwt beam="1">  1        2 0.46640372E-01 0.10442545E+04</pdfrwt>
<pdfrwt beam="2">  1       -2 0.13834518E+00 0.10442545E+04</pdfrwt>
<totfact> 0.40000605E+01</totfact>
</mgrwt>
</event>
<event>
 6    1  0.1885829E-005  0.1053065E+04  0.7818608E-02  0.9252185E-01
         -2   -1    0    0    0  501 -0.00000000000E+00  0.00000000000E+00  0.27550091707E+03  0.27550091707E+03  0.00000000000E+00 0.  1.
          2   -1    0    0  501    0  0.00000000000E+00 -0.00000000000E+00 -0.10063002922E+04  0.10063002922E+04  0.00000000000E+00 0. -1.
         23    2    1    2    0    0 -0.23132819883E+03 -0.43157929240E+03 -0.59027213321E+03  0.77236885174E+03  0.91427734783E+02 0.  0.
         11    1    3    3    0    0 -0.13687178688E+03 -0.17442801642E+03 -0.22621850496E+03  0.31675515930E+03  0.00000000000E+00 0. -1.
        -11    1    3    3    0    0 -0.94456411952E+02 -0.25715127598E+03 -0.36405362824E+03  0.45561369243E+03  0.00000000000E+00 0.  1.
         22    1    1    2    0    0  0.23132819883E+03  0.43157929240E+03 -0.14052724197E+03  0.50943235757E+03  0.00000000000E+00 0.  1.
<mgrwt>
<rscale>  0 0.10530653E+04</rscale>
<asrwt>0</asrwt>
<pdfrwt beam="1">  1        2 0.15481543E+00 0.10530653E+04</pdfrwt>
<pdfrwt beam="2">  1       -2 0.42384757E-01 0.10530653E+04</pdfrwt>
<totfact> 0.13099739E+02</totfact>
</mgrwt>
</event>
<event>
 6    1  0.1885829E-005  0.1161091E+04  0.7818608E-02  0.9147612E-01
         -2   -1    0    0    0  501 -0.00000000000E+00  0.00000000000E+00  0.40730718574E+03  0.40730718574E+03  0.00000000000E+00 0.  1.
          2   -1    0    0  501    0  0.00000000000E+00 -0.00000000000E+00 -0.82746697227E+03  0.82746697227E+03  0.00000000000E+00 0. -1.
         23    2    1    2    0    0  0.15743861075E+02  0.52383912277E+03 -0.47034225148E+03  0.70830138997E+03  0.76247818291E+02 0.  0.
         11    1    3    3    0    0  0.46270309222E+02  0.30927019037E+03 -0.28610889460E+03  0.42384819421E+03  0.00000000000E+00 0.  1.
        -11    1    3    3    0    0 -0.30526448146E+02  0.21456893240E+03 -0.18423335689E+03  0.28445319576E+03  0.00000000000E+00 0. -1.
         22    1    1    2    0    0 -0.15743861075E+02 -0.52383912277E+03  0.50182464957E+02  0.52647276804E+03  0.00000000000E+00 0.  1.
<mgrwt>
<rscale>  0 0.11610913E+04</rscale>
<asrwt>0</asrwt>
<pdfrwt beam="1">  1        2 0.12730261E+00 0.11610913E+04</pdfrwt>
<pdfrwt beam="2">  1       -2 0.62662645E-01 0.11610913E+04</pdfrwt>
<totfact> 0.76926279E+01</totfact>
</mgrwt>
</event>
<event>
 6    1  0.1885829E-005  0.1627515E+04  0.7818608E-02  0.8803821E-01
          2   -1    0    0  501    0  0.00000000000E+00  0.00000000000E+00  0.77520066569E+03  0.77520066569E+03  0.00000000000E+00 0.  1.
         -2   -1    0    0    0  501 -0.00000000000E+00 -0.00000000000E+00 -0.85423209798E+03  0.85423209798E+03  0.00000000000E+00 0. -1.
         23    2    1    2    0    0  0.38629346127E+03  0.38470555040E+03  0.56290003346E+03  0.78723504018E+03  0.75243352429E+02 0.  0.
         13    1    3    3    0    0  0.17988940481E+03  0.14934371443E+03  0.28503460392E+03  0.36865765750E+03  0.00000000000E+00 0. -1.
        -13    1    3    3    0    0  0.20640405646E+03  0.23536183597E+03  0.27786542954E+03  0.41857738268E+03  0.00000000000E+00 0.  1.
         22    1    1    2    0    0 -0.38629346127E+03 -0.38470555040E+03 -0.64193146575E+03  0.84219772349E+03  0.00000000000E+00 0. -1.
<mgrwt>
<rscale>  0 0.16275150E+04</rscale>
<asrwt>0</asrwt>
<pdfrwt beam="1">  1        2 0.11926164E+00 0.16275150E+04</pdfrwt>
<pdfrwt beam="2">  1       -2 0.13142032E+00 0.16275150E+04</pdfrwt>
<totfact> 0.14515949E+01</totfact>
</mgrwt>
</event>
<event>
 6    1  0.1885829E-005  0.4065110E+04  0.7818608E-02  0.7991539E-01
          2   -1    0    0  501    0  0.00000000000E+00  0.00000000000E+00  0.42126406478E+04  0.42126406478E+04  0.00000000000E+00 0.  1.
         -2   -1    0    0    0  501 -0.00000000000E+00 -0.00000000000E+00 -0.98068626352E+03  0.98068626352E+03  0.00000000000E+00 0. -1.
         23    2    1    2    0    0 -0.46200086866E+03  0.85066130654E+03 -0.66497179453E+03  0.11779685084E+04  0.91393971871E+02 0.  0.
         11    1    3    3    0    0 -0.24892087367E+03  0.36305232472E+03 -0.30266190193E+03  0.53420297521E+03  0.00000000000E+00 0.  1.
        -11    1    3    3    0    0 -0.21307999499E+03  0.48760898182E+03 -0.36230989260E+03  0.64376553316E+03  0.00000000000E+00 0. -1.
         22    1    1    2    0    0  0.46200086866E+03 -0.85066130654E+03  0.38969261788E+04  0.40153584030E+04  0.00000000000E+00 0.  1.
<mgrwt>
<rscale>  0 0.40651095E+04</rscale>
<asrwt>0</asrwt>
<pdfrwt beam="1">  1        2 0.64809855E+00 0.40651095E+04</pdfrwt>
<pdfrwt beam="2">  1       -2 0.15087481E+00 0.40651095E+04</pdfrwt>
<totfact> 0.52225828E-02</totfact>
</mgrwt>
</event>
<event>
 6    1  0.1885829E-005  0.1512638E+04  0.7818608E-02  0.8876092E-01
          1   -1    0    0  501    0  0.00000000000E+00  0.00000000000E+00  0.12202707277E+04  0.12202707277E+04  0.00000000000E+00 0. -1.
         -1   -1    0    0    0  501 -0.00000000000E+00 -0.00000000000E+00 -0.46876369397E+03  0.46876369397E+03  0.00000000000E+00 0.  1.
         23    2    1    2    0    0  0.33950272722E+03  0.60560313038E+03  0.70417439843E+03  0.99314820135E+03  0.92002788699E+02 0.  0.
         11    1    3    3    0    0  0.15119369120E+03  0.23855827597E+03  0.22683625775E+03  0.36224890769E+03  0.00000000000E+00 0. -1.
        -11    1    3    3    0    0  0.18830903602E+03  0.36704485440E+03  0.47733814068E+03  0.63089929366E+03  0.00000000000E+00 0.  1.
         22    1    1    2    0    0 -0.33950272722E+03 -0.60560313038E+03  0.47332635346E+02  0.69588622036E+03  0.00000000000E+00 0.  1.
<mgrwt>
<rscale>  0 0.15126382E+04</rscale>
<asrwt>0</asrwt>
<pdfrwt beam="1">  1        1 0.18773396E+00 0.15126382E+04</pdfrwt>
<pdfrwt beam="2">  1       -1 0.72117492E-01 0.15126382E+04</pdfrwt>
<totfact> 0.19363096E+01</totfact>
</mgrwt>
</event>
<event>
 6    1  0.1885829E-005  0.2540323E+04  0.7818608E-02  0.8388759E-01
         -2   -1    0    0    0  501 -0.00000000000E+00  0.00000000000E+00  0.48259526229E+03  0.48259526229E+03  0.00000000000E+00 0.  1.
          2   -1    0    0  501    0  0.00000000000E+00 -0.00000000000E+00 -0.33429891163E+04  0.33429891163E+04  0.00000000000E+00 0. -1.
         23    2    1    2    0    0 -0.66155003486E+03 -0.89782645892E+03 -0.52167743841E+03  0.12345739055E+04  0.91019665368E+02 0.  0.
         11    1    3    3    0    0 -0.23618983575E+03 -0.26256899169E+03 -0.13786837219E+03  0.37912504792E+03  0.00000000000E+00 0.  1.
        -11    1    3    3    0    0 -0.42536019911E+03 -0.63525746724E+03 -0.38380906622E+03  0.85544885760E+03  0.00000000000E+00 0. -1.
         22    1    1    2    0    0  0.66155003486E+03  0.89782645892E+03 -0.23387164156E+04  0.25910104731E+04  0.00000000000E+00 0. -1.
<mgrwt>
<rscale>  0 0.25403234E+04</rscale>
<asrwt>0</asrwt>
<pdfrwt beam="1">  1        2 0.51430602E+00 0.25403234E+04</pdfrwt>
<pdfrwt beam="2">  1       -2 0.74245424E-01 0.25403234E+04</pdfrwt>
<totfact> 0.15139727E+00</totfact>
</mgrwt>
</event>
<event>
 6    1  0.1885829E-005  0.6365265E+03  0.7818608E-02  0.9832395E-01
         -2   -1    0    0    0  501 -0.00000000000E+00  0.00000000000E+00  0.44159090272E+02  0.44159090272E+02  0.00000000000E+00 0.  1.
          2   -1    0    0  501    0  0.00000000000E+00 -0.00000000000E+00 -0.22937858080E+04  0.22937858080E+04  0.00000000000E+00 0. -1.
         23    2    1    2    0    0 -0.24268342209E+03 -0.10756881799E+03 -0.17484607022E+04  0.17708173384E+04  0.90625190472E+02 0.  0.
         11    1    3    3    0    0 -0.11000522515E+03 -0.93797014166E+02 -0.10275811760E+04  0.10377003916E+04  0.00000000000E+00 0. -1.
        -11    1    3    3    0    0 -0.13267819694E+03 -0.13771803829E+02 -0.72087952613E+03  0.73311694682E+03  0.00000000000E+00 0.  1.
         22    1    1    2    0    0  0.24268342209E+03  0.10756881799E+03 -0.50116601554E+03  0.56712755981E+03  0.00000000000E+00 0.  1.
<mgrwt>
<rscale>  0 0.63652649E+03</rscale>
<asrwt>0</asrwt>
<pdfrwt beam="1">  1        2 0.35289014E+00 0.63652649E+03</pdfrwt>
<pdfrwt beam="2">  1       -2 0.67937059E-02 0.63652649E+03</pdfrwt>
<totfact> 0.60715795E+02</totfact>
</mgrwt>
</event>
<event>
 6    1  0.1885829E-005  0.3412772E+04  0.7818608E-02  0.8134779E-01
         -1   -1    0    0    0  501 -0.00000000000E+00  0.00000000000E+00  0.15573075715E+04  0.15573075715E+04  0.00000000000E+00 0.  1.
          1   -1    0    0  501    0  0.00000000000E+00 -0.00000000000E+00 -0.18697349505E+04  0.18697349505E+04  0.00000000000E+00 0. -1.
         23    2    1    2    0    0 -0.81955033174E+03 -0.15749289578E+03  0.13368862020E+04  0.15786102005E+04  0.90987304292E+02 0.  0.
         13    1    3    3    0    0 -0.64673581783E+03 -0.11368651642E+03  0.97977194317E+03  0.11794680592E+04  0.00000000000E+00 0. -1.
        -13    1    3    3    0    0 -0.17281451391E+03 -0.43806379366E+02  0.35711425882E+03  0.39914214128E+03  0.00000000000E+00 0.  1.
         22    1    1    2    0    0  0.81955033174E+03  0.15749289578E+03 -0.16493135810E+04  0.18484323214E+04  0.00000000000E+00 0. -1.
<mgrwt>
<rscale>  0 0.34127715E+04</rscale>
<asrwt>0</asrwt>
<pdfrwt beam="1">  1        1 0.28765153E+00 0.34127715E+04</pdfrwt>
<pdfrwt beam="2">  1       -1 0.23958578E+00 0.34127715E+04</pdfrwt>
<totfact> 0.24493342E-01</totfact>
</mgrwt>
</event>
<event>
 6    1  0.1885829E-005  0.1676386E+04  0.7818608E-02  0.8774948E-01
         -2   -1    0    0    0  501 -0.00000000000E+00  0.00000000000E+00  0.51381337536E+03  0.51381337536E+03  0.00000000000E+00 0. -1.
          2   -1    0    0  501    0  0.00000000000E+00 -0.00000000000E+00 -0.13673588950E+04  0.13673588950E+04  0.00000000000E+00 0.  1.
         23    2    1    2    0    0  0.61240527988E+02 -0.32175486387E+03 -0.12908369330E+04  0.13348203922E+04  0.90602964141E+02 0.  0.
         13    1    3    3    0    0  0.13241216828E+02 -0.20883131718E+03 -0.66780978869E+03  0.69982552306E+03  0.00000000000E+00 0.  1.
        -13    1    3    3    0    0  0.47999311160E+02 -0.11292354668E+03 -0.62302714429E+03  0.63499486911E+03  0.00000000000E+00 0. -1.
         22    1    1    2    0    0 -0.61240527988E+02  0.32175486387E+03  0.43729141330E+03  0.54635187822E+03  0.00000000000E+00 0. -1.
<mgrwt>
<rscale>  0 0.16763857E+04</rscale>
<asrwt>0</asrwt>
<pdfrwt beam="1">  1        2 0.21036290E+00 0.16763857E+04</pdfrwt>
<pdfrwt beam="2">  1       -2 0.79048214E-01 0.16763857E+04</pdfrwt>
<totfact> 0.20454081E+01</totfact>
</mgrwt>
</event>
<event>
 6    1  0.1885829E-005  0.9767497E+03  0.7818608E-02  0.9334419E-01
         -2   -1    0    0    0  501 -0.00000000000E+00  0.00000000000E+00  0.16136840406E+03  0.16136840406E+03  0.00000000000E+00 0.  1.
          2   -1    0    0  501    0  0.00000000000E+00 -0.00000000000E+00 -0.14780463998E+04  0.14780463998E+04  0.00000000000E+00 0. -1.
         23    2    1    2    0    0  0.29475020371E+03  0.37987015058E+03 -0.56660012333E+03  0.74846260056E+03  0.89339525361E+02 0.  0.
         13    1    3    3    0    0  0.19093314271E+03  0.26052287681E+03 -0.44015832838E+03  0.54595511570E+03  0.00000000000E+00 0. -1.
        -13    1    3    3    0    0  0.10381706100E+03  0.11934727377E+03 -0.12644179496E+03  0.20250748486E+03  0.00000000000E+00 0.  1.
         22    1    1    2    0    0 -0.29475020371E+03 -0.37987015058E+03 -0.75007787240E+03  0.89095220330E+03  0.00000000000E+00 0.  1.
<mgrwt>
<rscale>  0 0.97674969E+03</rscale>
<asrwt>0</asrwt>
<pdfrwt beam="1">  1        2 0.22739175E+00 0.97674969E+03</pdfrwt>
<pdfrwt beam="2">  1       -2 0.24825909E-01 0.97674969E+03</pdfrwt>
<totfact> 0.18952655E+02</totfact>
</mgrwt>
</event>
<event>
 6    1  0.1885829E-005  0.1920601E+04  0.7818608E-02  0.8644669E-01
         -2   -1    0    0    0  501 -0.00000000000E+00  0.00000000000E+00  0.38837454685E+03  0.38837454685E+03  0.00000000000E+00 0.  1.
          2   -1    0    0  501    0  0.00000000000E+00 -0.00000000000E+00 -0.23744530596E+04  0.23744530596E+04  0.00000000000E+00 0. -1.
         23    2    1    2    0    0  0.79766453885E+03  0.50576753140E+03 -0.12276506822E+04  0.15515133258E+04  0.89430924621E+02 0.  0.
         11    1    3    3    0    0  0.33093079532E+03  0.18990293118E+03 -0.56278224340E+03  0.67992806093E+03  0.00000000000E+00 0.  1.
        -11    1    3    3    0    0  0.46673374353E+03  0.31586460023E+03 -0.66486843884E+03  0.87158526490E+03  0.00000000000E+00 0. -1.
         22    1    1    2    0    0 -0.79766453885E+03 -0.50576753140E+03 -0.75842783055E+03  0.12113142807E+04  0.00000000000E+00 0. -1.
<mgrwt>
<rscale>  0 0.19206011E+04</rscale>
<asrwt>0</asrwt>
<pdfrwt beam="1">  1        2 0.36530047E+00 0.19206011E+04</pdfrwt>
<pdfrwt beam="2">  1       -2 0.59749930E-01 0.19206011E+04</pdfrwt>
<totfact> 0.10049886E+01</totfact>
</mgrwt>
</event>
<event>
 6    1  0.1885829E-005  0.2637416E+04  0.7818608E-02  0.8355602E-01
          2   -1    0    0  501    0  0.00000000000E+00  0.00000000000E+00  0.15374324072E+04  0.15374324072E+04  0.00000000000E+00 0. -1.
         -2   -1    0    0    0  501 -0.00000000000E+00 -0.00000000000E+00 -0.11311006512E+04  0.11311006512E+04  0.00000000000E+00 0.  1.
         23    2    1    2    0    0 -0.10335606597E+04 -0.42123306483E+03  0.91109974570E+03  0.14435940169E+04  0.90421274676E+02 0.  0.
         11    1    3    3    0    0 -0.61840907114E+02 -0.38832585049E+02  0.37398103838E+02  0.82041974775E+02  0.00000000000E+00 0.  1.
        -11    1    3    3    0    0 -0.97171975255E+03 -0.38240047978E+03  0.87370164187E+03  0.13615520421E+04  0.00000000000E+00 0. -1.
         22    1    1    2    0    0  0.10335606597E+04  0.42123306483E+03 -0.50476798969E+03  0.12249390416E+04  0.00000000000E+00 0. -1.
<mgrwt>
<rscale>  0 0.26374160E+04</rscale>
<asrwt>0</asrwt>
<pdfrwt beam="1">  1        2 0.23652806E+00 0.26374160E+04</pdfrwt>
<pdfrwt beam="2">  1       -2 0.17401548E+00 0.26374160E+04</pdfrwt>
<totfact> 0.21289904E+00</totfact>
</mgrwt>
</event>
<event>
 6    1  0.1885829E-005  0.1534193E+04  0.7818608E-02  0.8862028E-01
          1   -1    0    0  501    0  0.00000000000E+00  0.00000000000E+00  0.38371897439E+04  0.38371897439E+04  0.00000000000E+00 0. -1.
         -1   -1    0    0    0  501 -0.00000000000E+00 -0.00000000000E+00 -0.15335096151E+03  0.15335096151E+03  0.00000000000E+00 0.  1.
         23    2    1    2    0    0 -0.37141970447E+03 -0.44116185376E+03  0.54365031588E+03  0.79783652504E+03  0.91711922074E+02 0.  0.
         11    1    3    3    0    0 -0.12474591297E+03 -0.87394193259E+02  0.12988645191E+03  0.20017436951E+03  0.00000000000E+00 0. -1.
        -11    1    3    3    0    0 -0.24667379151E+03 -0.35376766050E+03  0.41376386397E+03  0.59766215553E+03  0.00000000000E+00 0.  1.
         22    1    1    2    0    0  0.37141970447E+03  0.44116185376E+03  0.31401884665E+04  0.31927041804E+04  0.00000000000E+00 0. -1.
<mgrwt>
<rscale>  0 0.15341926E+04</rscale>
<asrwt>0</asrwt>
<pdfrwt beam="1">  1        1 0.59033681E+00 0.15341926E+04</pdfrwt>
<pdfrwt beam="2">  1       -1 0.23592459E-01 0.15341926E+04</pdfrwt>
<totfact> 0.20099196E+00</totfact>
</mgrwt>
</event>
<event>
 6    1  0.1885829E-005  0.5028953E+04  0.7818608E-02  0.7824056E-01
         -2   -1    0    0    0  501 -0.00000000000E+00  0.00000000000E+00  0.20247723319E+04  0.20247723319E+04  0.00000000000E+00 0.  1.
          2   -1    0    0  501    0  0.00000000000E+00 -0.00000000000E+00 -0.31226193196E+04  0.31226193196E+04  0.00000000000E+00 0. -1.
         23    2    1    2    0    0  0.18461078165E+04  0.54868076042E+03 -0.22024431178E+04  0.29271895756E+04  0.92295600358E+02 0.  0.
         11    1    3    3    0    0  0.71294099372E+03  0.16531999197E+03 -0.84142288450E+03  0.11151717495E+04  0.00000000000E+00 0. -1.
        -11    1    3    3    0    0  0.11331668228E+04  0.38336076845E+03 -0.13610202332E+04  0.18120178262E+04  0.00000000000E+00 0.  1.
         22    1    1    2    0    0 -0.18461078165E+04 -0.54868076042E+03  0.11045961301E+04  0.22202020759E+04  0.00000000000E+00 0.  1.
<mgrwt>
<rscale>  0 0.50289535E+04</rscale>
<asrwt>0</asrwt>
<pdfrwt beam="1">  1        2 0.48040297E+00 0.50289535E+04</pdfrwt>
<pdfrwt beam="2">  1       -2 0.31150344E+00 0.50289535E+04</pdfrwt>
<totfact> 0.28536254E-02</totfact>
</mgrwt>
</event>
<event>
 6    1  0.1885829E-005  0.1783383E+04  0.7818608E-02  0.8715186E-01
         -2   -1    0    0    0  501 -0.00000000000E+00  0.00000000000E+00  0.48429690120E+03  0.48429690120E+03  0.00000000000E+00 0.  1.
          2   -1    0    0  501    0  0.00000000000E+00 -0.00000000000E+00 -0.16417902940E+04  0.16417902940E+04  0.00000000000E+00 0. -1.
         23    2    1    2    0    0 -0.92157832718E+02  0.36035811302E+03 -0.15432837608E+04  0.15901905225E+04  0.92898308560E+02 0.  0.
         13    1    3    3    0    0 -0.11412706622E+02  0.11413789838E+03 -0.32482874062E+03  0.34448718475E+03  0.00000000000E+00 0. -1.
        -13    1    3    3    0    0 -0.80745126096E+02  0.24622021464E+03 -0.12184550202E+04  0.12457033378E+04  0.00000000000E+00 0.  1.
         22    1    1    2    0    0  0.92157832718E+02 -0.36035811302E+03  0.38579036802E+03  0.53589667270E+03  0.00000000000E+00 0.  1.
<mgrwt>
<rscale>  0 0.17833832E+04</rscale>
<asrwt>0</asrwt>
<pdfrwt beam="1">  1        2 0.25258312E+00 0.17833832E+04</pdfrwt>
<pdfrwt beam="2">  1       -2 0.74507215E-01 0.17833832E+04</pdfrwt>
<totfact> 0.16185569E+01</totfact>
</mgrwt>
</event>
<event>
 6    1  0.1885829E-005  0.2168974E+04  0.7818608E-02  0.8531454E-01
         -2   -1    0    0    0  501 -0.00000000000E+00  0.00000000000E+00  0.23350352723E+04  0.23350352723E+04  0.00000000000E+00 0.  1.
          2   -1    0    0  501    0  0.00000000000E+00 -0.00000000000E+00 -0.50368055349E+03  0.50368055349E+03  0.00000000000E+00 0. -1.
         23    2    1    2    0    0 -0.55996724749E+03  0.67478628237E+03  0.90113446119E+02  0.88914638233E+03  0.11645175356E+03 0.  0.
         11    1    3    3    0    0 -0.39455809458E+03  0.55123146445E+03  0.77443585035E+02  0.68229738843E+03  0.00000000000E+00 0. -1.
        -11    1    3    3    0    0 -0.16540915291E+03  0.12355481792E+03  0.12669861084E+02  0.20684899391E+03  0.00000000000E+00 0.  1.
         22    1    1    2    0    0  0.55996724749E+03 -0.67478628237E+03  0.17412412727E+04  0.19495694435E+04  0.00000000000E+00 0.  1.
<mgrwt>
<rscale>  0 0.21689738E+04</rscale>
<asrwt>0</asrwt>
<pdfrwt beam="1">  1        2 0.77489317E-01 0.21689738E+04</pdfrwt>
<pdfrwt beam="2">  1       -2 0.35923619E+00 0.21689738E+04</pdfrwt>
<totfact> 0.76210917E-01</totfact>
</mgrwt>
</event>
<event>
 6    1  0.1885829E-005  0.2562910E+04  0.7818608E-02  0.8380910E-01
         -2   -1    0    0    0  501 -0.00000000000E+00  0.00000000000E+00  0.20269674510E+04  0.20269674510E+04  0.00000000000E+00 0.  1.
          2   -1    0    0  501    0  0.00000000000E+00 -0.00000000000E+00 -0.81013992461E+03  0.81013992461E+03  0.00000000000E+00 0. -1.
         23    2    1    2    0    0 -0.61593698682E+03  0.67823450788E+03  0.15990993678E+04  0.18443777145E+04  0.72318366023E+02 0.  0.
         11    1    3    3    0    0 -0.15055142796E+03  0.21144462900E+03  0.43038035091E+03  0.50259507563E+03  0.00000000000E+00 0. -1.
        -11    1    3    3    0    0 -0.46538555886E+03  0.46678987888E+03  0.11687190169E+04  0.13417826388E+04  0.00000000000E+00 0.  1.
         22    1    1    2    0    0  0.61593698682E+03 -0.67823450788E+03 -0.38227184141E+03  0.99272966116E+03  0.00000000000E+00 0. -1.
<mgrwt>
<rscale>  0 0.25629103E+04</rscale>
<asrwt>0</asrwt>
<pdfrwt beam="1">  1        2 0.12463691E+00 0.25629103E+04</pdfrwt>
<pdfrwt beam="2">  1       -2 0.31184115E+00 0.25629103E+04</pdfrwt>
<totfact> 0.80812181E-01</totfact>
</mgrwt>
</event>
<event>
 6    1  0.1885829E-005  0.4260975E+03  0.7818608E-02  0.1035100E+00
          1   -1    0    0  501    0  0.00000000000E+00  0.00000000000E+00  0.65018821275E+03  0.65018821275E+03  0.00000000000E+00 0. -1.
         -1   -1    0    0    0  501 -0.00000000000E+00 -0.00000000000E+00 -0.69810200586E+02  0.69810200586E+02  0.00000000000E+00 0.  1.
         23    2    1    2    0    0 -0.12831896542E+03  0.15385570743E+03  0.36254021062E+03  0.42404124856E+03  0.90764754013E+02 0.  0.
         11    1    3    3    0    0 -0.25243840417E+02  0.21223242061E+02  0.11579871787E+02  0.34953839749E+02  0.00000000000E+00 0. -1.
        -11    1    3    3    0    0 -0.10307512501E+03  0.13263246537E+03  0.35096033883E+03  0.38908740882E+03  0.00000000000E+00 0.  1.
         22    1    1    2    0    0  0.12831896542E+03 -0.15385570743E+03  0.21783780154E+03  0.29595716477E+03  0.00000000000E+00 0.  1.
<mgrwt>
<rscale>  0 0.42609750E+03</rscale>
<asrwt>0</asrwt>
<pdfrwt beam="1">  1        1 0.10002895E+00 0.42609750E+03</pdfrwt>
<pdfrwt beam="2">  1       -1 0.10740031E-01 0.42609750E+03</pdfrwt>
<totfact> 0.17160914E+03</totfact>
</mgrwt>
</event>
<event>
 6    1  0.1885829E-005  0.2320881E+04  0.7818608E-02  0.8469733E-01
         -2   -1    0    0    0  501 -0.00000000000E+00  0.00000000000E+00  0.72058611282E+03  0.72058611282E+03  0.00000000000E+00 0.  1.
          2   -1    0    0  501    0  0.00000000000E+00 -0.00000000000E+00 -0.18687877183E+04  0.18687877183E+04  0.00000000000E+00 0. -1.
         23    2    1    2    0    0 -0.61894735375E+03  0.27075799609E+03  0.47612730736E+03  0.83015521587E+03  0.77812277013E+02 0.  0.
         13    1    3    3    0    0 -0.48414448052E+03  0.21360255278E+03  0.41038069385E+03  0.66965232954E+03  0.00000000000E+00 0. -1.
        -13    1    3    3    0    0 -0.13480287323E+03  0.57155443314E+02  0.65746613509E+02  0.16050288633E+03  0.00000000000E+00 0.  1.
         22    1    1    2    0    0  0.61894735375E+03 -0.27075799609E+03 -0.16243289128E+04  0.17592186153E+04  0.00000000000E+00 0. -1.
<mgrwt>
<rscale>  0 0.23208813E+04</rscale>
<asrwt>0</asrwt>
<pdfrwt beam="1">  1        2 0.28750580E+00 0.23208813E+04</pdfrwt>
<pdfrwt beam="2">  1       -2 0.11085940E+00 0.23208813E+04</pdfrwt>
<totfact> 0.46114395E+00</totfact>
</mgrwt>
</event>
<event>
 6    1  0.1885829E-005  0.2614972E+04  0.7818608E-02  0.8363133E-01
          2   -1    0    0  501    0  0.00000000000E+00  0.00000000000E+00  0.12435729327E+04  0.12435729327E+04  0.00000000000E+00 0. -1.
         -2   -1    0    0    0  501 -0.00000000000E+00 -0.00000000000E+00 -0.13746843338E+04  0.13746843338E+04  0.00000000000E+00 0.  1.
         23    2    1    2    0    0  0.33575695188E+03 -0.63383878610E+02  0.11963730103E+04  0.12475037842E+04  0.90592853396E+02 0.  0.
         13    1    3    3    0    0  0.18426846869E+03  0.40655359763E+01  0.71477713809E+03  0.73815835311E+03  0.00000000000E+00 0. -1.
        -13    1    3    3    0    0  0.15148848318E+03 -0.67449414587E+02  0.48159587219E+03  0.50934543110E+03  0.00000000000E+00 0.  1.
         22    1    1    2    0    0 -0.33575695188E+03  0.63383878610E+02 -0.13274844113E+04  0.13707534823E+04  0.00000000000E+00 0.  1.
<mgrwt>
<rscale>  0 0.26149724E+04</rscale>
<asrwt>0</asrwt>
<pdfrwt beam="1">  1        2 0.19131891E+00 0.26149724E+04</pdfrwt>
<pdfrwt beam="2">  1       -2 0.21148990E+00 0.26149724E+04</pdfrwt>
<totfact> 0.17656684E+00</totfact>
</mgrwt>
</event>
<event>
 6    1  0.1885829E-005  0.2000252E+04  0.7818608E-02  0.8606503E-01
          2   -1    0    0  501    0  0.00000000000E+00  0.00000000000E+00  0.24692067935E+04  0.24692067935E+04  0.00000000000E+00 0. -1.
         -2   -1    0    0    0  501 -0.00000000000E+00 -0.00000000000E+00 -0.40509041994E+03  0.40509041994E+03  0.00000000000E+00 0.  1.
         23    2    1    2    0    0  0.72739409695E+03  0.59110577624E+03  0.15267451195E+04  0.17938916989E+04  0.92674466313E+02 0.  0.
         13    1    3    3    0    0  0.39472009215E+03  0.33571582586E+03  0.75812882411E+03  0.91829645584E+03  0.00000000000E+00 0. -1.
        -13    1    3    3    0    0  0.33267400481E+03  0.25538995038E+03  0.76861629535E+03  0.87559524308E+03  0.00000000000E+00 0.  1.
         22    1    1    2    0    0 -0.72739409695E+03 -0.59110577624E+03  0.53737125406E+03  0.10804055145E+04  0.00000000000E+00 0.  1.
<mgrwt>
<rscale>  0 0.20002520E+04</rscale>
<asrwt>0</asrwt>
<pdfrwt beam="1">  1        2 0.37987796E+00 0.20002520E+04</pdfrwt>
<pdfrwt beam="2">  1       -2 0.62321604E-01 0.20002520E+04</pdfrwt>
<totfact> 0.80545150E+00</totfact>
</mgrwt>
</event>
<event>
 6    1  0.1885829E-005  0.2318185E+04  0.7818608E-02  0.8470785E-01
         -2   -1    0    0    0  501 -0.00000000000E+00  0.00000000000E+00  0.92745473058E+03  0.92745473058E+03  0.00000000000E+00 0.  1.
          2   -1    0    0  501    0  0.00000000000E+00 -0.00000000000E+00 -0.14485832848E+04  0.14485832848E+04  0.00000000000E+00 0. -1.
         23    2    1    2    0    0  0.55611898091E+03  0.26743958874E+03  0.74244639231E+03  0.96983251829E+03  0.92499802817E+02 0.  0.
         13    1    3    3    0    0  0.46010850731E+03  0.18713028709E+03  0.55957437380E+03  0.74822527534E+03  0.00000000000E+00 0.  1.
        -13    1    3    3    0    0  0.96010473597E+02  0.80309301651E+02  0.18287201851E+03  0.22160724295E+03  0.00000000000E+00 0. -1.
         22    1    1    2    0    0 -0.55611898091E+03 -0.26743958874E+03 -0.12635749465E+04  0.14062054971E+04  0.00000000000E+00 0. -1.
<mgrwt>
<rscale>  0 0.23181850E+04</rscale>
<asrwt>0</asrwt>
<pdfrwt beam="1">  1        2 0.22285897E+00 0.23181850E+04</pdfrwt>
<pdfrwt beam="2">  1       -2 0.14268534E+00 0.23181850E+04</pdfrwt>
<totfact> 0.42011555E+00</totfact>
</mgrwt>
</event>
<event>
 6    1  0.1885829E-005  0.2130848E+04  0.7818608E-02  0.8547775E-01
          2   -1    0    0  501    0  0.00000000000E+00  0.00000000000E+00  0.21774325585E+04  0.21774325585E+04  0.00000000000E+00 0. -1.
         -2   -1    0    0    0  501 -0.00000000000E+00 -0.00000000000E+00 -0.52131523699E+03  0.52131523699E+03  0.00000000000E+00 0.  1.
         23    2    1    2    0    0  0.29165997420E+03 -0.99983961426E+03  0.55792341401E+03  0.11852172694E+04  0.93362974863E+02 0.  0.
         13    1    3    3    0    0 -0.19278708370E+01 -0.80562420106E+02  0.46975559292E+02  0.93277668228E+02  0.00000000000E+00 0.  1.
        -13    1    3    3    0    0  0.29358784504E+03 -0.91927719415E+03  0.51094785472E+03  0.10919396012E+04  0.00000000000E+00 0. -1.
         22    1    1    2    0    0 -0.29165997420E+03  0.99983961426E+03  0.10981939075E+04  0.15135305260E+04  0.00000000000E+00 0. -1.
<mgrwt>
<rscale>  0 0.21308484E+04</rscale>
<asrwt>0</asrwt>
<pdfrwt beam="1">  1        2 0.33498962E+00 0.21308484E+04</pdfrwt>
<pdfrwt beam="2">  1       -2 0.80202345E-01 0.21308484E+04</pdfrwt>
<totfact> 0.67171396E+00</totfact>
</mgrwt>
</event>
<event>
 6    1  0.1885829E-005  0.5932690E+04  0.7818608E-02  0.7698804E-01
         -2   -1    0    0    0  501 -0.00000000000E+00  0.00000000000E+00  0.33506868215E+04  0.33506868215E+04  0.00000000000E+00 0.  1.
          2   -1    0    0  501    0  0.00000000000E+00 -0.00000000000E+00 -0.26260894650E+04  0.26260894650E+04  0.00000000000E+00 0. -1.
         23    2    1    2    0    0 -0.71735513115E+03 -0.21459908361E+04 -0.15689596919E+04  0.27549322514E+04  0.90233818100E+02 0.  0.
         11    1    3    3    0    0 -0.61015483546E+03 -0.18035720786E+04 -0.13585977661E+04  0.23390059974E+04  0.00000000000E+00 0. -1.
        -11    1    3    3    0    0 -0.10720029569E+03 -0.34241875748E+03 -0.21036192585E+03  0.41592625394E+03  0.00000000000E+00 0.  1.
         22    1    1    2    0    0  0.71735513115E+03  0.21459908361E+04  0.22935570484E+04  0.32218440352E+04  0.00000000000E+00 0.  1.
<mgrwt>
<rscale>  0 0.59326902E+04</rscale>
<asrwt>0</asrwt>
<pdfrwt beam="1">  1        2 0.40401376E+00 0.59326902E+04</pdfrwt>
<pdfrwt beam="2">  1       -2 0.51549028E+00 0.59326902E+04</pdfrwt>
<totfact> 0.26753347E-03</totfact>
</mgrwt>
</event>
<event>
 6    1  0.1885829E-005  0.2619603E+04  0.7818608E-02  0.8361573E-01
          1   -1    0    0  501    0  0.00000000000E+00  0.00000000000E+00  0.23970908419E+04  0.23970908419E+04  0.00000000000E+00 0. -1.
         -1   -1    0    0    0  501 -0.00000000000E+00 -0.00000000000E+00 -0.71569237626E+03  0.71569237626E+03  0.00000000000E+00 0.  1.
         23    2    1    2    0    0  0.12626150498E+04  0.22912325094E+03  0.11439960933E+04  0.17215623378E+04  0.91408934325E+02 0.  0.
         13    1    3    3    0    0  0.46607558623E+02  0.22728300692E+02  0.62076682766E+02  0.80884823771E+02  0.00000000000E+00 0.  1.
        -13    1    3    3    0    0  0.12160074912E+04  0.20639495025E+03  0.10819194106E+04  0.16406775140E+04  0.00000000000E+00 0. -1.
         22    1    1    2    0    0 -0.12626150498E+04 -0.22912325094E+03  0.53740237232E+03  0.13912208803E+04  0.00000000000E+00 0.  1.
<mgrwt>
<rscale>  0 0.26196027E+04</rscale>
<asrwt>0</asrwt>
<pdfrwt beam="1">  1        1 0.36878320E+00 0.26196027E+04</pdfrwt>
<pdfrwt beam="2">  1       -1 0.11010652E+00 0.26196027E+04</pdfrwt>
<totfact> 0.10681343E+00</totfact>
</mgrwt>
</event>
<event>
 6    1  0.1885829E-005  0.2294036E+04  0.7818608E-02  0.8480276E-01
         -2   -1    0    0    0  501 -0.00000000000E+00  0.00000000000E+00  0.15501774395E+04  0.15501774395E+04  0.00000000000E+00 0.  1.
          2   -1    0    0  501    0  0.00000000000E+00 -0.00000000000E+00 -0.84870984360E+03  0.84870984360E+03  0.00000000000E+00 0. -1.
         23    2    1    2    0    0 -0.73898053846E+03 -0.71721377748E+02 -0.56047462790E+03  0.93473757475E+03  0.91467660310E+02 0.  0.
         13    1    3    3    0    0 -0.34967929849E+03 -0.79213612507E+02 -0.27814076251E+03  0.45377603724E+03  0.00000000000E+00 0. -1.
        -13    1    3    3    0    0 -0.38930123997E+03  0.74922347591E+01 -0.28233386540E+03  0.48096153752E+03  0.00000000000E+00 0.  1.
         22    1    1    2    0    0  0.73898053846E+03  0.71721377748E+02  0.12619422238E+04  0.14641497084E+04  0.00000000000E+00 0.  1.
<mgrwt>
<rscale>  0 0.22940365E+04</rscale>
<asrwt>0</asrwt>
<pdfrwt beam="1">  1        2 0.13057075E+00 0.22940365E+04</pdfrwt>
<pdfrwt beam="2">  1       -2 0.23848884E+00 0.22940365E+04</pdfrwt>
<totfact> 0.21830411E+00</totfact>
</mgrwt>
</event>
<event>
 6    1  0.1885829E-005  0.5327933E+04  0.7818608E-02  0.7779820E-01
         -2   -1    0    0    0  501 -0.00000000000E+00  0.00000000000E+00  0.41964390751E+04  0.41964390751E+04  0.00000000000E+00 0. -1.
          2   -1    0    0  501    0  0.00000000000E+00 -0.00000000000E+00 -0.16911282189E+04  0.16911282189E+04  0.00000000000E+00 0.  1.
         23    2    1    2    0    0 -0.95198873341E+03  0.13001669784E+03 -0.14917697446E+04  0.17766257694E+04  0.88517023921E+02 0.  0.
         11    1    3    3    0    0 -0.71429910021E+03  0.12932147506E+03 -0.11624361613E+04  0.13704762229E+04  0.00000000000E+00 0. -1.
        -11    1    3    3    0    0 -0.23768963319E+03  0.69522278445E+00 -0.32933358327E+03  0.40614954652E+03  0.00000000000E+00 0.  1.
         22    1    1    2    0    0  0.95198873341E+03 -0.13001669784E+03  0.39970806007E+04  0.41109415247E+04  0.00000000000E+00 0. -1.
<mgrwt>
<rscale>  0 0.53279326E+04</rscale>
<asrwt>0</asrwt>
<pdfrwt beam="1">  1        2 0.26017357E+00 0.53279326E+04</pdfrwt>
<pdfrwt beam="2">  1       -2 0.64560601E+00 0.53279326E+04</pdfrwt>
<totfact> 0.24802896E-03</totfact>
</mgrwt>
</event>
<event>
 6    1  0.1885829E-005  0.1588718E+04  0.7818608E-02  0.8827509E-01
          2   -1    0    0  501    0  0.00000000000E+00  0.00000000000E+00  0.23422552755E+04  0.23422552755E+04  0.00000000000E+00 0. -1.
         -2   -1    0    0    0  501 -0.00000000000E+00 -0.00000000000E+00 -0.26940127508E+03  0.26940127508E+03  0.00000000000E+00 0.  1.
         23    2    1    2    0    0 -0.42503625373E+03 -0.56053072206E+03  0.16370097654E+04  0.17841236482E+04  0.91900558610E+02 0.  0.
         11    1    3    3    0    0 -0.13917795455E+03 -0.17990740759E+03  0.42605307946E+03  0.48296832697E+03  0.00000000000E+00 0.  1.
        -11    1    3    3    0    0 -0.28585829917E+03 -0.38062331447E+03  0.12109566859E+04  0.13011553212E+04  0.00000000000E+00 0. -1.
         22    1    1    2    0    0  0.42503625373E+03  0.56053072206E+03  0.43584423503E+03  0.82753290240E+03  0.00000000000E+00 0.  1.
<mgrwt>
<rscale>  0 0.15887184E+04</rscale>
<asrwt>0</asrwt>
<pdfrwt beam="1">  1        2 0.36034695E+00 0.15887184E+04</pdfrwt>
<pdfrwt beam="2">  1       -2 0.41446351E-01 0.15887184E+04</pdfrwt>
<totfact> 0.22736770E+01</totfact>
</mgrwt>
</event>
<event>
 6    1  0.1885829E-005  0.1842232E+04  0.7818608E-02  0.8684158E-01
         -1   -1    0    0    0  501 -0.00000000000E+00  0.00000000000E+00  0.99187708232E+03  0.99187708232E+03  0.00000000000E+00 0.  1.
          1   -1    0    0  501    0  0.00000000000E+00 -0.00000000000E+00 -0.85540291374E+03  0.85540291374E+03  0.00000000000E+00 0. -1.
         23    2    1    2    0    0 -0.81177943117E+03 -0.14375770548E+03  0.47487899812E+03  0.95611786075E+03  0.94863997531E+02 0.  0.
         13    1    3    3    0    0 -0.47368430072E+03 -0.11412909781E+03  0.32097712448E+03  0.58346257991E+03  0.00000000000E+00 0. -1.
        -13    1    3    3    0    0 -0.33809513045E+03 -0.29628607671E+02  0.15390187365E+03  0.37265528084E+03  0.00000000000E+00 0.  1.
         22    1    1    2    0    0  0.81177943117E+03  0.14375770548E+03 -0.33840482954E+03  0.89116213531E+03  0.00000000000E+00 0. -1.
<mgrwt>
<rscale>  0 0.18422318E+04</rscale>
<asrwt>0</asrwt>
<pdfrwt beam="1">  1        1 0.13160045E+00 0.18422318E+04</pdfrwt>
<pdfrwt beam="2">  1       -1 0.15259647E+00 0.18422318E+04</pdfrwt>
<totfact> 0.62062680E+00</totfact>
</mgrwt>
</event>
<event>
 6    1  0.1885829E-005  0.1046833E+04  0.7818608E-02  0.9258620E-01
          2   -1    0    0  501    0  0.00000000000E+00  0.00000000000E+00  0.12011817016E+04  0.12011817016E+04  0.00000000000E+00 0. -1.
         -2   -1    0    0    0  501 -0.00000000000E+00 -0.00000000000E+00 -0.22807957440E+03  0.22807957440E+03  0.00000000000E+00 0.  1.
         23    2    1    2    0    0 -0.43534738041E+03 -0.28337542897E+03  0.48121516008E+03  0.71387203664E+03  0.90643692723E+02 0.  0.
         13    1    3    3    0    0 -0.94014157390E+02 -0.10912942758E+03  0.13439963520E+03  0.19700547123E+03  0.00000000000E+00 0. -1.
        -13    1    3    3    0    0 -0.34133322302E+03 -0.17424600139E+03  0.34681552488E+03  0.51686656541E+03  0.00000000000E+00 0.  1.
         22    1    1    2    0    0  0.43534738041E+03  0.28337542897E+03  0.49188696712E+03  0.71538923937E+03  0.00000000000E+00 0. -1.
<mgrwt>
<rscale>  0 0.10468333E+04</rscale>
<asrwt>0</asrwt>
<pdfrwt beam="1">  1        2 0.18479718E+00 0.10468333E+04</pdfrwt>
<pdfrwt beam="2">  1       -2 0.35089166E-01 0.10468333E+04</pdfrwt>
<totfact> 0.14340408E+02</totfact>
</mgrwt>
</event>
<event>
 6    1  0.1885829E-005  0.4155411E+04  0.7818608E-02  0.7973909E-01
          2   -1    0    0  501    0  0.00000000000E+00  0.00000000000E+00  0.22056196118E+04  0.22056196118E+04  0.00000000000E+00 0. -1.
         -2   -1    0    0    0  501 -0.00000000000E+00 -0.00000000000E+00 -0.19572096360E+04  0.19572096360E+04  0.00000000000E+00 0.  1.
         23    2    1    2    0    0  0.17087005343E+04 -0.70179000429E+03 -0.82634148089E+03  0.20257149739E+04  0.92272348231E+02 0.  0.
         13    1    3    3    0    0  0.27737637429E+03 -0.11141282193E+03 -0.17158237068E+03  0.34466067346E+03  0.00000000000E+00 0.  1.
        -13    1    3    3    0    0  0.14313241601E+04 -0.59037718236E+03 -0.65475911021E+03  0.16810543004E+04  0.00000000000E+00 0. -1.
         22    1    1    2    0    0 -0.17087005343E+04  0.70179000429E+03  0.10747514567E+04  0.21371142739E+04  0.00000000000E+00 0. -1.
<mgrwt>
<rscale>  0 0.41554109E+04</rscale>
<asrwt>0</asrwt>
<pdfrwt beam="1">  1        2 0.33932609E+00 0.41554109E+04</pdfrwt>
<pdfrwt beam="2">  1       -2 0.30110918E+00 0.41554109E+04</pdfrwt>
<totfact> 0.12496956E-01</totfact>
</mgrwt>
</event>
<event>
 6    1  0.1885829E-005  0.2979498E+04  0.7818608E-02  0.8249610E-01
          2   -1    0    0  501    0  0.00000000000E+00  0.00000000000E+00  0.22440014731E+04  0.22440014731E+04  0.00000000000E+00 0. -1.
         -2   -1    0    0    0  501 -0.00000000000E+00 -0.00000000000E+00 -0.98901524488E+03  0.98901524488E+03  0.00000000000E+00 0.  1.
         23    2    1    2    0    0 -0.82794571502E+03  0.92533519431E+03  0.15185394673E+04  0.19636863281E+04  0.91446992619E+02 0.  0.
         11    1    3    3    0    0 -0.79971278274E+02  0.11995184637E+03  0.21084666558E+03  0.25542154800E+03  0.00000000000E+00 0. -1.
        -11    1    3    3    0    0 -0.74797443675E+03  0.80538334794E+03  0.13076928018E+04  0.17082647801E+04  0.00000000000E+00 0.  1.
         22    1    1    2    0    0  0.82794571502E+03 -0.92533519431E+03 -0.26355323911E+03  0.12693303899E+04  0.00000000000E+00 0.  1.
<mgrwt>
<rscale>  0 0.29794977E+04</rscale>
<asrwt>0</asrwt>
<pdfrwt beam="1">  1        2 0.34523099E+00 0.29794977E+04</pdfrwt>
<pdfrwt beam="2">  1       -2 0.15215619E+00 0.29794977E+04</pdfrwt>
<totfact> 0.12062345E+00</totfact>
</mgrwt>
</event>
<event>
 6    1  0.1885829E-005  0.1940298E+04  0.7818608E-02  0.8635053E-01
         -2   -1    0    0    0  501 -0.00000000000E+00  0.00000000000E+00  0.76797337418E+03  0.76797337418E+03  0.00000000000E+00 0.  1.
          2   -1    0    0  501    0  0.00000000000E+00 -0.00000000000E+00 -0.12255494016E+04  0.12255494016E+04  0.00000000000E+00 0. -1.
         23    2    1    2    0    0  0.23405763951E+02  0.40749472480E+03  0.67246271986E+03  0.79202897600E+03  0.92217182193E+02 0.  0.
         13    1    3    3    0    0 -0.26220124859E+01  0.31561799494E+03  0.44724047657E+03  0.54739897475E+03  0.00000000000E+00 0.  1.
        -13    1    3    3    0    0  0.26027776436E+02  0.91876729869E+02  0.22522224330E+03  0.24463000125E+03  0.00000000000E+00 0. -1.
         22    1    1    2    0    0 -0.23405763951E+02 -0.40749472480E+03 -0.11300387473E+04  0.12014937998E+04  0.00000000000E+00 0. -1.
<mgrwt>
<rscale>  0 0.19402982E+04</rscale>
<asrwt>0</asrwt>
<pdfrwt beam="1">  1        2 0.18854606E+00 0.19402982E+04</pdfrwt>
<pdfrwt beam="2">  1       -2 0.11814975E+00 0.19402982E+04</pdfrwt>
<totfact> 0.94233116E+00</totfact>
</mgrwt>
</event>
<event>
 6    1  0.1885829E-005  0.2444368E+04  0.7818608E-02  0.8423077E-01
          2   -1    0    0  501    0  0.00000000000E+00  0.00000000000E+00  0.12672586433E+04  0.12672586433E+04  0.00000000000E+00 0. -1.
         -2   -1    0    0    0  501 -0.00000000000E+00 -0.00000000000E+00 -0.11787129576E+04  0.11787129576E+04  0.00000000000E+00 0.  1.
         23    2    1    2    0    0  0.11172167964E+04 -0.20017633424E+03 -0.40499916104E+03  0.12083002186E+04  0.87870147029E+02 0.  0.
         11    1    3    3    0    0  0.48672352258E+03 -0.13054172082E+03 -0.18911758912E+03  0.53824380240E+03  0.00000000000E+00 0. -1.
        -11    1    3    3    0    0  0.63049327383E+03 -0.69634613416E+02 -0.21588157191E+03  0.67005641615E+03  0.00000000000E+00 0.  1.
         22    1    1    2    0    0 -0.11172167964E+04  0.20017633424E+03  0.49354484668E+03  0.12376713823E+04  0.00000000000E+00 0. -1.
<mgrwt>
<rscale>  0 0.24443684E+04</rscale>
<asrwt>0</asrwt>
<pdfrwt beam="1">  1        2 0.19496287E+00 0.24443684E+04</pdfrwt>
<pdfrwt beam="2">  1       -2 0.18134046E+00 0.24443684E+04</pdfrwt>
<totfact> 0.27480336E+00</totfact>
</mgrwt>
</event>
<event>
 6    1  0.1885829E-005  0.1622862E+04  0.7818608E-02  0.8806625E-01
         -2   -1    0    0    0  501 -0.00000000000E+00  0.00000000000E+00  0.48910847600E+03  0.48910847600E+03  0.00000000000E+00 0. -1.
          2   -1    0    0  501    0  0.00000000000E+00 -0.00000000000E+00 -0.13461641802E+04  0.13461641802E+04  0.00000000000E+00 0.  1.
         23    2    1    2    0    0  0.42414331278E+03 -0.67865280184E+03 -0.56285010201E+03  0.98261556710E+03  0.90917215880E+02 0.  0.
         13    1    3    3    0    0  0.24846991341E+03 -0.31654933782E+03 -0.26319571742E+03  0.48084588676E+03  0.00000000000E+00 0.  1.
        -13    1    3    3    0    0  0.17567339937E+03 -0.36210346402E+03 -0.29965438459E+03  0.50176968034E+03  0.00000000000E+00 0. -1.
         22    1    1    2    0    0 -0.42414331278E+03  0.67865280184E+03 -0.29420560216E+03  0.85265708908E+03  0.00000000000E+00 0. -1.
<mgrwt>
<rscale>  0 0.16228621E+04</rscale>
<asrwt>0</asrwt>
<pdfrwt beam="1">  1        2 0.20710218E+00 0.16228621E+04</pdfrwt>
<pdfrwt beam="2">  1       -2 0.75247458E-01 0.16228621E+04</pdfrwt>
<totfact> 0.23582967E+01</totfact>
</mgrwt>
</event>
<event>
 6    1  0.1885829E-005  0.3258384E+04  0.7818608E-02  0.8173566E-01
          2   -1    0    0  501    0  0.00000000000E+00  0.00000000000E+00  0.24868642749E+04  0.24868642749E+04  0.00000000000E+00 0. -1.
         -2   -1    0    0    0  501 -0.00000000000E+00 -0.00000000000E+00 -0.10673146395E+04  0.10673146395E+04  0.00000000000E+00 0.  1.
         23    2    1    2    0    0 -0.68086943122E+03 -0.33265226505E+03  0.22819375591E+04  0.24061572931E+04  0.90073213880E+02 0.  0.
         11    1    3    3    0    0 -0.22371951459E+03 -0.13830187841E+03  0.68574492604E+03  0.73445485523E+03  0.00000000000E+00 0.  1.
        -11    1    3    3    0    0 -0.45714991663E+03 -0.19435038663E+03  0.15961926330E+04  0.16717024379E+04  0.00000000000E+00 0. -1.
         22    1    1    2    0    0  0.68086943122E+03  0.33265226505E+03 -0.86238792370E+03  0.11480216212E+04  0.00000000000E+00 0.  1.
<mgrwt>
<rscale>  0 0.32583840E+04</rscale>
<asrwt>0</asrwt>
<pdfrwt beam="1">  1        2 0.38259450E+00 0.32583840E+04</pdfrwt>
<pdfrwt beam="2">  1       -2 0.16420225E+00 0.32583840E+04</pdfrwt>
<totfact> 0.69647369E-01</totfact>
</mgrwt>
</event>
<event>
 6    1  0.1978775E-005  0.2511479E+04  0.7818608E-02  0.8398907E-01
         -2   -1    0    0    0  501 -0.00000000000E+00  0.00000000000E+00  0.10607269377E+04  0.10607269377E+04  0.00000000000E+00 0. -1.
          2   -1    0    0  501    0  0.00000000000E+00 -0.00000000000E+00 -0.14866049826E+04  0.14866049826E+04  0.00000000000E+00 0.  1.
         23    2    1    2    0    0  0.41350597054E+03 -0.36615155084E+03 -0.13551372830E+04  0.14663245765E+04  0.93040647291E+02 0.  0.
         13    1    3    3    0    0  0.19155205405E+03 -0.14486579847E+03 -0.70054523836E+03  0.74056864636E+03  0.00000000000E+00 0. -1.
        -13    1    3    3    0    0  0.22195391649E+03 -0.22128575237E+03 -0.65459204462E+03  0.72575593013E+03  0.00000000000E+00 0.  1.
         22    1    1    2    0    0 -0.41350597054E+03  0.36615155084E+03  0.92925923811E+03  0.10810073439E+04  0.00000000000E+00 0. -1.
<mgrwt>
<rscale>  0 0.25114792E+04</rscale>
<asrwt>0</asrwt>
<pdfrwt beam="1">  1        2 0.22870846E+00 0.25114792E+04</pdfrwt>
<pdfrwt beam="2">  1       -2 0.16318876E+00 0.25114792E+04</pdfrwt>
<totfact> 0.27472860E+00</totfact>
</mgrwt>
</event>
<event>
 6    1  0.1885829E-005  0.1429954E+04  0.7818608E-02  0.8932417E-01
          2   -1    0    0  501    0  0.00000000000E+00  0.00000000000E+00  0.14998827951E+04  0.14998827951E+04  0.00000000000E+00 0. -1.
         -2   -1    0    0    0  501 -0.00000000000E+00 -0.00000000000E+00 -0.34082152229E+03  0.34082152229E+03  0.00000000000E+00 0.  1.
         23    2    1    2    0    0  0.20815290207E+03 -0.67495952851E+03  0.46542674840E+03  0.85074126292E+03  0.90777984893E+02 0.  0.
         11    1    3    3    0    0  0.73479606491E+02 -0.11827327215E+03  0.98050460807E+02  0.17029889119E+03  0.00000000000E+00 0.  1.
        -11    1    3    3    0    0  0.13467329557E+03 -0.55668625637E+03  0.36737628760E+03  0.68044237174E+03  0.00000000000E+00 0. -1.
         22    1    1    2    0    0 -0.20815290207E+03  0.67495952851E+03  0.69363452444E+03  0.98996305450E+03  0.00000000000E+00 0. -1.
<mgrwt>
<rscale>  0 0.14299543E+04</rscale>
<asrwt>0</asrwt>
<pdfrwt beam="1">  1        2 0.23075120E+00 0.14299543E+04</pdfrwt>
<pdfrwt beam="2">  1       -2 0.52434081E-01 0.14299543E+04</pdfrwt>
<totfact> 0.42314345E+01</totfact>
</mgrwt>
</event>
<event>
 6    1  0.1885829E-005  0.2485314E+04  0.7818608E-02  0.8408236E-01
          1   -1    0    0  501    0  0.00000000000E+00  0.00000000000E+00  0.12163968586E+04  0.12163968586E+04  0.00000000000E+00 0. -1.
         -1   -1    0    0    0  501 -0.00000000000E+00 -0.00000000000E+00 -0.12694836934E+04  0.12694836934E+04  0.00000000000E+00 0.  1.
         23    2    1    2    0    0 -0.18077243155E+03 -0.35998403261E+03  0.11474511192E+04  0.12195636270E+04  0.91783405469E+02 0.  0.
         11    1    3    3    0    0 -0.18105571937E+03 -0.35997160914E+03  0.10897009521E+04  0.11618127637E+04  0.00000000000E+00 0. -1.
        -11    1    3    3    0    0  0.28328782902E+00 -0.12423470530E-01  0.57750167175E+02  0.57750863327E+02  0.00000000000E+00 0.  1.
         22    1    1    2    0    0  0.18077243155E+03  0.35998403261E+03 -0.12005379540E+04  0.12663169250E+04  0.00000000000E+00 0.  1.
<mgrwt>
<rscale>  0 0.24853136E+04</rscale>
<asrwt>0</asrwt>
<pdfrwt beam="1">  1        1 0.18713798E+00 0.24853136E+04</pdfrwt>
<pdfrwt beam="2">  1       -1 0.19530518E+00 0.24853136E+04</pdfrwt>
<totfact> 0.15000448E+00</totfact>
</mgrwt>
</event>
<event>
 6    1  0.1885829E-005  0.4309837E+04  0.7818608E-02  0.7944802E-01
          2   -1    0    0  501    0  0.00000000000E+00  0.00000000000E+00  0.37533315355E+04  0.37533315355E+04  0.00000000000E+00 0. -1.
         -2   -1    0    0    0  501 -0.00000000000E+00 -0.00000000000E+00 -0.12372135842E+04  0.12372135842E+04  0.00000000000E+00 0.  1.
         23    2    1    2    0    0  0.18017969489E+04 -0.26653162193E+03 -0.72735285338E+02  0.18251585032E+04  0.91661275433E+02 0.  0.
         13    1    3    3    0    0  0.14909324672E+04 -0.19933618938E+03 -0.32216802583E+02  0.15045439378E+04  0.00000000000E+00 0. -1.
        -13    1    3    3    0    0  0.31086448169E+03 -0.67195432546E+02 -0.40518482755E+02  0.32061456545E+03  0.00000000000E+00 0.  1.
         22    1    1    2    0    0 -0.18017969489E+04  0.26653162193E+03  0.25888532367E+04  0.31653866165E+04  0.00000000000E+00 0. -1.
<mgrwt>
<rscale>  0 0.43098365E+04</rscale>
<asrwt>0</asrwt>
<pdfrwt beam="1">  1        2 0.57743562E+00 0.43098365E+04</pdfrwt>
<pdfrwt beam="2">  1       -2 0.19034055E+00 0.43098365E+04</pdfrwt>
<totfact> 0.63014730E-02</totfact>
</mgrwt>
</event>
<event>
 6    1  0.1885829E-005  0.3479138E+04  0.7818608E-02  0.8118752E-01
          1   -1    0    0  501    0  0.00000000000E+00  0.00000000000E+00  0.22199004804E+04  0.22199004804E+04  0.00000000000E+00 0. -1.
         -1   -1    0    0    0  501 -0.00000000000E+00 -0.00000000000E+00 -0.13631693077E+04  0.13631693077E+04  0.00000000000E+00 0.  1.
         23    2    1    2    0    0 -0.10792914203E+04  0.36182666853E+03  0.17815347704E+04  0.21164238859E+04  0.97956207720E+02 0.  0.
         11    1    3    3    0    0 -0.90651623414E+03  0.33728272009E+03  0.14799410506E+04  0.17679810036E+04  0.00000000000E+00 0. -1.
        -11    1    3    3    0    0 -0.17277518614E+03  0.24543948440E+02  0.30159371983E+03  0.34844288225E+03  0.00000000000E+00 0.  1.
         22    1    1    2    0    0  0.10792914203E+04 -0.36182666853E+03 -0.92480359773E+03  0.14666459022E+04  0.00000000000E+00 0.  1.
<mgrwt>
<rscale>  0 0.34791379E+04</rscale>
<asrwt>0</asrwt>
<pdfrwt beam="1">  1        1 0.34152315E+00 0.34791379E+04</pdfrwt>
<pdfrwt beam="2">  1       -1 0.20971835E+00 0.34791379E+04</pdfrwt>
<totfact> 0.22283012E-01</totfact>
</mgrwt>
</event>
<event>
 6    1  0.1885829E-005  0.2084320E+04  0.7818608E-02  0.8568182E-01
          2   -1    0    0  501    0  0.00000000000E+00  0.00000000000E+00  0.29460315635E+04  0.29460315635E+04  0.00000000000E+00 0. -1.
         -2   -1    0    0    0  501 -0.00000000000E+00 -0.00000000000E+00 -0.36866465744E+03  0.36866465744E+03  0.00000000000E+00 0.  1.
         23    2    1    2    0    0 -0.10242348448E+04  0.97919169805E+02  0.15341366261E+04  0.18494404077E+04  0.90606031477E+02 0.  0.
         13    1    3    3    0    0 -0.40224604949E+03  0.74512083998E+02  0.56228555986E+03  0.69535529467E+03  0.00000000000E+00 0.  1.
        -13    1    3    3    0    0 -0.62198879534E+03  0.23407085807E+02  0.97185106621E+03  0.11540851130E+04  0.00000000000E+00 0. -1.
         22    1    1    2    0    0  0.10242348448E+04 -0.97919169805E+02  0.10432302800E+04  0.14652558132E+04  0.00000000000E+00 0.  1.
<mgrwt>
<rscale>  0 0.20843202E+04</rscale>
<asrwt>0</asrwt>
<pdfrwt beam="1">  1        2 0.45323561E+00 0.20843202E+04</pdfrwt>
<pdfrwt beam="2">  1       -2 0.56717642E-01 0.20843202E+04</pdfrwt>
<totfact> 0.50704397E+00</totfact>
</mgrwt>
</event>
<event>
 6    1  0.1885829E-005  0.2468501E+04  0.7818608E-02  0.8414294E-01
          2   -1    0    0  501    0  0.00000000000E+00  0.00000000000E+00  0.30842846326E+04  0.30842846326E+04  0.00000000000E+00 0. -1.
         -2   -1    0    0    0  501 -0.00000000000E+00 -0.00000000000E+00 -0.49391480290E+03  0.49391480290E+03  0.00000000000E+00 0.  1.
         23    2    1    2    0    0 -0.11951038450E+04  0.21711076448E+03  0.16008208904E+04  0.20114775751E+04  0.89466350241E+02 0.  0.
         13    1    3    3    0    0 -0.54392608670E+03  0.54690492538E+02  0.70249637892E+03  0.89013920268E+03  0.00000000000E+00 0.  1.
        -13    1    3    3    0    0 -0.65117775831E+03  0.16242027194E+03  0.89832451146E+03  0.11213383725E+04  0.00000000000E+00 0. -1.
         22    1    1    2    0    0  0.11951038450E+04 -0.21711076448E+03  0.98954893934E+03  0.15667218604E+04  0.00000000000E+00 0. -1.
<mgrwt>
<rscale>  0 0.24685006E+04</rscale>
<asrwt>0</asrwt>
<pdfrwt beam="1">  1        2 0.47450531E+00 0.24685006E+04</pdfrwt>
<pdfrwt beam="2">  1       -2 0.75986895E-01 0.24685006E+04</pdfrwt>
<totfact> 0.21368267E+00</totfact>
</mgrwt>
</event>
<event>
 6    1  0.1885829E-005  0.1755957E+04  0.7818608E-02  0.8730078E-01
          2   -1    0    0  501    0  0.00000000000E+00  0.00000000000E+00  0.25388830374E+04  0.25388830374E+04  0.00000000000E+00 0. -1.
         -2   -1    0    0    0  501 -0.00000000000E+00 -0.00000000000E+00 -0.30361623695E+03  0.30361623695E+03  0.00000000000E+00 0.  1.
         23    2    1    2    0    0  0.33537142551E+03  0.58613910775E+03  0.20228913870E+04  0.21345894193E+04  0.91374934463E+02 0.  0.
         11    1    3    3    0    0  0.89399015121E+02  0.24227611519E+03  0.80420599355E+03  0.84465210588E+03  0.00000000000E+00 0.  1.
        -11    1    3    3    0    0  0.24597241039E+03  0.34386299257E+03  0.12186853934E+04  0.12899373134E+04  0.00000000000E+00 0. -1.
         22    1    1    2    0    0 -0.33537142551E+03 -0.58613910775E+03  0.21237541346E+03  0.70790985509E+03  0.00000000000E+00 0.  1.
<mgrwt>
<rscale>  0 0.17559568E+04</rscale>
<asrwt>0</asrwt>
<pdfrwt beam="1">  1        2 0.39059738E+00 0.17559568E+04</pdfrwt>
<pdfrwt beam="2">  1       -2 0.46710192E-01 0.17559568E+04</pdfrwt>
<totfact> 0.13623240E+01</totfact>
</mgrwt>
</event>
<event>
 6    1  0.1885829E-005  0.7357317E+03  0.7818608E-02  0.9658005E-01
          1   -1    0    0  501    0  0.00000000000E+00  0.00000000000E+00  0.37297926832E+03  0.37297926832E+03  0.00000000000E+00 0. -1.
         -1   -1    0    0    0  501 -0.00000000000E+00 -0.00000000000E+00 -0.36282257637E+03  0.36282257637E+03  0.00000000000E+00 0.  1.
         23    2    1    2    0    0  0.73673191152E+02 -0.34221870971E+03  0.97821329191E+02  0.37493279227E+03  0.92001097317E+02 0.  0.
         13    1    3    3    0    0  0.60724634236E+02 -0.24324417728E+03  0.26192570996E+02  0.25207392122E+03  0.00000000000E+00 0.  1.
        -13    1    3    3    0    0  0.12948556916E+02 -0.98974532424E+02  0.71628758195E+02  0.12285887105E+03  0.00000000000E+00 0. -1.
         22    1    1    2    0    0 -0.73673191152E+02  0.34221870971E+03 -0.87664637239E+02  0.36086905241E+03  0.00000000000E+00 0. -1.
<mgrwt>
<rscale>  0 0.73573174E+03</rscale>
<asrwt>0</asrwt>
<pdfrwt beam="1">  1        1 0.57381426E-01 0.73573174E+03</pdfrwt>
<pdfrwt beam="2">  1       -1 0.55818858E-01 0.73573174E+03</pdfrwt>
<totfact> 0.21664709E+02</totfact>
</mgrwt>
</event>
<event>
 6    1  0.1885829E-005  0.2697044E+04  0.7818608E-02  0.8335965E-01
          1   -1    0    0  501    0  0.00000000000E+00  0.00000000000E+00  0.11412711229E+04  0.11412711229E+04  0.00000000000E+00 0. -1.
         -1   -1    0    0    0  501 -0.00000000000E+00 -0.00000000000E+00 -0.15934093889E+04  0.15934093889E+04  0.00000000000E+00 0.  1.
         23    2    1    2    0    0 -0.50671364458E+03  0.11012609214E+04 -0.82168636979E+03  0.14673604513E+04  0.91890528949E+02 0.  0.
         13    1    3    3    0    0 -0.32394258686E+03  0.62261536383E+03 -0.51103421236E+03  0.86818469064E+03  0.00000000000E+00 0.  1.
        -13    1    3    3    0    0 -0.18277105773E+03  0.47864555753E+03 -0.31065215743E+03  0.59917576070E+03  0.00000000000E+00 0. -1.
         22    1    1    2    0    0  0.50671364458E+03 -0.11012609214E+04  0.36954810383E+03  0.12673200604E+04  0.00000000000E+00 0.  1.
<mgrwt>
<rscale>  0 0.26970444E+04</rscale>
<asrwt>0</asrwt>
<pdfrwt beam="1">  1        1 0.17558018E+00 0.26970444E+04</pdfrwt>
<pdfrwt beam="2">  1       -1 0.24513990E+00 0.26970444E+04</pdfrwt>
<totfact> 0.77356363E-01</totfact>
</mgrwt>
</event>
<event>
 6    1  0.1885829E-005  0.2188710E+04  0.7818608E-02  0.8523142E-01
          2   -1    0    0  501    0  0.00000000000E+00  0.00000000000E+00  0.23066909578E+04  0.23066909578E+04  0.00000000000E+00 0. -1.
         -2   -1    0    0    0  501 -0.00000000000E+00 -0.00000000000E+00 -0.51919101692E+03  0.51919101692E+03  0.00000000000E+00 0.  1.
         23    2    1    2    0    0 -0.80205296988E+03  0.33246867748E+03  0.17511424674E+04  0.19568904593E+04  0.95372638986E+02 0.  0.
         11    1    3    3    0    0 -0.42063245486E+03  0.12778972761E+03  0.83625113707E+03  0.94476337821E+03  0.00000000000E+00 0. -1.
        -11    1    3    3    0    0 -0.38142051502E+03  0.20467894987E+03  0.91489133037E+03  0.10121270810E+04  0.00000000000E+00 0.  1.
         22    1    1    2    0    0  0.80205296988E+03 -0.33246867748E+03  0.36357473404E+02  0.86899151542E+03  0.00000000000E+00 0.  1.
<mgrwt>
<rscale>  0 0.21887103E+04</rscale>
<asrwt>0</asrwt>
<pdfrwt beam="1">  1        2 0.35487553E+00 0.21887103E+04</pdfrwt>
<pdfrwt beam="2">  1       -2 0.79875543E-01 0.21887103E+04</pdfrwt>
<totfact> 0.57030372E+00</totfact>
</mgrwt>
</event>
<event>
 6    1  0.1885829E-005  0.1539352E+04  0.7818608E-02  0.8858698E-01
          2   -1    0    0  501    0  0.00000000000E+00  0.00000000000E+00  0.81102425287E+03  0.81102425287E+03  0.00000000000E+00 0. -1.
         -2   -1    0    0    0  501 -0.00000000000E+00 -0.00000000000E+00 -0.73043583910E+03  0.73043583910E+03  0.00000000000E+00 0.  1.
         23    2    1    2    0    0  0.61563176387E+03 -0.45734391003E+03  0.39279679788E+02  0.77342862631E+03  0.92103344287E+02 0.  0.
         13    1    3    3    0    0  0.39140559630E+03 -0.34445426540E+03  0.26221790851E+02  0.52204852656E+03  0.00000000000E+00 0. -1.
        -13    1    3    3    0    0  0.22422616757E+03 -0.11288964462E+03  0.13057888937E+02  0.25138009975E+03  0.00000000000E+00 0.  1.
         22    1    1    2    0    0 -0.61563176387E+03  0.45734391003E+03  0.41308733984E+02  0.76803146565E+03  0.00000000000E+00 0.  1.
<mgrwt>
<rscale>  0 0.15393520E+04</rscale>
<asrwt>0</asrwt>
<pdfrwt beam="1">  1        2 0.12477296E+00 0.15393520E+04</pdfrwt>
<pdfrwt beam="2">  1       -2 0.11237474E+00 0.15393520E+04</pdfrwt>
<totfact> 0.20326043E+01</totfact>
</mgrwt>
</event>
<event>
 6    1  0.1885829E-005  0.4360147E+04  0.7818608E-02  0.7935589E-01
         -2   -1    0    0    0  501 -0.00000000000E+00  0.00000000000E+00  0.23722520498E+04  0.23722520498E+04  0.00000000000E+00 0.  1.
          2   -1    0    0  501    0  0.00000000000E+00 -0.00000000000E+00 -0.20034634180E+04  0.20034634180E+04  0.00000000000E+00 0. -1.
         23    2    1    2    0    0 -0.10640381782E+04  0.18920235502E+04  0.37661885788E+03  0.22050032179E+04  0.90923416929E+02 0.  0.
         13    1    3    3    0    0 -0.44435302121E+03  0.86786316280E+03  0.19378832818E+03  0.99407745822E+03  0.00000000000E+00 0.  1.
        -13    1    3    3    0    0 -0.61968515696E+03  0.10241603874E+04  0.18283052970E+03  0.12109257597E+04  0.00000000000E+00 0. -1.
         22    1    1    2    0    0  0.10640381782E+04 -0.18920235502E+04 -0.78302260829E+01  0.21707122498E+04  0.00000000000E+00 0. -1.
<mgrwt>
<rscale>  0 0.43601469E+04</rscale>
<asrwt>0</asrwt>
<pdfrwt beam="1">  1        2 0.30822514E+00 0.43601469E+04</pdfrwt>
<pdfrwt beam="2">  1       -2 0.36496185E+00 0.43601469E+04</pdfrwt>
<totfact> 0.63726274E-02</totfact>
</mgrwt>
</event>
<event>
 6    1  0.1885829E-005  0.1047057E+04  0.7818608E-02  0.9258388E-01
          2   -1    0    0  501    0  0.00000000000E+00  0.00000000000E+00  0.24370902213E+04  0.24370902213E+04  0.00000000000E+00 0.  1.
         -2   -1    0    0    0  501 -0.00000000000E+00 -0.00000000000E+00 -0.11246281839E+03  0.11246281839E+03  0.00000000000E+00 0. -1.
         23    2    1    2    0    0  0.37383017282E+03 -0.19689144058E+03  0.19072722527E+04  0.19556670583E+04  0.91820256785E+02 0.  0.
         11    1    3    3    0    0  0.21618752535E+03 -0.67020765054E+02  0.10908244765E+04  0.11140587362E+04  0.00000000000E+00 0.  1.
        -11    1    3    3    0    0  0.15764264746E+03 -0.12987067553E+03  0.81644777617E+03  0.84160832212E+03  0.00000000000E+00 0. -1.
         22    1    1    2    0    0 -0.37383017282E+03  0.19689144058E+03  0.41735515022E+03  0.59388598139E+03  0.00000000000E+00 0. -1.
<mgrwt>
<rscale>  0 0.10470569E+04</rscale>
<asrwt>0</asrwt>
<pdfrwt beam="1">  1        2 0.37493692E+00 0.10470569E+04</pdfrwt>
<pdfrwt beam="2">  1       -2 0.17301974E-01 0.10470569E+04</pdfrwt>
<totfact> 0.10467243E+02</totfact>
</mgrwt>
</event>
<event>
 6    1  0.1885829E-005  0.1064406E+04  0.7818608E-02  0.9240596E-01
         -2   -1    0    0    0  501 -0.00000000000E+00  0.00000000000E+00  0.12741932406E+03  0.12741932406E+03  0.00000000000E+00 0.  1.
          2   -1    0    0  501    0  0.00000000000E+00 -0.00000000000E+00 -0.22228976304E+04  0.22228976304E+04  0.00000000000E+00 0. -1.
         23    2    1    2    0    0 -0.32187046212E+03 -0.15419666694E+03 -0.19538424004E+03  0.41699477044E+03  0.91282149582E+02 0.  0.
         11    1    3    3    0    0 -0.18473824431E+03 -0.83642633265E+02 -0.59204315488E+02  0.21125685784E+03  0.00000000000E+00 0. -1.
        -11    1    3    3    0    0 -0.13713221781E+03 -0.70554033678E+02 -0.13617992455E+03  0.20573791260E+03  0.00000000000E+00 0.  1.
         22    1    1    2    0    0  0.32187046212E+03  0.15419666694E+03 -0.19000940663E+04  0.19333221841E+04  0.00000000000E+00 0. -1.
<mgrwt>
<rscale>  0 0.10644062E+04</rscale>
<asrwt>0</asrwt>
<pdfrwt beam="1">  1        2 0.34198421E+00 0.10644062E+04</pdfrwt>
<pdfrwt beam="2">  1       -2 0.19602975E-01 0.10644062E+04</pdfrwt>
<totfact> 0.11101847E+02</totfact>
</mgrwt>
</event>
<event>
 6    1  0.1885829E-005  0.2269539E+04  0.7818608E-02  0.8490029E-01
          2   -1    0    0  501    0  0.00000000000E+00  0.00000000000E+00  0.25262216375E+04  0.25262216375E+04  0.00000000000E+00 0. -1.
         -2   -1    0    0    0  501 -0.00000000000E+00 -0.00000000000E+00 -0.50973413737E+03  0.50973413737E+03  0.00000000000E+00 0.  1.
         23    2    1    2    0    0 -0.23505369062E+03 -0.11047639967E+04  0.11298510661E+04  0.16000317198E+04  0.88228946166E+02 0.  0.
         11    1    3    3    0    0 -0.41723357015E+02 -0.25727918385E+03  0.21288945310E+03  0.33653430168E+03  0.00000000000E+00 0.  1.
        -11    1    3    3    0    0 -0.19333033360E+03 -0.84748481281E+03  0.91696161303E+03  0.12634974181E+04  0.00000000000E+00 0. -1.
         22    1    1    2    0    0  0.23505369062E+03  0.11047639967E+04  0.88663643401E+03  0.14359240551E+04  0.00000000000E+00 0.  1.
<mgrwt>
<rscale>  0 0.22695386E+04</rscale>
<asrwt>0</asrwt>
<pdfrwt beam="1">  1        2 0.38864948E+00 0.22695386E+04</pdfrwt>
<pdfrwt beam="2">  1       -2 0.78420638E-01 0.22695386E+04</pdfrwt>
<totfact> 0.44162050E+00</totfact>
</mgrwt>
</event>
<event>
 6    1  0.1885829E-005  0.2000859E+04  0.7818608E-02  0.8606219E-01
          2   -1    0    0  501    0  0.00000000000E+00  0.00000000000E+00  0.10535146878E+04  0.10535146878E+04  0.00000000000E+00 0. -1.
         -2   -1    0    0    0  501 -0.00000000000E+00 -0.00000000000E+00 -0.95001927860E+03  0.95001927860E+03  0.00000000000E+00 0.  1.
         23    2    1    2    0    0 -0.53997992096E+03  0.10222410822E+03 -0.78285118003E+03  0.96063494943E+03  0.89081157712E+02 0.  0.
         11    1    3    3    0    0 -0.32734202370E+03  0.17518473296E+02 -0.46696365775E+03  0.57053900396E+03  0.00000000000E+00 0.  1.
        -11    1    3    3    0    0 -0.21263789726E+03  0.84705634926E+02 -0.31588752228E+03  0.39009594547E+03  0.00000000000E+00 0. -1.
         22    1    1    2    0    0  0.53997992096E+03 -0.10222410822E+03  0.88634658922E+03  0.10428990170E+04  0.00000000000E+00 0. -1.
<mgrwt>
<rscale>  0 0.20008591E+04</rscale>
<asrwt>0</asrwt>
<pdfrwt beam="1">  1        2 0.16207918E+00 0.20008591E+04</pdfrwt>
<pdfrwt beam="2">  1       -2 0.14615681E+00 0.20008591E+04</pdfrwt>
<totfact> 0.69426923E+00</totfact>
</mgrwt>
</event>
<event>
 6    1  0.1885829E-005  0.2720716E+04  0.7818608E-02  0.8328314E-01
          2   -1    0    0  501    0  0.00000000000E+00  0.00000000000E+00  0.13719214204E+04  0.13719214204E+04  0.00000000000E+00 0.  1.
         -2   -1    0    0    0  501 -0.00000000000E+00 -0.00000000000E+00 -0.13488925015E+04  0.13488925015E+04  0.00000000000E+00 0. -1.
         23    2    1    2    0    0 -0.14837054234E+03  0.47089027406E+03 -0.12543959716E+04  0.13513009358E+04  0.93560128218E+02 0.  0.
         13    1    3    3    0    0 -0.15420834875E+03  0.39907194453E+03 -0.11175516439E+04  0.11966454398E+04  0.00000000000E+00 0. -1.
        -13    1    3    3    0    0  0.58378064083E+01  0.71818329533E+02 -0.13684432765E+03  0.15465549603E+03  0.00000000000E+00 0.  1.
         22    1    1    2    0    0  0.14837054234E+03 -0.47089027406E+03  0.12774248905E+04  0.13695129860E+04  0.00000000000E+00 0.  1.
<mgrwt>
<rscale>  0 0.27207165E+04</rscale>
<asrwt>0</asrwt>
<pdfrwt beam="1">  1        2 0.21106483E+00 0.27207165E+04</pdfrwt>
<pdfrwt beam="2">  1       -2 0.20752192E+00 0.27207165E+04</pdfrwt>
<totfact> 0.15627190E+00</totfact>
</mgrwt>
</event>
<event>
 6    1  0.1885829E-005  0.3464076E+04  0.7818608E-02  0.8122357E-01
         -2   -1    0    0    0  501 -0.00000000000E+00  0.00000000000E+00  0.11738431351E+04  0.11738431351E+04  0.00000000000E+00 0.  1.
          2   -1    0    0  501    0  0.00000000000E+00 -0.00000000000E+00 -0.25556697708E+04  0.25556697708E+04  0.00000000000E+00 0. -1.
         23    2    1    2    0    0 -0.57299247902E+03 -0.84751796758E+03  0.81171678511E+03  0.13091328065E+04  0.91309798690E+02 0.  0.
         13    1    3    3    0    0 -0.52212434635E+03 -0.77973171400E+03  0.70996695548E+03  0.11767108637E+04  0.00000000000E+00 0.  1.
        -13    1    3    3    0    0 -0.50868132677E+02 -0.67786253581E+02  0.10174982963E+03  0.13242194276E+03  0.00000000000E+00 0. -1.
         22    1    1    2    0    0  0.57299247902E+03  0.84751796758E+03 -0.21935434208E+04  0.24203800994E+04  0.00000000000E+00 0. -1.
<mgrwt>
<rscale>  0 0.34640759E+04</rscale>
<asrwt>0</asrwt>
<pdfrwt beam="1">  1        2 0.39317996E+00 0.34640759E+04</pdfrwt>
<pdfrwt beam="2">  1       -2 0.18059125E+00 0.34640759E+04</pdfrwt>
<totfact> 0.47819630E-01</totfact>
</mgrwt>
</event>
<event>
 6    1  0.1885829E-005  0.3840396E+04  0.7818608E-02  0.8037541E-01
          2   -1    0    0  501    0  0.00000000000E+00  0.00000000000E+00  0.17217838251E+04  0.17217838251E+04  0.00000000000E+00 0. -1.
         -2   -1    0    0    0  501 -0.00000000000E+00 -0.00000000000E+00 -0.21414769848E+04  0.21414769848E+04  0.00000000000E+00 0.  1.
         23    2    1    2    0    0 -0.48487515580E+03 -0.68008510835E+03 -0.19480720172E+04  0.21215485479E+04  0.91454829269E+02 0.  0.
         13    1    3    3    0    0 -0.28448134357E+03 -0.33631547733E+03 -0.10929397439E+04  0.11783696445E+04  0.00000000000E+00 0.  1.
        -13    1    3    3    0    0 -0.20039381223E+03 -0.34376963103E+03 -0.85513227326E+03  0.94317890347E+03  0.00000000000E+00 0. -1.
         22    1    1    2    0    0  0.48487515580E+03  0.68008510835E+03  0.15283788575E+04  0.17417122619E+04  0.00000000000E+00 0. -1.
<mgrwt>
<rscale>  0 0.38403960E+04</rscale>
<asrwt>0</asrwt>
<pdfrwt beam="1">  1        2 0.26488982E+00 0.38403960E+04</pdfrwt>
<pdfrwt beam="2">  1       -2 0.32945800E+00 0.38403960E+04</pdfrwt>
<totfact> 0.15941793E-01</totfact>
</mgrwt>
</event>
<event>
 6    1  0.1885829E-005  0.2553673E+04  0.7818608E-02  0.8384110E-01
          2   -1    0    0  501    0  0.00000000000E+00  0.00000000000E+00  0.25644651296E+04  0.25644651296E+04  0.00000000000E+00 0. -1.
         -2   -1    0    0    0  501 -0.00000000000E+00 -0.00000000000E+00 -0.63573163905E+03  0.63573163905E+03  0.00000000000E+00 0.  1.
         23    2    1    2    0    0  0.98510580730E+03 -0.77090178599E+02 -0.43909459997E+02  0.99391107599E+03  0.97748857248E+02 0.  0.
         11    1    3    3    0    0  0.39415091670E+03 -0.25666170567E+01 -0.56220332222E+02  0.39814853813E+03  0.00000000000E+00 0.  1.
        -11    1    3    3    0    0  0.59095489060E+03 -0.74523561543E+02  0.12310872225E+02  0.59576253787E+03  0.00000000000E+00 0. -1.
         22    1    1    2    0    0 -0.98510580730E+03  0.77090178599E+02  0.19726429505E+04  0.22062856926E+04  0.00000000000E+00 0. -1.
<mgrwt>
<rscale>  0 0.25536731E+04</rscale>
<asrwt>0</asrwt>
<pdfrwt beam="1">  1        2 0.39453309E+00 0.25536731E+04</pdfrwt>
<pdfrwt beam="2">  1       -2 0.97804869E-01 0.25536731E+04</pdfrwt>
<totfact> 0.24673252E+00</totfact>
</mgrwt>
</event>
<event>
 6    1  0.1885829E-005  0.2729134E+04  0.7818608E-02  0.8325614E-01
          2   -1    0    0  501    0  0.00000000000E+00  0.00000000000E+00  0.17086342414E+04  0.17086342414E+04  0.00000000000E+00 0. -1.
         -2   -1    0    0    0  501 -0.00000000000E+00 -0.00000000000E+00 -0.10897840996E+04  0.10897840996E+04  0.00000000000E+00 0.  1.
         23    2    1    2    0    0 -0.81122088368E+03 -0.57613469033E+03  0.12652852732E+04  0.16118734061E+04  0.84726329929E+02 0.  0.
         11    1    3    3    0    0 -0.37634107082E+03 -0.21733186395E+03  0.56742667540E+03  0.71472985990E+03  0.00000000000E+00 0.  1.
        -11    1    3    3    0    0 -0.43487981286E+03 -0.35880282638E+03  0.69785859782E+03  0.89714354615E+03  0.00000000000E+00 0. -1.
         22    1    1    2    0    0  0.81122088368E+03  0.57613469033E+03 -0.64643513136E+03  0.11865449349E+04  0.00000000000E+00 0.  1.
<mgrwt>
<rscale>  0 0.27291335E+04</rscale>
<asrwt>0</asrwt>
<pdfrwt beam="1">  1        2 0.26286681E+00 0.27291335E+04</pdfrwt>
<pdfrwt beam="2">  1       -2 0.16765909E+00 0.27291335E+04</pdfrwt>
<totfact> 0.18806159E+00</totfact>
</mgrwt>
</event>
<event>
 6    1  0.1885829E-005  0.3348099E+04  0.7818608E-02  0.8150763E-01
         -2   -1    0    0    0  501 -0.00000000000E+00  0.00000000000E+00  0.31257242999E+04  0.31257242999E+04  0.00000000000E+00 0.  1.
          2   -1    0    0  501    0  0.00000000000E+00 -0.00000000000E+00 -0.89657332596E+03  0.89657332596E+03  0.00000000000E+00 0. -1.
         23    2    1    2    0    0  0.15640574583E+04  0.57458795035E+03  0.93759272468E+03  0.19140875422E+04  0.90686030004E+02 0.  0.
         13    1    3    3    0    0  0.11720575594E+04  0.46773094892E+03  0.68929929426E+03  0.14379237393E+04  0.00000000000E+00 0. -1.
        -13    1    3    3    0    0  0.39199989895E+03  0.10685700143E+03  0.24829343042E+03  0.47616380283E+03  0.00000000000E+00 0.  1.
         22    1    1    2    0    0 -0.15640574583E+04 -0.57458795035E+03  0.12915582492E+04  0.21082100837E+04  0.00000000000E+00 0. -1.
<mgrwt>
<rscale>  0 0.33480986E+04</rscale>
<asrwt>0</asrwt>
<pdfrwt beam="1">  1        2 0.13793436E+00 0.33480986E+04</pdfrwt>
<pdfrwt beam="2">  1       -2 0.48088065E+00 0.33480986E+04</pdfrwt>
<totfact> 0.53367481E-02</totfact>
</mgrwt>
</event>
<event>
 6    1  0.1885829E-005  0.1663933E+04  0.7818608E-02  0.8782206E-01
          2   -1    0    0  501    0  0.00000000000E+00  0.00000000000E+00  0.13060069366E+04  0.13060069366E+04  0.00000000000E+00 0.  1.
         -2   -1    0    0    0  501 -0.00000000000E+00 -0.00000000000E+00 -0.52998826408E+03  0.52998826408E+03  0.00000000000E+00 0. -1.
         23    2    1    2    0    0 -0.26755438887E+03  0.57130342589E+03 -0.20481361056E+03  0.66980271100E+03  0.93349350075E+02 0.  0.
         11    1    3    3    0    0 -0.22773979465E+02  0.13522058056E+03 -0.55173712327E+02  0.14780865360E+03  0.00000000000E+00 0. -1.
        -11    1    3    3    0    0 -0.24478040940E+03  0.43608284533E+03 -0.14963989823E+03  0.52199405740E+03  0.00000000000E+00 0.  1.
         22    1    1    2    0    0  0.26755438887E+03 -0.57130342589E+03  0.98083228305E+03  0.11661924896E+04  0.00000000000E+00 0.  1.
<mgrwt>
<rscale>  0 0.16639331E+04</rscale>
<asrwt>0</asrwt>
<pdfrwt beam="1">  1        2 0.20092414E+00 0.16639331E+04</pdfrwt>
<pdfrwt beam="2">  1       -2 0.81536656E-01 0.16639331E+04</pdfrwt>
<totfact> 0.20723035E+01</totfact>
</mgrwt>
</event>
<event>
 6    1  0.1885829E-005  0.1313935E+04  0.7818608E-02  0.9018587E-01
         -2   -1    0    0    0  501 -0.00000000000E+00  0.00000000000E+00  0.18550585399E+03  0.18550585399E+03  0.00000000000E+00 0.  1.
          2   -1    0    0  501    0  0.00000000000E+00 -0.00000000000E+00 -0.23266450883E+04  0.23266450883E+04  0.00000000000E+00 0. -1.
         23    2    1    2    0    0 -0.29131088724E+03 -0.32100693762E+03 -0.20116127413E+04  0.20597301211E+04  0.89414003018E+02 0.  0.
         11    1    3    3    0    0 -0.16959502169E+03 -0.24873281205E+03 -0.13647662967E+04  0.13975755893E+04  0.00000000000E+00 0.  1.
        -11    1    3    3    0    0 -0.12171586555E+03 -0.72274125562E+02 -0.64684644453E+03  0.66215453178E+03  0.00000000000E+00 0. -1.
         22    1    1    2    0    0  0.29131088724E+03  0.32100693762E+03 -0.12952649302E+03  0.45242082116E+03  0.00000000000E+00 0.  1.
<mgrwt>
<rscale>  0 0.13139350E+04</rscale>
<asrwt>0</asrwt>
<pdfrwt beam="1">  1        2 0.35794541E+00 0.13139350E+04</pdfrwt>
<pdfrwt beam="2">  1       -2 0.28539361E-01 0.13139350E+04</pdfrwt>
<totfact> 0.48387884E+01</totfact>
</mgrwt>
</event>
<event>
 6    1  0.1885829E-005  0.1021667E+04  0.7818608E-02  0.9285095E-01
         -2   -1    0    0    0  501 -0.00000000000E+00  0.00000000000E+00  0.26869450374E+03  0.26869450374E+03  0.00000000000E+00 0.  1.
          2   -1    0    0  501    0  0.00000000000E+00 -0.00000000000E+00 -0.97118001628E+03  0.97118001628E+03  0.00000000000E+00 0. -1.
         23    2    1    2    0    0 -0.47560560821E+03 -0.11646448070E+03 -0.19610418928E+03  0.53546929974E+03  0.92227154785E+02 0.  0.
         13    1    3    3    0    0 -0.32056614587E+03 -0.52525906823E+02 -0.90230296581E+02  0.33713963159E+03  0.00000000000E+00 0.  1.
        -13    1    3    3    0    0 -0.15503946234E+03 -0.63938573874E+02 -0.10587389270E+03  0.19832966815E+03  0.00000000000E+00 0. -1.
         22    1    1    2    0    0  0.47560560821E+03  0.11646448070E+03 -0.50638132325E+03  0.70440522028E+03  0.00000000000E+00 0. -1.
<mgrwt>
<rscale>  0 0.10216667E+04</rscale>
<asrwt>0</asrwt>
<pdfrwt beam="1">  1        2 0.14941231E+00 0.10216667E+04</pdfrwt>
<pdfrwt beam="2">  1       -2 0.41337615E-01 0.10216667E+04</pdfrwt>
<totfact> 0.14526808E+02</totfact>
</mgrwt>
</event>
<event>
 6    1  0.1885829E-005  0.1909635E+04  0.7818608E-02  0.8650075E-01
         -2   -1    0    0    0  501 -0.00000000000E+00  0.00000000000E+00  0.35512063356E+03  0.35512063356E+03  0.00000000000E+00 0.  1.
          2   -1    0    0  501    0  0.00000000000E+00 -0.00000000000E+00 -0.25672297040E+04  0.25672297040E+04  0.00000000000E+00 0. -1.
         23    2    1    2    0    0 -0.21278943816E+03  0.78145095082E+03 -0.18762698295E+04  0.20455761766E+04  0.89713364637E+02 0.  0.
         13    1    3    3    0    0 -0.15867725859E+03  0.69455642653E+03 -0.16472428942E+04  0.17947134185E+04  0.00000000000E+00 0. -1.
        -13    1    3    3    0    0 -0.54112179568E+02  0.86894524285E+02 -0.22902693525E+03  0.25086275809E+03  0.00000000000E+00 0.  1.
         22    1    1    2    0    0  0.21278943816E+03 -0.78145095082E+03 -0.33583924094E+03  0.87677416093E+03  0.00000000000E+00 0.  1.
<mgrwt>
<rscale>  0 0.19096348E+04</rscale>
<asrwt>0</asrwt>
<pdfrwt beam="1">  1        2 0.39495842E+00 0.19096348E+04</pdfrwt>
<pdfrwt beam="2">  1       -2 0.54633944E-01 0.19096348E+04</pdfrwt>
<totfact> 0.93939058E+00</totfact>
</mgrwt>
</event>
<event>
 6    1  0.1885829E-005  0.5682859E+04  0.7818608E-02  0.7731017E-01
         -2   -1    0    0    0  501 -0.00000000000E+00  0.00000000000E+00  0.24027757199E+04  0.24027757199E+04  0.00000000000E+00 0.  1.
          2   -1    0    0  501    0  0.00000000000E+00 -0.00000000000E+00 -0.33601640812E+04  0.33601640812E+04  0.00000000000E+00 0. -1.
         23    2    1    2    0    0  0.11199022232E+04  0.14168819247E+04 -0.27023933983E+04  0.32516098830E+04  0.91111877792E+02 0.  0.
         13    1    3    3    0    0  0.47090618162E+03  0.57012106921E+03 -0.10315143536E+04  0.12691778942E+04  0.00000000000E+00 0. -1.
        -13    1    3    3    0    0  0.64899604158E+03  0.84676085546E+03 -0.16708790447E+04  0.19824319888E+04  0.00000000000E+00 0.  1.
         22    1    1    2    0    0 -0.11199022232E+04 -0.14168819247E+04  0.17450050370E+04  0.25113299180E+04  0.00000000000E+00 0.  1.
<mgrwt>
<rscale>  0 0.56828587E+04</rscale>
<asrwt>0</asrwt>
<pdfrwt beam="1">  1        2 0.51694832E+00 0.56828587E+04</pdfrwt>
<pdfrwt beam="2">  1       -2 0.36965781E+00 0.56828587E+04</pdfrwt>
<totfact> 0.81587672E-03</totfact>
</mgrwt>
</event>
<event>
 6    1  0.1885829E-005  0.9996763E+03  0.7818608E-02  0.9308900E-01
          2   -1    0    0  501    0  0.00000000000E+00  0.00000000000E+00  0.91360191077E+03  0.91360191077E+03  0.00000000000E+00 0. -1.
         -2   -1    0    0    0  501 -0.00000000000E+00 -0.00000000000E+00 -0.27346503779E+03  0.27346503779E+03  0.00000000000E+00 0.  1.
         23    2    1    2    0    0  0.20894851711E+03  0.81728670813E+02 -0.20185694010E+03  0.31569295325E+03  0.92610787890E+02 0.  0.
         13    1    3    3    0    0  0.68206801723E+02  0.65456945154E+02 -0.11747710446E+03  0.15079008437E+03  0.00000000000E+00 0.  1.
        -13    1    3    3    0    0  0.14074171538E+03  0.16271725659E+02 -0.84379835635E+02  0.16490286889E+03  0.00000000000E+00 0. -1.
         22    1    1    2    0    0 -0.20894851711E+03 -0.81728670813E+02  0.84199381308E+03  0.87137399531E+03  0.00000000000E+00 0. -1.
<mgrwt>
<rscale>  0 0.99967631E+03</rscale>
<asrwt>0</asrwt>
<pdfrwt beam="1">  1        2 0.14055414E+00 0.99967631E+03</pdfrwt>
<pdfrwt beam="2">  1       -2 0.42071545E-01 0.99967631E+03</pdfrwt>
<totfact> 0.15336842E+02</totfact>
</mgrwt>
</event>
<event>
 6    1  0.1885829E-005  0.2048902E+04  0.7818608E-02  0.8584093E-01
          2   -1    0    0  501    0  0.00000000000E+00  0.00000000000E+00  0.14591434315E+04  0.14591434315E+04  0.00000000000E+00 0. -1.
         -2   -1    0    0    0  501 -0.00000000000E+00 -0.00000000000E+00 -0.71925766802E+03  0.71925766802E+03  0.00000000000E+00 0.  1.
         23    2    1    2    0    0  0.66818317695E+03 -0.76803967190E+03  0.47145511086E+03  0.11255911875E+04  0.91279264721E+02 0.  0.
         11    1    3    3    0    0  0.10223219455E+03 -0.14429835590E+03  0.49883352090E+02  0.18374380515E+03  0.00000000000E+00 0. -1.
        -11    1    3    3    0    0  0.56595098241E+03 -0.62374131601E+03  0.42157175877E+03  0.94184738232E+03  0.00000000000E+00 0.  1.
         22    1    1    2    0    0 -0.66818317695E+03  0.76803967190E+03  0.26843065258E+03  0.10528099120E+04  0.00000000000E+00 0.  1.
<mgrwt>
<rscale>  0 0.20489022E+04</rscale>
<asrwt>0</asrwt>
<pdfrwt beam="1">  1        2 0.22448360E+00 0.20489022E+04</pdfrwt>
<pdfrwt beam="2">  1       -2 0.11065503E+00 0.20489022E+04</pdfrwt>
<totfact> 0.80252753E+00</totfact>
</mgrwt>
</event>
<event>
 6    1  0.1885829E-005  0.5819937E+03  0.7818608E-02  0.9943484E-01
         -2   -1    0    0    0  501 -0.00000000000E+00  0.00000000000E+00  0.16347175993E+03  0.16347175993E+03  0.00000000000E+00 0.  1.
          2   -1    0    0  501    0  0.00000000000E+00 -0.00000000000E+00 -0.51800488911E+03  0.51800488911E+03  0.00000000000E+00 0. -1.
         23    2    1    2    0    0 -0.24777224292E+03  0.11401602894E+03 -0.27298727836E+03  0.39680057873E+03  0.92400789616E+02 0.  0.
         11    1    3    3    0    0 -0.11374088545E+02  0.33093136449E+02 -0.16374566220E+02  0.38634854590E+02  0.00000000000E+00 0. -1.
        -11    1    3    3    0    0 -0.23639815437E+03  0.80922892489E+02 -0.25661271214E+03  0.35816572415E+03  0.00000000000E+00 0.  1.
         22    1    1    2    0    0  0.24777224292E+03 -0.11401602894E+03 -0.81545850819E+02  0.28467607030E+03  0.00000000000E+00 0.  1.
<mgrwt>
<rscale>  0 0.58199371E+03</rscale>
<asrwt>0</asrwt>
<pdfrwt beam="1">  1        2 0.79693060E-01 0.58199371E+03</pdfrwt>
<pdfrwt beam="2">  1       -2 0.25149501E-01 0.58199371E+03</pdfrwt>
<totfact> 0.84141928E+02</totfact>
</mgrwt>
</event>
<event>
 6    1  0.1885829E-005  0.1971475E+04  0.7818608E-02  0.8620074E-01
          2   -1    0    0  501    0  0.00000000000E+00  0.00000000000E+00  0.12964797226E+04  0.12964797226E+04  0.00000000000E+00 0. -1.
         -2   -1    0    0    0  501 -0.00000000000E+00 -0.00000000000E+00 -0.74947445373E+03  0.74947445373E+03  0.00000000000E+00 0.  1.
         23    2    1    2    0    0 -0.71539004123E+03 -0.65149549506E+03  0.45803494388E+03  0.10742829306E+04  0.89769225979E+02 0.  0.
         13    1    3    3    0    0 -0.35857708282E+03 -0.34494079451E+03  0.18811973162E+03  0.53193111345E+03  0.00000000000E+00 0.  1.
        -13    1    3    3    0    0 -0.35681295841E+03 -0.30655470055E+03  0.26991521226E+03  0.54235181712E+03  0.00000000000E+00 0. -1.
         22    1    1    2    0    0  0.71539004123E+03  0.65149549506E+03  0.88970325017E+02  0.97167124579E+03  0.00000000000E+00 0.  1.
<mgrwt>
<rscale>  0 0.19714750E+04</rscale>
<asrwt>0</asrwt>
<pdfrwt beam="1">  1        2 0.19945842E+00 0.19714750E+04</pdfrwt>
<pdfrwt beam="2">  1       -2 0.11530376E+00 0.19714750E+04</pdfrwt>
<totfact> 0.90631918E+00</totfact>
</mgrwt>
</event>
<event>
 6    1  0.1885829E-005  0.8673820E+03  0.7818608E-02  0.9467300E-01
         -2   -1    0    0    0  501 -0.00000000000E+00  0.00000000000E+00  0.35987323639E+03  0.35987323639E+03  0.00000000000E+00 0.  1.
          2   -1    0    0  501    0  0.00000000000E+00 -0.00000000000E+00 -0.52265034765E+03  0.52265034765E+03  0.00000000000E+00 0. -1.
         23    2    1    2    0    0  0.16347598872E+03 -0.30291384236E+03  0.17801421623E+03  0.39814777574E+03  0.91385969222E+02 0.  0.
         13    1    3    3    0    0  0.10052384841E+03 -0.23343254422E+03  0.90201670966E+02  0.26968896575E+03  0.00000000000E+00 0. -1.
        -13    1    3    3    0    0  0.62952140311E+02 -0.69481298135E+02  0.87812545261E+02  0.12845881000E+03  0.00000000000E+00 0.  1.
         22    1    1    2    0    0 -0.16347598872E+03  0.30291384236E+03 -0.34079132749E+03  0.48437580830E+03  0.00000000000E+00 0. -1.
<mgrwt>
<rscale>  0 0.86738197E+03</rscale>
<asrwt>0</asrwt>
<pdfrwt beam="1">  1        2 0.80407745E-01 0.86738197E+03</pdfrwt>
<pdfrwt beam="2">  1       -2 0.55365114E-01 0.86738197E+03</pdfrwt>
<totfact> 0.18019888E+02</totfact>
</mgrwt>
</event>
<event>
 6    1  0.1885829E-005  0.4266689E+04  0.7818608E-02  0.7952806E-01
          2   -1    0    0  501    0  0.00000000000E+00  0.00000000000E+00  0.32700461791E+04  0.32700461791E+04  0.00000000000E+00 0. -1.
         -2   -1    0    0    0  501 -0.00000000000E+00 -0.00000000000E+00 -0.13917721661E+04  0.13917721661E+04  0.00000000000E+00 0.  1.
         23    2    1    2    0    0 -0.13035890829E+04  0.88396966577E+03  0.25101810593E+04  0.29647463425E+04  0.89247175852E+02 0.  0.
         13    1    3    3    0    0 -0.62400769458E+03  0.40243360949E+03  0.12605715869E+04  0.14630034650E+04  0.00000000000E+00 0.  1.
        -13    1    3    3    0    0 -0.67958138829E+03  0.48153605627E+03  0.12496094723E+04  0.15017428775E+04  0.00000000000E+00 0. -1.
         22    1    1    2    0    0  0.13035890829E+04 -0.88396966577E+03 -0.63190704630E+03  0.16970720026E+04  0.00000000000E+00 0.  1.
<mgrwt>
<rscale>  0 0.42666892E+04</rscale>
<asrwt>0</asrwt>
<pdfrwt beam="1">  1        2 0.50308402E+00 0.42666892E+04</pdfrwt>
<pdfrwt beam="2">  1       -2 0.21411880E+00 0.42666892E+04</pdfrwt>
<totfact> 0.96896268E-02</totfact>
</mgrwt>
</event>
<event>
 6    1  0.1885829E-005  0.3182238E+04  0.7818608E-02  0.8193524E-01
          2   -1    0    0  501    0  0.00000000000E+00  0.00000000000E+00  0.13095826540E+04  0.13095826540E+04  0.00000000000E+00 0. -1.
         -2   -1    0    0    0  501 -0.00000000000E+00 -0.00000000000E+00 -0.19331801090E+04  0.19331801090E+04  0.00000000000E+00 0.  1.
         23    2    1    2    0    0 -0.93913275237E+03 -0.43928844186E+03 -0.15402654277E+04  0.18588462793E+04  0.89147297763E+02 0.  0.
         11    1    3    3    0    0 -0.58254990971E+03 -0.23781284181E+03 -0.87848825589E+03  0.10805836204E+04  0.00000000000E+00 0. -1.
        -11    1    3    3    0    0 -0.35658284266E+03 -0.20147560005E+03 -0.66177717182E+03  0.77826265889E+03  0.00000000000E+00 0.  1.
         22    1    1    2    0    0  0.93913275237E+03  0.43928844186E+03  0.91666797265E+03  0.13839164837E+04  0.00000000000E+00 0. -1.
<mgrwt>
<rscale>  0 0.31822377E+04</rscale>
<asrwt>0</asrwt>
<pdfrwt beam="1">  1        2 0.20147425E+00 0.31822377E+04</pdfrwt>
<pdfrwt beam="2">  1       -2 0.29741233E+00 0.31822377E+04</pdfrwt>
<totfact> 0.45362625E-01</totfact>
</mgrwt>
</event>
<event>
 6    1  0.1885829E-005  0.3157345E+04  0.7818608E-02  0.8200174E-01
          2   -1    0    0  501    0  0.00000000000E+00  0.00000000000E+00  0.24856011919E+04  0.24856011919E+04  0.00000000000E+00 0. -1.
         -2   -1    0    0    0  501 -0.00000000000E+00 -0.00000000000E+00 -0.10026577908E+04  0.10026577908E+04  0.00000000000E+00 0.  1.
         23    2    1    2    0    0 -0.99102241905E+03  0.82214482252E+03  0.17486029622E+04  0.21734880724E+04  0.91599876228E+02 0.  0.
         11    1    3    3    0    0 -0.69052669898E+02  0.86155078483E+02  0.12929066771E+03  0.17002072087E+03  0.00000000000E+00 0. -1.
        -11    1    3    3    0    0 -0.92196974915E+03  0.73598974404E+03  0.16193122944E+04  0.20034673515E+04  0.00000000000E+00 0.  1.
         22    1    1    2    0    0  0.99102241905E+03 -0.82214482252E+03 -0.26565956104E+03  0.13147709103E+04  0.00000000000E+00 0. -1.
<mgrwt>
<rscale>  0 0.31573453E+04</rscale>
<asrwt>0</asrwt>
<pdfrwt beam="1">  1        2 0.38240018E+00 0.31573453E+04</pdfrwt>
<pdfrwt beam="2">  1       -2 0.15425505E+00 0.31573453E+04</pdfrwt>
<totfact> 0.83375890E-01</totfact>
</mgrwt>
</event>
<event>
 6    1  0.1885829E-005  0.2416834E+04  0.7818608E-02  0.8433228E-01
         -2   -1    0    0    0  501 -0.00000000000E+00  0.00000000000E+00  0.19257205270E+04  0.19257205270E+04  0.00000000000E+00 0. -1.
          2   -1    0    0  501    0  0.00000000000E+00 -0.00000000000E+00 -0.75829899765E+03  0.75829899765E+03  0.00000000000E+00 0.  1.
         23    2    1    2    0    0  0.64860415183E+03  0.61714342076E+03 -0.31112953344E+03  0.95553273186E+03  0.12119351270E+03 0.  0.
         13    1    3    3    0    0  0.29355301120E+03  0.35650664663E+03 -0.18387344793E+03  0.49707122662E+03  0.00000000000E+00 0. -1.
        -13    1    3    3    0    0  0.35505114063E+03  0.26063677413E+03 -0.12725608551E+03  0.45846150525E+03  0.00000000000E+00 0.  1.
         22    1    1    2    0    0 -0.64860415183E+03 -0.61714342076E+03  0.14785510628E+04  0.17284867928E+04  0.00000000000E+00 0. -1.
<mgrwt>
<rscale>  0 0.24168342E+04</rscale>
<asrwt>0</asrwt>
<pdfrwt beam="1">  1        2 0.11666138E+00 0.24168342E+04</pdfrwt>
<pdfrwt beam="2">  1       -2 0.29626469E+00 0.24168342E+04</pdfrwt>
<totfact> 0.11123396E+00</totfact>
</mgrwt>
</event>
<event>
 6    1  0.1885829E-005  0.3621233E+04  0.7818608E-02  0.8085645E-01
          2   -1    0    0  501    0  0.00000000000E+00  0.00000000000E+00  0.32076575456E+04  0.32076575456E+04  0.00000000000E+00 0. -1.
         -2   -1    0    0    0  501 -0.00000000000E+00 -0.00000000000E+00 -0.10220328301E+04  0.10220328301E+04  0.00000000000E+00 0.  1.
         23    2    1    2    0    0 -0.99463726060E+03  0.11383567294E+04  0.22550979699E+04  0.27164204537E+04  0.91180613571E+02 0.  0.
         13    1    3    3    0    0 -0.36997727130E+03  0.35919521199E+03  0.78398211735E+03  0.93836684827E+03  0.00000000000E+00 0. -1.
        -13    1    3    3    0    0 -0.62465998929E+03  0.77916151740E+03  0.14711158525E+04  0.17780536055E+04  0.00000000000E+00 0.  1.
         22    1    1    2    0    0  0.99463726060E+03 -0.11383567294E+04 -0.69473254318E+02  0.15132699219E+04  0.00000000000E+00 0.  1.
<mgrwt>
<rscale>  0 0.36212326E+04</rscale>
<asrwt>0</asrwt>
<pdfrwt beam="1">  1        2 0.49348577E+00 0.36212326E+04</pdfrwt>
<pdfrwt beam="2">  1       -2 0.15723582E+00 0.36212326E+04</pdfrwt>
<totfact> 0.27516666E-01</totfact>
</mgrwt>
</event>
<event>
 6    1  0.1885829E-005  0.2173241E+04  0.7818608E-02  0.8529649E-01
         -2   -1    0    0    0  501 -0.00000000000E+00  0.00000000000E+00  0.80522288002E+03  0.80522288002E+03  0.00000000000E+00 0.  1.
          2   -1    0    0  501    0  0.00000000000E+00 -0.00000000000E+00 -0.14663564852E+04  0.14663564852E+04  0.00000000000E+00 0. -1.
         23    2    1    2    0    0 -0.52026075439E+03 -0.22278821733E+03 -0.12983703685E+04  0.14193021011E+04  0.91361905625E+02 0.  0.
         11    1    3    3    0    0 -0.38663328888E+03 -0.16369634045E+03 -0.10545001258E+04  0.11350120295E+04  0.00000000000E+00 0. -1.
        -11    1    3    3    0    0 -0.13362746551E+03 -0.59091876882E+02 -0.24387024279E+03  0.28429007153E+03  0.00000000000E+00 0.  1.
         22    1    1    2    0    0  0.52026075439E+03  0.22278821733E+03  0.63723676339E+03  0.85227726413E+03  0.00000000000E+00 0.  1.
<mgrwt>
<rscale>  0 0.21732407E+04</rscale>
<asrwt>0</asrwt>
<pdfrwt beam="1">  1        2 0.22559330E+00 0.21732407E+04</pdfrwt>
<pdfrwt beam="2">  1       -2 0.12388044E+00 0.21732407E+04</pdfrwt>
<totfact> 0.59596492E+00</totfact>
</mgrwt>
</event>
<event>
 6    1  0.1885829E-005  0.2449952E+04  0.7818608E-02  0.8421036E-01
         -2   -1    0    0    0  501 -0.00000000000E+00  0.00000000000E+00  0.38864072568E+03  0.38864072568E+03  0.00000000000E+00 0.  1.
          2   -1    0    0  501    0  0.00000000000E+00 -0.00000000000E+00 -0.38610615095E+04  0.38610615095E+04  0.00000000000E+00 0. -1.
         23    2    1    2    0    0  0.92908131389E+03  0.79545394665E+03 -0.17014754160E+04  0.20974507246E+04  0.91333902634E+02 0.  0.
         13    1    3    3    0    0  0.27044809497E+03  0.21676571119E+03 -0.41620421562E+03  0.54162301901E+03  0.00000000000E+00 0. -1.
        -13    1    3    3    0    0  0.65863321892E+03  0.57868823546E+03 -0.12852712004E+04  0.15558277056E+04  0.00000000000E+00 0.  1.
         22    1    1    2    0    0 -0.92908131389E+03 -0.79545394665E+03 -0.17709453678E+04  0.21522515106E+04  0.00000000000E+00 0.  1.
<mgrwt>
<rscale>  0 0.24499516E+04</rscale>
<asrwt>0</asrwt>
<pdfrwt beam="1">  1        2 0.59400946E+00 0.24499516E+04</pdfrwt>
<pdfrwt beam="2">  1       -2 0.59790881E-01 0.24499516E+04</pdfrwt>
<totfact> 0.10334471E+00</totfact>
</mgrwt>
</event>
<event>
 6    1  0.1885829E-005  0.2504818E+04  0.7818608E-02  0.8401271E-01
         -2   -1    0    0    0  501 -0.00000000000E+00  0.00000000000E+00  0.87705320769E+03  0.87705320769E+03  0.00000000000E+00 0.  1.
          2   -1    0    0  501    0  0.00000000000E+00 -0.00000000000E+00 -0.17884073079E+04  0.17884073079E+04  0.00000000000E+00 0. -1.
         23    2    1    2    0    0  0.71991055376E+03 -0.10220549350E+04 -0.49522247814E+03  0.13478744567E+04  0.93020172419E+02 0.  0.
         13    1    3    3    0    0  0.57401389418E+03 -0.79988865899E+03 -0.34931004248E+03  0.10446680445E+04  0.00000000000E+00 0.  1.
        -13    1    3    3    0    0  0.14589665958E+03 -0.22216627606E+03 -0.14591243566E+03  0.30320641216E+03  0.00000000000E+00 0. -1.
         22    1    1    2    0    0 -0.71991055376E+03  0.10220549350E+04 -0.41613162204E+03  0.13175860589E+04  0.00000000000E+00 0.  1.
<mgrwt>
<rscale>  0 0.25048181E+04</rscale>
<asrwt>0</asrwt>
<pdfrwt beam="1">  1        2 0.27513959E+00 0.25048181E+04</pdfrwt>
<pdfrwt beam="2">  1       -2 0.13493126E+00 0.25048181E+04</pdfrwt>
<totfact> 0.30846215E+00</totfact>
</mgrwt>
</event>
<event>
 6    1  0.1885829E-005  0.1265468E+04  0.7818608E-02  0.9057407E-01
         -2   -1    0    0    0  501 -0.00000000000E+00  0.00000000000E+00  0.39248432561E+03  0.39248432561E+03  0.00000000000E+00 0. -1.
          2   -1    0    0  501    0  0.00000000000E+00 -0.00000000000E+00 -0.10200458978E+04  0.10200458978E+04  0.00000000000E+00 0.  1.
         23    2    1    2    0    0 -0.57544531640E+03 -0.10885992313E+02 -0.31653813488E+02  0.58406062599E+03  0.94175548447E+02 0.  0.
         11    1    3    3    0    0 -0.23933694360E+03  0.39992203530E+02 -0.26351868868E+02  0.24408189180E+03  0.00000000000E+00 0.  1.
        -11    1    3    3    0    0 -0.33610837280E+03 -0.50878195843E+02 -0.53019446194E+01  0.33997873418E+03  0.00000000000E+00 0. -1.
         22    1    1    2    0    0  0.57544531640E+03  0.10885992313E+02 -0.59590775875E+03  0.82846959747E+03  0.00000000000E+00 0.  1.
<mgrwt>
<rscale>  0 0.12654675E+04</rscale>
<asrwt>0</asrwt>
<pdfrwt beam="1">  1        2 0.15693014E+00 0.12654675E+04</pdfrwt>
<pdfrwt beam="2">  1       -2 0.60382205E-01 0.12654675E+04</pdfrwt>
<totfact> 0.61401097E+01</totfact>
</mgrwt>
</event>
<event>
 6    1  0.1885829E-005  0.7921432E+03  0.7818608E-02  0.9571460E-01
          2   -1    0    0  501    0  0.00000000000E+00  0.00000000000E+00  0.22504918197E+04  0.22504918197E+04  0.00000000000E+00 0. -1.
         -2   -1    0    0    0  501 -0.00000000000E+00 -0.00000000000E+00 -0.69705966637E+02  0.69705966637E+02  0.00000000000E+00 0.  1.
         23    2    1    2    0    0 -0.30029256672E+03 -0.23303111867E+03  0.84300352893E+03  0.92946392443E+03  0.93643521589E+02 0.  0.
         11    1    3    3    0    0 -0.10537281437E+03 -0.36063756150E+02  0.29631590943E+03  0.31655511795E+03  0.00000000000E+00 0. -1.
        -11    1    3    3    0    0 -0.19491975234E+03 -0.19696736252E+03  0.54668761949E+03  0.61290880648E+03  0.00000000000E+00 0.  1.
         22    1    1    2    0    0  0.30029256672E+03  0.23303111867E+03  0.13377823241E+04  0.13907338619E+04  0.00000000000E+00 0. -1.
<mgrwt>
<rscale>  0 0.79214319E+03</rscale>
<asrwt>0</asrwt>
<pdfrwt beam="1">  1        2 0.34622946E+00 0.79214319E+03</pdfrwt>
<pdfrwt beam="2">  1       -2 0.10723997E-01 0.79214319E+03</pdfrwt>
<totfact> 0.30405983E+02</totfact>
</mgrwt>
</event>
<event>
 6    1  0.2749243E-005  0.3399116E+04  0.7818608E-02  0.8138123E-01
         -2   -1    0    0    0  501 -0.00000000000E+00  0.00000000000E+00  0.12609643216E+04  0.12609643216E+04  0.00000000000E+00 0.  1.
          2   -1    0    0  501    0  0.00000000000E+00 -0.00000000000E+00 -0.22907049163E+04  0.22907049163E+04  0.00000000000E+00 0. -1.
         23    2    1    2    0    0 -0.11202343331E+04 -0.46526954806E+03  0.72669838561E+03  0.14170782690E+04  0.92841603556E+02 0.  0.
         11    1    3    3    0    0 -0.62302066324E+03 -0.24200748285E+03  0.34940533884E+03  0.75419258773E+03  0.00000000000E+00 0. -1.
        -11    1    3    3    0    0 -0.49721366983E+03 -0.22326206521E+03  0.37729304677E+03  0.66288568123E+03  0.00000000000E+00 0.  1.
         22    1    1    2    0    0  0.11202343331E+04  0.46526954806E+03 -0.17564389803E+04  0.21345909690E+04  0.00000000000E+00 0. -1.
<mgrwt>
<rscale>  0 0.33991159E+04</rscale>
<asrwt>0</asrwt>
<pdfrwt beam="1">  1        2 0.35241613E+00 0.33991159E+04</pdfrwt>
<pdfrwt beam="2">  1       -2 0.19399451E+00 0.33991159E+04</pdfrwt>
<totfact> 0.55412251E-01</totfact>
</mgrwt>
</event>
<event>
 6    1  0.1885829E-005  0.1717880E+04  0.7818608E-02  0.8751232E-01
         -4   -1    0    0    0  501 -0.00000000000E+00  0.00000000000E+00  0.96778661531E+03  0.96778661531E+03  0.00000000000E+00 0.  1.
          4   -1    0    0  501    0  0.00000000000E+00 -0.00000000000E+00 -0.76233548199E+03  0.76233548199E+03  0.00000000000E+00 0. -1.
         23    2    1    2    0    0 -0.40122148858E+03 -0.72281596696E+03  0.32831252511E+03  0.89433712102E+03  0.92780207499E+02 0.  0.
         11    1    3    3    0    0 -0.18524572681E+03 -0.26014241530E+03  0.15618358728E+03  0.35550438601E+03  0.00000000000E+00 0. -1.
        -11    1    3    3    0    0 -0.21597576176E+03 -0.46267355166E+03  0.17212893784E+03  0.53883273501E+03  0.00000000000E+00 0.  1.
         22    1    1    2    0    0  0.40122148858E+03  0.72281596696E+03 -0.12286139179E+03  0.83578497628E+03  0.00000000000E+00 0.  1.
<mgrwt>
<rscale>  0 0.17178802E+04</rscale>
<asrwt>0</asrwt>
<pdfrwt beam="1">  1        4 0.11728238E+00 0.17178802E+04</pdfrwt>
<pdfrwt beam="2">  1       -4 0.14889025E+00 0.17178802E+04</pdfrwt>
<totfact> 0.32372488E-01</totfact>
</mgrwt>
</event>
<event>
 6    1  0.1885829E-005  0.2255267E+04  0.7818608E-02  0.8495770E-01
          2   -1    0    0  501    0  0.00000000000E+00  0.00000000000E+00  0.22008058325E+04  0.22008058325E+04  0.00000000000E+00 0. -1.
         -2   -1    0    0    0  501 -0.00000000000E+00 -0.00000000000E+00 -0.57776900465E+03  0.57776900465E+03  0.00000000000E+00 0.  1.
         23    2    1    2    0    0 -0.87156642763E+03 -0.73804629575E+02  0.16861323808E+04  0.19016163376E+04  0.89594243992E+02 0.  0.
         11    1    3    3    0    0 -0.49536722080E+03 -0.85227885764E+02  0.94192855422E+03  0.10676525077E+04  0.00000000000E+00 0.  1.
        -11    1    3    3    0    0 -0.37619920684E+03  0.11423256189E+02  0.74420382658E+03  0.83396382985E+03  0.00000000000E+00 0. -1.
         22    1    1    2    0    0  0.87156642763E+03  0.73804629575E+02 -0.63095552993E+02  0.87695849955E+03  0.00000000000E+00 0.  1.
<mgrwt>
<rscale>  0 0.22552671E+04</rscale>
<asrwt>0</asrwt>
<pdfrwt beam="1">  1        2 0.33858551E+00 0.22552671E+04</pdfrwt>
<pdfrwt beam="2">  1       -2 0.88887540E-01 0.22552671E+04</pdfrwt>
<totfact> 0.51041183E+00</totfact>
</mgrwt>
</event>
<event>
 6    1  0.1885829E-005  0.2164658E+04  0.7818608E-02  0.8533284E-01
          2   -1    0    0  501    0  0.00000000000E+00  0.00000000000E+00  0.11061751857E+04  0.11061751857E+04  0.00000000000E+00 0. -1.
         -2   -1    0    0    0  501 -0.00000000000E+00 -0.00000000000E+00 -0.10589972268E+04  0.10589972268E+04  0.00000000000E+00 0.  1.
         23    2    1    2    0    0 -0.53791791415E+02 -0.10712256254E+04 -0.10600502751E+03  0.10817136340E+04  0.91920741370E+02 0.  0.
         11    1    3    3    0    0 -0.30511256188E+02 -0.73782108662E+03 -0.30537912477E+02  0.73908284834E+03  0.00000000000E+00 0. -1.
        -11    1    3    3    0    0 -0.23280535227E+02 -0.33340453880E+03 -0.75467115037E+02  0.34263078564E+03  0.00000000000E+00 0.  1.
         22    1    1    2    0    0  0.53791791415E+02  0.10712256254E+04  0.15318298643E+03  0.10834587785E+04  0.00000000000E+00 0. -1.
<mgrwt>
<rscale>  0 0.21646584E+04</rscale>
<asrwt>0</asrwt>
<pdfrwt beam="1">  1        2 0.17018080E+00 0.21646584E+04</pdfrwt>
<pdfrwt beam="2">  1       -2 0.16292265E+00 0.21646584E+04</pdfrwt>
<totfact> 0.47456192E+00</totfact>
</mgrwt>
</event>
<event>
 6    1  0.1885829E-005  0.1374787E+04  0.7818608E-02  0.8972274E-01
         -2   -1    0    0    0  501 -0.00000000000E+00  0.00000000000E+00  0.12177414408E+03  0.12177414408E+03  0.00000000000E+00 0.  1.
          2   -1    0    0  501    0  0.00000000000E+00 -0.00000000000E+00 -0.38802130698E+04  0.38802130698E+04  0.00000000000E+00 0. -1.
         23    2    1    2    0    0  0.78756057943E+01 -0.26346032425E+02 -0.38780223685E+04  0.38792829419E+04  0.94986917235E+02 0.  0.
         13    1    3    3    0    0  0.46378311259E+02  0.51889810861E+01 -0.23086536473E+04  0.23091252752E+04  0.00000000000E+00 0. -1.
        -13    1    3    3    0    0 -0.38502705465E+02 -0.31535013511E+02 -0.15693687211E+04  0.15701576667E+04  0.00000000000E+00 0.  1.
         22    1    1    2    0    0 -0.78756057943E+01  0.26346032425E+02  0.11958344273E+03  0.12270427200E+03  0.00000000000E+00 0.  1.
<mgrwt>
<rscale>  0 0.13747867E+04</rscale>
<asrwt>0</asrwt>
<pdfrwt beam="1">  1        2 0.59695576E+00 0.13747867E+04</pdfrwt>
<pdfrwt beam="2">  1       -2 0.18734487E-01 0.13747867E+04</pdfrwt>
<totfact> 0.10222231E+01</totfact>
</mgrwt>
</event>
<event>
 6    1  0.1885829E-005  0.1694058E+04  0.7818608E-02  0.8764760E-01
          2   -1    0    0  501    0  0.00000000000E+00  0.00000000000E+00  0.12881135764E+04  0.12881135764E+04  0.00000000000E+00 0. -1.
         -2   -1    0    0    0  501 -0.00000000000E+00 -0.00000000000E+00 -0.55698387521E+03  0.55698387521E+03  0.00000000000E+00 0.  1.
         23    2    1    2    0    0 -0.51479364283E+03  0.29025582971E+03  0.10239005832E+04  0.11855705525E+04  0.89130182178E+02 0.  0.
         13    1    3    3    0    0 -0.36722688474E+03  0.19519872328E+03  0.79396814749E+03  0.89629434098E+03  0.00000000000E+00 0. -1.
        -13    1    3    3    0    0 -0.14756675809E+03  0.95057106433E+02  0.22993243566E+03  0.28927621151E+03  0.00000000000E+00 0.  1.
         22    1    1    2    0    0  0.51479364283E+03 -0.29025582971E+03 -0.29277088194E+03  0.65952689914E+03  0.00000000000E+00 0.  1.
<mgrwt>
<rscale>  0 0.16940584E+04</rscale>
<asrwt>0</asrwt>
<pdfrwt beam="1">  1        2 0.19817132E+00 0.16940584E+04</pdfrwt>
<pdfrwt beam="2">  1       -2 0.85689827E-01 0.16940584E+04</pdfrwt>
<totfact> 0.18918453E+01</totfact>
</mgrwt>
</event>
<event>
 6    1  0.1885829E-005  0.2605387E+04  0.7818608E-02  0.8366374E-01
         -2   -1    0    0    0  501 -0.00000000000E+00  0.00000000000E+00  0.11031775439E+04  0.11031775439E+04  0.00000000000E+00 0.  1.
          2   -1    0    0  501    0  0.00000000000E+00 -0.00000000000E+00 -0.15382929376E+04  0.15382929376E+04  0.00000000000E+00 0. -1.
         23    2    1    2    0    0 -0.27883099436E+03 -0.11791977841E+02  0.10705953153E+04  0.11101147054E+04  0.91074451760E+02 0.  0.
         13    1    3    3    0    0 -0.12737086527E+03  0.26368518504E+02  0.36632910154E+03  0.38873596016E+03  0.00000000000E+00 0.  1.
        -13    1    3    3    0    0 -0.15146012909E+03 -0.38160496345E+02  0.70426621375E+03  0.72137874519E+03  0.00000000000E+00 0. -1.
         22    1    1    2    0    0  0.27883099436E+03  0.11791977841E+02 -0.15057107090E+04  0.15313557762E+04  0.00000000000E+00 0. -1.
<mgrwt>
<rscale>  0 0.26053869E+04</rscale>
<asrwt>0</asrwt>
<pdfrwt beam="1">  1        2 0.23666045E+00 0.26053869E+04</pdfrwt>
<pdfrwt beam="2">  1       -2 0.16971962E+00 0.26053869E+04</pdfrwt>
<totfact> 0.22868838E+00</totfact>
</mgrwt>
</event>
<event>
 6    1  0.1885829E-005  0.6184356E+04  0.7818608E-02  0.7667955E-01
         -2   -1    0    0    0  501 -0.00000000000E+00  0.00000000000E+00  0.22465496629E+04  0.22465496629E+04  0.00000000000E+00 0.  1.
          2   -1    0    0  501    0  0.00000000000E+00 -0.00000000000E+00 -0.42561111447E+04  0.42561111447E+04  0.00000000000E+00 0. -1.
         23    2    1    2    0    0  0.20508341605E+04  0.23131367680E+04 -0.10304035609E+04  0.32599346867E+04  0.94446818010E+02 0.  0.
         13    1    3    3    0    0  0.25078212233E+03  0.24946015970E+03 -0.13945492340E+03  0.38022324997E+03  0.00000000000E+00 0. -1.
        -13    1    3    3    0    0  0.18000520382E+04  0.20636766083E+04 -0.89094863754E+03  0.28797114367E+04  0.00000000000E+00 0.  1.
         22    1    1    2    0    0 -0.20508341605E+04 -0.23131367680E+04 -0.97915792090E+03  0.32427261209E+04  0.00000000000E+00 0.  1.
<mgrwt>
<rscale>  0 0.61843561E+04</rscale>
<asrwt>0</asrwt>
<pdfrwt beam="1">  1        2 0.65478632E+00 0.61843561E+04</pdfrwt>
<pdfrwt beam="2">  1       -2 0.34562303E+00 0.61843561E+04</pdfrwt>
<totfact> 0.22651040E-03</totfact>
</mgrwt>
</event>
<event>
 6    1  0.1885829E-005  0.5180123E+03  0.7818608E-02  0.1009182E+00
         -2   -1    0    0    0  501 -0.00000000000E+00  0.00000000000E+00  0.16094192566E+03  0.16094192566E+03  0.00000000000E+00 0.  1.
          2   -1    0    0  501    0  0.00000000000E+00 -0.00000000000E+00 -0.41682236678E+03  0.41682236678E+03  0.00000000000E+00 0. -1.
         23    2    1    2    0    0 -0.11621708752E+03  0.16955684862E+03 -0.29082932479E+03  0.36925203665E+03  0.97516327193E+02 0.  0.
         13    1    3    3    0    0 -0.79410518636E+02  0.16015727610E+03 -0.18703598491E+03  0.25872542049E+03  0.00000000000E+00 0. -1.
        -13    1    3    3    0    0 -0.36806568885E+02  0.93995725216E+01 -0.10379333988E+03  0.11052661616E+03  0.00000000000E+00 0.  1.
         22    1    1    2    0    0  0.11621708752E+03 -0.16955684862E+03  0.34948883672E+02  0.20851225579E+03  0.00000000000E+00 0.  1.
<mgrwt>
<rscale>  0 0.51801233E+03</rscale>
<asrwt>0</asrwt>
<pdfrwt beam="1">  1        2 0.64126518E-01 0.51801233E+03</pdfrwt>
<pdfrwt beam="2">  1       -2 0.24760296E-01 0.51801233E+03</pdfrwt>
<totfact> 0.11083726E+03</totfact>
</mgrwt>
</event>
<event>
 6    1  0.1885829E-005  0.8692622E+03  0.7818608E-02  0.9464842E-01
         -1   -1    0    0    0  501 -0.00000000000E+00  0.00000000000E+00  0.16180538946E+03  0.16180538946E+03  0.00000000000E+00 0.  1.
          1   -1    0    0  501    0  0.00000000000E+00 -0.00000000000E+00 -0.11674778165E+04  0.11674778165E+04  0.00000000000E+00 0. -1.
         23    2    1    2    0    0 -0.42775481315E+03  0.33771573396E+02 -0.49967738845E+03  0.66584844773E+03  0.97785292684E+02 0.  0.
         11    1    3    3    0    0 -0.12420681682E+03 -0.10197162669E+02 -0.88393097693E+02  0.15278957815E+03  0.00000000000E+00 0.  1.
        -11    1    3    3    0    0 -0.30354799634E+03  0.43968736065E+02 -0.41128429076E+03  0.51305886958E+03  0.00000000000E+00 0. -1.
         22    1    1    2    0    0  0.42775481315E+03 -0.33771573396E+02 -0.50599503858E+03  0.66343475822E+03  0.00000000000E+00 0.  1.
<mgrwt>
<rscale>  0 0.86926222E+03</rscale>
<asrwt>0</asrwt>
<pdfrwt beam="1">  1        1 0.17961197E+00 0.86926222E+03</pdfrwt>
<pdfrwt beam="2">  1       -1 0.24893137E-01 0.86926222E+03</pdfrwt>
<totfact> 0.16057202E+02</totfact>
</mgrwt>
</event>
<event>
 6    1  0.1885829E-005  0.1120662E+04  0.7818608E-02  0.9185284E-01
         -2   -1    0    0    0  501 -0.00000000000E+00  0.00000000000E+00  0.91342118063E+02  0.91342118063E+02  0.00000000000E+00 0.  1.
          2   -1    0    0  501    0  0.00000000000E+00 -0.00000000000E+00 -0.34373048414E+04  0.34373048414E+04  0.00000000000E+00 0. -1.
         23    2    1    2    0    0  0.12544300846E+03  0.14182882285E+01 -0.33917441587E+04  0.33951033347E+04  0.84025325374E+02 0.  0.
         13    1    3    3    0    0  0.56400968209E+02 -0.39450063851E+02 -0.18392964330E+04  0.18405838055E+04  0.00000000000E+00 0. -1.
        -13    1    3    3    0    0  0.69042040251E+02  0.40868352080E+02 -0.15524477257E+04  0.15545195292E+04  0.00000000000E+00 0.  1.
         22    1    1    2    0    0 -0.12544300846E+03 -0.14182882285E+01  0.45781435301E+02  0.13354362482E+03  0.00000000000E+00 0.  1.
<mgrwt>
<rscale>  0 0.11206618E+04</rscale>
<asrwt>0</asrwt>
<pdfrwt beam="1">  1        2 0.52881605E+00 0.11206618E+04</pdfrwt>
<pdfrwt beam="2">  1       -2 0.14052636E-01 0.11206618E+04</pdfrwt>
<totfact> 0.35960119E+01</totfact>
</mgrwt>
</event>
<event>
 6    1  0.1885829E-005  0.2459041E+04  0.7818608E-02  0.8417724E-01
         -2   -1    0    0    0  501 -0.00000000000E+00  0.00000000000E+00  0.73183700230E+03  0.73183700230E+03  0.00000000000E+00 0. -1.
          2   -1    0    0  501    0  0.00000000000E+00 -0.00000000000E+00 -0.20656517258E+04  0.20656517258E+04  0.00000000000E+00 0.  1.
         23    2    1    2    0    0  0.46673095679E+03  0.99857958269E+03 -0.52461034282E+02  0.11072620433E+04  0.90984083911E+02 0.  0.
         11    1    3    3    0    0  0.19195682595E+03  0.50289112056E+03 -0.48909429665E+02  0.54049887556E+03  0.00000000000E+00 0.  1.
        -11    1    3    3    0    0  0.27477413084E+03  0.49568846212E+03 -0.35516046175E+01  0.56676316778E+03  0.00000000000E+00 0. -1.
         22    1    1    2    0    0 -0.46673095679E+03 -0.99857958269E+03 -0.12813536892E+04  0.16902266847E+04  0.00000000000E+00 0.  1.
<mgrwt>
<rscale>  0 0.24590408E+04</rscale>
<asrwt>0</asrwt>
<pdfrwt beam="1">  1        2 0.31779257E+00 0.24590408E+04</pdfrwt>
<pdfrwt beam="2">  1       -2 0.11259031E+00 0.24590408E+04</pdfrwt>
<totfact> 0.34121778E+00</totfact>
</mgrwt>
</event>
<event>
 6    1  0.1885829E-005  0.2041147E+04  0.7818608E-02  0.8587621E-01
         -2   -1    0    0    0  501 -0.00000000000E+00  0.00000000000E+00  0.40873825586E+03  0.40873825586E+03  0.00000000000E+00 0.  1.
          2   -1    0    0  501    0  0.00000000000E+00 -0.00000000000E+00 -0.25482570832E+04  0.25482570832E+04  0.00000000000E+00 0. -1.
         23    2    1    2    0    0  0.87951004553E+03  0.45235941104E+03 -0.71895547772E+03  0.12260513229E+04  0.90210367550E+02 0.  0.
         13    1    3    3    0    0  0.99354858663E+02  0.79619370045E+02 -0.72882709662E+02  0.14670556020E+03  0.00000000000E+00 0. -1.
        -13    1    3    3    0    0  0.78015518686E+03  0.37274004100E+03 -0.64607276806E+03  0.10793457627E+04  0.00000000000E+00 0.  1.
         22    1    1    2    0    0 -0.87951004553E+03 -0.45235941104E+03 -0.14205633497E+04  0.17309440162E+04  0.00000000000E+00 0.  1.
<mgrwt>
<rscale>  0 0.20411469E+04</rscale>
<asrwt>0</asrwt>
<pdfrwt beam="1">  1        2 0.39203955E+00 0.20411469E+04</pdfrwt>
<pdfrwt beam="2">  1       -2 0.62882809E-01 0.20411469E+04</pdfrwt>
<totfact> 0.70861503E+00</totfact>
</mgrwt>
</event>
<event>
 6    1  0.1885829E-005  0.6901100E+03  0.7818608E-02  0.9734296E-01
         -2   -1    0    0    0  501 -0.00000000000E+00  0.00000000000E+00  0.89625452117E+02  0.89625452117E+02  0.00000000000E+00 0. -1.
          2   -1    0    0  501    0  0.00000000000E+00 -0.00000000000E+00 -0.13284503986E+04  0.13284503986E+04  0.00000000000E+00 0.  1.
         23    2    1    2    0    0 -0.18573653858E+03 -0.23220397668E+03 -0.29506552895E+03  0.42858174425E+03  0.90564322912E+02 0.  0.
         11    1    3    3    0    0 -0.84875241637E+02 -0.98734019534E+02 -0.69020310101E+02  0.14736355202E+03  0.00000000000E+00 0. -1.
        -11    1    3    3    0    0 -0.10086129694E+03 -0.13346995714E+03 -0.22604521885E+03  0.28121819224E+03  0.00000000000E+00 0.  1.
         22    1    1    2    0    0  0.18573653858E+03  0.23220397668E+03 -0.94375941753E+03  0.98949410646E+03  0.00000000000E+00 0.  1.
<mgrwt>
<rscale>  0 0.69011004E+03</rscale>
<asrwt>0</asrwt>
<pdfrwt beam="1">  1        2 0.20437699E+00 0.69011004E+03</pdfrwt>
<pdfrwt beam="2">  1       -2 0.13788531E-01 0.69011004E+03</pdfrwt>
<totfact> 0.65022311E+02</totfact>
</mgrwt>
</event>
<event>
 6    1  0.1885829E-005  0.1272915E+04  0.7818608E-02  0.9051324E-01
         -2   -1    0    0    0  501 -0.00000000000E+00  0.00000000000E+00  0.25419732215E+03  0.25419732215E+03  0.00000000000E+00 0. -1.
          2   -1    0    0  501    0  0.00000000000E+00 -0.00000000000E+00 -0.15935567164E+04  0.15935567164E+04  0.00000000000E+00 0.  1.
         23    2    1    2    0    0  0.40493898308E+03 -0.12884037806E+02  0.32962542020E+02  0.41687700847E+03  0.92511256420E+02 0.  0.
         13    1    3    3    0    0  0.24824945001E+02 -0.18367008038E+02  0.19425403514E+02  0.36482477715E+02  0.00000000000E+00 0. -1.
        -13    1    3    3    0    0  0.38011403808E+03  0.54829702319E+01  0.13537138506E+02  0.38039453076E+03  0.00000000000E+00 0.  1.
         22    1    1    2    0    0 -0.40493898308E+03  0.12884037806E+02 -0.13723219363E+04  0.14308770301E+04  0.00000000000E+00 0.  1.
<mgrwt>
<rscale>  0 0.12729145E+04</rscale>
<asrwt>0</asrwt>
<pdfrwt beam="1">  1        2 0.24516257E+00 0.12729145E+04</pdfrwt>
<pdfrwt beam="2">  1       -2 0.39107281E-01 0.12729145E+04</pdfrwt>
<totfact> 0.68232017E+01</totfact>
</mgrwt>
</event>
<event>
 6    1  0.1885829E-005  0.1107566E+04  0.7818608E-02  0.9197849E-01
         -1   -1    0    0    0  501 -0.00000000000E+00  0.00000000000E+00  0.30184664247E+03  0.30184664247E+03  0.00000000000E+00 0.  1.
          1   -1    0    0  501    0  0.00000000000E+00 -0.00000000000E+00 -0.10159980441E+04  0.10159980441E+04  0.00000000000E+00 0. -1.
         23    2    1    2    0    0 -0.95383012944E+02 -0.32670504519E+03 -0.87375945388E+03  0.94193401091E+03  0.89162727317E+02 0.  0.
         13    1    3    3    0    0 -0.40227065677E+02 -0.52992164185E+02 -0.24681620560E+03  0.25562594865E+03  0.00000000000E+00 0. -1.
        -13    1    3    3    0    0 -0.55155947267E+02 -0.27371288101E+03 -0.62694324828E+03  0.68630806225E+03  0.00000000000E+00 0.  1.
         22    1    1    2    0    0  0.95383012944E+02  0.32670504519E+03  0.15960805227E+03  0.37591067564E+03  0.00000000000E+00 0.  1.
<mgrwt>
<rscale>  0 0.11075660E+04</rscale>
<asrwt>0</asrwt>
<pdfrwt beam="1">  1        1 0.15630739E+00 0.11075660E+04</pdfrwt>
<pdfrwt beam="2">  1       -1 0.46437944E-01 0.11075660E+04</pdfrwt>
<totfact> 0.67572549E+01</totfact>
</mgrwt>
</event>
<event>
 6    1  0.1885829E-005  0.2825910E+04  0.7818608E-02  0.8295269E-01
         -2   -1    0    0    0  501 -0.00000000000E+00  0.00000000000E+00  0.19592466469E+04  0.19592466469E+04  0.00000000000E+00 0.  1.
          2   -1    0    0  501    0  0.00000000000E+00 -0.00000000000E+00 -0.10189844774E+04  0.10189844774E+04  0.00000000000E+00 0. -1.
         23    2    1    2    0    0 -0.67952016056E+03  0.57405056332E+03  0.16256071372E+04  0.18552977236E+04  0.90826101432E+02 0.  0.
         13    1    3    3    0    0 -0.45560471239E+03  0.32744523124E+03  0.10176734955E+04  0.11620909503E+04  0.00000000000E+00 0. -1.
        -13    1    3    3    0    0 -0.22391544817E+03  0.24660533209E+03  0.60793364174E+03  0.69320677326E+03  0.00000000000E+00 0.  1.
         22    1    1    2    0    0  0.67952016056E+03 -0.57405056332E+03 -0.68534496772E+03  0.11229334008E+04  0.00000000000E+00 0. -1.
<mgrwt>
<rscale>  0 0.28259101E+04</rscale>
<asrwt>0</asrwt>
<pdfrwt beam="1">  1        2 0.15676684E+00 0.28259101E+04</pdfrwt>
<pdfrwt beam="2">  1       -2 0.30142256E+00 0.28259101E+04</pdfrwt>
<totfact> 0.66251297E-01</totfact>
</mgrwt>
</event>
<event>
 6    1  0.1885829E-005  0.2075750E+04  0.7818608E-02  0.8572002E-01
         -2   -1    0    0    0  501 -0.00000000000E+00  0.00000000000E+00  0.89949819775E+03  0.89949819775E+03  0.00000000000E+00 0.  1.
          2   -1    0    0  501    0  0.00000000000E+00 -0.00000000000E+00 -0.11975394656E+04  0.11975394656E+04  0.00000000000E+00 0. -1.
         23    2    1    2    0    0 -0.43952859597E+03  0.77638197816E+01  0.79827346295E+03  0.91587228435E+03  0.91300909158E+02 0.  0.
         11    1    3    3    0    0 -0.12720434995E+03 -0.34032033674E+02  0.19561586906E+03  0.23580647614E+03  0.00000000000E+00 0.  1.
        -11    1    3    3    0    0 -0.31232424602E+03  0.41795853456E+02  0.60265759389E+03  0.68006580821E+03  0.00000000000E+00 0. -1.
         22    1    1    2    0    0  0.43952859597E+03 -0.77638197816E+01 -0.10963147308E+04  0.11811653790E+04  0.00000000000E+00 0. -1.
<mgrwt>
<rscale>  0 0.20757501E+04</rscale>
<asrwt>0</asrwt>
<pdfrwt beam="1">  1        2 0.18423684E+00 0.20757501E+04</pdfrwt>
<pdfrwt beam="2">  1       -2 0.13838434E+00 0.20757501E+04</pdfrwt>
<totfact> 0.64964585E+00</totfact>
</mgrwt>
</event>
<event>
 6    1  0.1885829E-005  0.2506942E+04  0.7818608E-02  0.8400517E-01
          2   -1    0    0  501    0  0.00000000000E+00  0.00000000000E+00  0.22241200405E+04  0.22241200405E+04  0.00000000000E+00 0. -1.
         -2   -1    0    0    0  501 -0.00000000000E+00 -0.00000000000E+00 -0.70643210631E+03  0.70643210631E+03  0.00000000000E+00 0.  1.
         23    2    1    2    0    0 -0.39744642772E+02  0.82129865976E+03 -0.34353185076E+03  0.89579166629E+03  0.91200064408E+02 0.  0.
         13    1    3    3    0    0 -0.59548473101E+01  0.14338560235E+03 -0.23680248744E+02  0.14544980353E+03  0.00000000000E+00 0. -1.
        -13    1    3    3    0    0 -0.33789795462E+02  0.67791305741E+03 -0.31985160202E+03  0.75034186275E+03  0.00000000000E+00 0.  1.
         22    1    1    2    0    0  0.39744642772E+02 -0.82129865976E+03  0.18612197849E+04  0.20347604805E+04  0.00000000000E+00 0. -1.
<mgrwt>
<rscale>  0 0.25069422E+04</rscale>
<asrwt>0</asrwt>
<pdfrwt beam="1">  1        2 0.34217231E+00 0.25069422E+04</pdfrwt>
<pdfrwt beam="2">  1       -2 0.10868186E+00 0.25069422E+04</pdfrwt>
<totfact> 0.30174149E+00</totfact>
</mgrwt>
</event>
<event>
 6    1  0.1885829E-005  0.6752718E+03  0.7818608E-02  0.9760481E-01
          3   -1    0    0  501    0  0.00000000000E+00  0.00000000000E+00  0.26626000439E+03  0.26626000439E+03  0.00000000000E+00 0. -1.
         -3   -1    0    0    0  501 -0.00000000000E+00 -0.00000000000E+00 -0.42814535696E+03  0.42814535696E+03  0.00000000000E+00 0.  1.
         23    2    1    2    0    0  0.23717313978E+03  0.13478702475E+03 -0.27674487107E+03  0.39841321743E+03  0.87901808208E+02 0.  0.
         13    1    3    3    0    0  0.13350442052E+03  0.11001210860E+03 -0.12698638440E+03  0.21459644955E+03  0.00000000000E+00 0. -1.
        -13    1    3    3    0    0  0.10366871926E+03  0.24774916149E+02 -0.14975848668E+03  0.18381676788E+03  0.00000000000E+00 0.  1.
         22    1    1    2    0    0 -0.23717313978E+03 -0.13478702475E+03  0.11485951851E+03  0.29599214392E+03  0.00000000000E+00 0. -1.
<mgrwt>
<rscale>  0 0.67527175E+03</rscale>
<asrwt>0</asrwt>
<pdfrwt beam="1">  1        3 0.40963078E-01 0.67527175E+03</pdfrwt>
<pdfrwt beam="2">  1       -3 0.65868516E-01 0.67527175E+03</pdfrwt>
<totfact> 0.34750625E+01</totfact>
</mgrwt>
</event>
<event>
 6    1  0.1885829E-005  0.4214812E+04  0.7818608E-02  0.7962561E-01
          1   -1    0    0  501    0  0.00000000000E+00  0.00000000000E+00  0.33105788191E+04  0.33105788191E+04  0.00000000000E+00 0. -1.
         -1   -1    0    0    0  501 -0.00000000000E+00 -0.00000000000E+00 -0.13415054344E+04  0.13415054344E+04  0.00000000000E+00 0.  1.
         23    2    1    2    0    0 -0.12210236932E+04 -0.13178610331E+02 -0.90944816387E+03  0.15252713649E+04  0.91017792746E+02 0.  0.
         11    1    3    3    0    0 -0.95909477187E+03  0.27040634489E+02 -0.71041192807E+03  0.11938505287E+04  0.00000000000E+00 0. -1.
        -11    1    3    3    0    0 -0.26192892132E+03 -0.40219244820E+02 -0.19903623579E+03  0.33142083615E+03  0.00000000000E+00 0.  1.
         22    1    1    2    0    0  0.12210236932E+04  0.13178610331E+02  0.28785215485E+04  0.31268128886E+04  0.00000000000E+00 0. -1.
<mgrwt>
<rscale>  0 0.42148117E+04</rscale>
<asrwt>0</asrwt>
<pdfrwt beam="1">  1        1 0.50931982E+00 0.42148117E+04</pdfrwt>
<pdfrwt beam="2">  1       -1 0.20638545E+00 0.42148117E+04</pdfrwt>
<totfact> 0.36642584E-02</totfact>
</mgrwt>
</event>
<event>
 6    1  0.1885829E-005  0.3339077E+04  0.7818608E-02  0.8153023E-01
          2   -1    0    0  501    0  0.00000000000E+00  0.00000000000E+00  0.21304190480E+04  0.21304190480E+04  0.00000000000E+00 0. -1.
         -2   -1    0    0    0  501 -0.00000000000E+00 -0.00000000000E+00 -0.13083615777E+04  0.13083615777E+04  0.00000000000E+00 0.  1.
         23    2    1    2    0    0  0.29827855274E+02 -0.85254289861E+03  0.18878630812E+04  0.20736210397E+04  0.90322244487E+02 0.  0.
         11    1    3    3    0    0  0.40919735911E+02 -0.16000218737E+03  0.35458783896E+03  0.39116193615E+03  0.00000000000E+00 0.  1.
        -11    1    3    3    0    0 -0.11091880636E+02 -0.69254071124E+03  0.15332752423E+04  0.16824591035E+04  0.00000000000E+00 0. -1.
         22    1    1    2    0    0 -0.29827855274E+02  0.85254289861E+03 -0.10658056109E+04  0.13651595860E+04  0.00000000000E+00 0.  1.
<mgrwt>
<rscale>  0 0.33390768E+04</rscale>
<asrwt>0</asrwt>
<pdfrwt beam="1">  1        2 0.32775678E+00 0.33390768E+04</pdfrwt>
<pdfrwt beam="2">  1       -2 0.20128640E+00 0.33390768E+04</pdfrwt>
<totfact> 0.61360134E-01</totfact>
</mgrwt>
</event>
<event>
 6    1  0.1885829E-005  0.3614261E+04  0.7818608E-02  0.8087233E-01
         -2   -1    0    0    0  501 -0.00000000000E+00  0.00000000000E+00  0.24560226887E+04  0.24560226887E+04  0.00000000000E+00 0.  1.
          2   -1    0    0  501    0  0.00000000000E+00 -0.00000000000E+00 -0.13296784418E+04  0.13296784418E+04  0.00000000000E+00 0. -1.
         23    2    1    2    0    0 -0.85248013511E+02  0.10855401464E+04  0.20726778286E+04  0.23430605374E+04  0.90965198747E+02 0.  0.
         13    1    3    3    0    0 -0.69879063897E+02  0.43995442130E+03  0.78756566523E+03  0.90482189045E+03  0.00000000000E+00 0. -1.
        -13    1    3    3    0    0 -0.15368949613E+02  0.64558572515E+03  0.12851121633E+04  0.14382386469E+04  0.00000000000E+00 0.  1.
         22    1    1    2    0    0  0.85248013511E+02 -0.10855401464E+04 -0.94633358166E+03  0.14426405932E+04  0.00000000000E+00 0. -1.
<mgrwt>
<rscale>  0 0.36142609E+04</rscale>
<asrwt>0</asrwt>
<pdfrwt beam="1">  1        2 0.20456591E+00 0.36142609E+04</pdfrwt>
<pdfrwt beam="2">  1       -2 0.37784964E+00 0.36142609E+04</pdfrwt>
<totfact> 0.13360583E-01</totfact>
</mgrwt>
</event>
<event>
 6    1  0.1885829E-005  0.1112917E+04  0.7818608E-02  0.9192693E-01
         -2   -1    0    0    0  501 -0.00000000000E+00  0.00000000000E+00  0.97045328836E+02  0.97045328836E+02  0.00000000000E+00 0.  1.
          2   -1    0    0  501    0  0.00000000000E+00 -0.00000000000E+00 -0.31907367134E+04  0.31907367134E+04  0.00000000000E+00 0. -1.
         23    2    1    2    0    0 -0.28012432213E+03 -0.38632813132E+03 -0.73559584086E+03  0.88188643890E+03  0.94357771984E+02 0.  0.
         11    1    3    3    0    0 -0.21621461396E+03 -0.35342617547E+03 -0.61676166195E+03  0.74300320891E+03  0.00000000000E+00 0. -1.
        -11    1    3    3    0    0 -0.63909708161E+02 -0.32901955852E+02 -0.11883417892E+03  0.13888323000E+03  0.00000000000E+00 0.  1.
         22    1    1    2    0    0  0.28012432213E+03  0.38632813132E+03 -0.23580955437E+04  0.24058956033E+04  0.00000000000E+00 0. -1.
<mgrwt>
<rscale>  0 0.11129171E+04</rscale>
<asrwt>0</asrwt>
<pdfrwt beam="1">  1        2 0.49088259E+00 0.11129171E+04</pdfrwt>
<pdfrwt beam="2">  1       -2 0.14930050E-01 0.11129171E+04</pdfrwt>
<totfact> 0.47233279E+01</totfact>
</mgrwt>
</event>
<event>
 6    1  0.1885829E-005  0.1866475E+04  0.7818608E-02  0.8671726E-01
         -1   -1    0    0    0  501 -0.00000000000E+00  0.00000000000E+00  0.30395580386E+03  0.30395580386E+03  0.00000000000E+00 0.  1.
          1   -1    0    0  501    0  0.00000000000E+00 -0.00000000000E+00 -0.28653246549E+04  0.28653246549E+04  0.00000000000E+00 0. -1.
         23    2    1    2    0    0  0.34712645318E+03  0.39958106370E+03  0.16942458551E+02  0.53719934106E+03  0.90190266463E+02 0.  0.
         13    1    3    3    0    0  0.21111201875E+02  0.68995881471E+02 -0.54731719702E+01  0.72360694552E+02  0.00000000000E+00 0. -1.
        -13    1    3    3    0    0  0.32601525130E+03  0.33058518223E+03  0.22415630522E+02  0.46483864651E+03  0.00000000000E+00 0.  1.
         22    1    1    2    0    0 -0.34712645318E+03 -0.39958106370E+03 -0.25783113096E+04  0.26320811177E+04  0.00000000000E+00 0. -1.
<mgrwt>
<rscale>  0 0.18664748E+04</rscale>
<asrwt>0</asrwt>
<pdfrwt beam="1">  1        1 0.44081916E+00 0.18664748E+04</pdfrwt>
<pdfrwt beam="2">  1       -1 0.46762433E-01 0.18664748E+04</pdfrwt>
<totfact> 0.32059700E+00</totfact>
</mgrwt>
</event>
<event>
 6    1  0.1885829E-005  0.2605203E+04  0.7818608E-02  0.8366436E-01
         -2   -1    0    0    0  501 -0.00000000000E+00  0.00000000000E+00  0.44892275032E+03  0.44892275032E+03  0.00000000000E+00 0.  1.
          2   -1    0    0  501    0  0.00000000000E+00 -0.00000000000E+00 -0.37796506902E+04  0.37796506902E+04  0.00000000000E+00 0. -1.
         23    2    1    2    0    0 -0.66967997088E+03 -0.86173976640E+03 -0.28169172782E+04  0.30223114108E+04  0.90975947451E+02 0.  0.
         11    1    3    3    0    0 -0.49398849097E+03 -0.66396392828E+03 -0.22269484022E+04  0.23757466013E+04  0.00000000000E+00 0.  1.
        -11    1    3    3    0    0 -0.17569147991E+03 -0.19777583812E+03 -0.58996887598E+03  0.64656480950E+03  0.00000000000E+00 0. -1.
         22    1    1    2    0    0  0.66967997088E+03  0.86173976640E+03 -0.51381066168E+03  0.12062620298E+04  0.00000000000E+00 0.  1.
<mgrwt>
<rscale>  0 0.26052034E+04</rscale>
<asrwt>0</asrwt>
<pdfrwt beam="1">  1        2 0.58148473E+00 0.26052034E+04</pdfrwt>
<pdfrwt beam="2">  1       -2 0.69065038E-01 0.26052034E+04</pdfrwt>
<totfact> 0.86265608E-01</totfact>
</mgrwt>
</event>
<event>
 6    1  0.1885829E-005  0.2571913E+04  0.7818608E-02  0.8377805E-01
          2   -1    0    0  501    0  0.00000000000E+00  0.00000000000E+00  0.10216657941E+04  0.10216657941E+04  0.00000000000E+00 0.  1.
         -2   -1    0    0    0  501 -0.00000000000E+00 -0.00000000000E+00 -0.16186151899E+04  0.16186151899E+04  0.00000000000E+00 0. -1.
         23    2    1    2    0    0  0.12086984418E+04  0.40417567668E+03 -0.46177135615E+03  0.13586480400E+04  0.91552228277E+02 0.  0.
         13    1    3    3    0    0  0.56753599828E+03  0.14640646892E+03 -0.19095450796E+03  0.61643782135E+03  0.00000000000E+00 0. -1.
        -13    1    3    3    0    0  0.64116244348E+03  0.25776920776E+03 -0.27081684819E+03  0.74221021864E+03  0.00000000000E+00 0.  1.
         22    1    1    2    0    0 -0.12086984418E+04 -0.40417567668E+03 -0.13517803975E+03  0.12816329440E+04  0.00000000000E+00 0.  1.
<mgrwt>
<rscale>  0 0.25719127E+04</rscale>
<asrwt>0</asrwt>
<pdfrwt beam="1">  1        2 0.15717935E+00 0.25719127E+04</pdfrwt>
<pdfrwt beam="2">  1       -2 0.24901772E+00 0.25719127E+04</pdfrwt>
<totfact> 0.14093443E+00</totfact>
</mgrwt>
</event>
<event>
 6    1  0.1885829E-005  0.1843270E+04  0.7818608E-02  0.8683622E-01
         -2   -1    0    0    0  501 -0.00000000000E+00  0.00000000000E+00  0.20340233838E+04  0.20340233838E+04  0.00000000000E+00 0.  1.
          2   -1    0    0  501    0  0.00000000000E+00 -0.00000000000E+00 -0.41760122925E+03  0.41760122925E+03  0.00000000000E+00 0. -1.
         23    2    1    2    0    0 -0.55219424164E+03 -0.71895940756E+03  0.10135674608E+04  0.13629304907E+04  0.91866287365E+02 0.  0.
         11    1    3    3    0    0 -0.36058634872E+03 -0.40259800872E+03  0.63056181348E+03  0.83049134380E+03  0.00000000000E+00 0. -1.
        -11    1    3    3    0    0 -0.19160789292E+03 -0.31636139884E+03  0.38300564732E+03  0.53243914693E+03  0.00000000000E+00 0.  1.
         22    1    1    2    0    0  0.55219424164E+03  0.71895940756E+03  0.60285469379E+03  0.10886941224E+04  0.00000000000E+00 0. -1.
<mgrwt>
<rscale>  0 0.18432696E+04</rscale>
<asrwt>0</asrwt>
<pdfrwt beam="1">  1        2 0.64246344E-01 0.18432696E+04</pdfrwt>
<pdfrwt beam="2">  1       -2 0.31292667E+00 0.18432696E+04</pdfrwt>
<totfact> 0.18901341E+00</totfact>
</mgrwt>
</event>
<event>
 6    1  0.1885829E-005  0.3211851E+04  0.7818608E-02  0.8185694E-01
         -1   -1    0    0    0  501 -0.00000000000E+00  0.00000000000E+00  0.11891020015E+04  0.11891020015E+04  0.00000000000E+00 0.  1.
          1   -1    0    0  501    0  0.00000000000E+00 -0.00000000000E+00 -0.21688612144E+04  0.21688612144E+04  0.00000000000E+00 0. -1.
         23    2    1    2    0    0  0.95062792762E+03  0.26941907981E+03 -0.18121118690E+04  0.20660301520E+04  0.91929679924E+02 0.  0.
         13    1    3    3    0    0  0.42692734285E+03  0.74932960986E+02 -0.81408136619E+03  0.92228540891E+03  0.00000000000E+00 0. -1.
        -13    1    3    3    0    0  0.52370058477E+03  0.19448611882E+03 -0.99803050277E+03  0.11437447431E+04  0.00000000000E+00 0.  1.
         22    1    1    2    0    0 -0.95062792762E+03 -0.26941907981E+03  0.83235265608E+03  0.12919330638E+04  0.00000000000E+00 0.  1.
<mgrwt>
<rscale>  0 0.32118513E+04</rscale>
<asrwt>0</asrwt>
<pdfrwt beam="1">  1        1 0.33367095E+00 0.32118513E+04</pdfrwt>
<pdfrwt beam="2">  1       -1 0.18293877E+00 0.32118513E+04</pdfrwt>
<totfact> 0.37907471E-01</totfact>
</mgrwt>
</event>
<event>
 6    1  0.1885829E-005  0.2145178E+04  0.7818608E-02  0.8541599E-01
         -2   -1    0    0    0  501 -0.00000000000E+00  0.00000000000E+00  0.36014115476E+03  0.36014115476E+03  0.00000000000E+00 0.  1.
          2   -1    0    0  501    0  0.00000000000E+00 -0.00000000000E+00 -0.31944333722E+04  0.31944333722E+04  0.00000000000E+00 0. -1.
         23    2    1    2    0    0 -0.19866972712E+03  0.15334052228E+03 -0.31443842786E+04  0.31556508969E+04  0.89426589404E+02 0.  0.
         13    1    3    3    0    0 -0.13330259683E+03  0.74719500606E+02 -0.23054282839E+04  0.23104874287E+04  0.00000000000E+00 0. -1.
        -13    1    3    3    0    0 -0.65367130286E+02  0.78621021669E+02 -0.83895599474E+03  0.84516346814E+03  0.00000000000E+00 0.  1.
         22    1    1    2    0    0  0.19866972712E+03 -0.15334052228E+03  0.31009206119E+03  0.39892363011E+03  0.00000000000E+00 0.  1.
<mgrwt>
<rscale>  0 0.21451778E+04</rscale>
<asrwt>0</asrwt>
<pdfrwt beam="1">  1        2 0.49145129E+00 0.21451778E+04</pdfrwt>
<pdfrwt beam="2">  1       -2 0.55406332E-01 0.21451778E+04</pdfrwt>
<totfact> 0.36846393E+00</totfact>
</mgrwt>
</event>
<event>
 6    1  0.1885829E-005  0.1333529E+04  0.7818608E-02  0.9003391E-01
          2   -1    0    0  501    0  0.00000000000E+00  0.00000000000E+00  0.12886496730E+04  0.12886496730E+04  0.00000000000E+00 0. -1.
         -2   -1    0    0    0  501 -0.00000000000E+00 -0.00000000000E+00 -0.34499292598E+03  0.34499292598E+03  0.00000000000E+00 0.  1.
         23    2    1    2    0    0 -0.36323702022E+03 -0.16088371640E+03 -0.17726718014E+03  0.44440117960E+03  0.90796763234E+02 0.  0.
         13    1    3    3    0    0 -0.10150221117E+03 -0.74846744976E+02 -0.21593248300E+02  0.12794921836E+03  0.00000000000E+00 0. -1.
        -13    1    3    3    0    0 -0.26173480905E+03 -0.86036971428E+02 -0.15567393184E+03  0.31645196124E+03  0.00000000000E+00 0.  1.
         22    1    1    2    0    0  0.36323702022E+03  0.16088371640E+03  0.11209239272E+04  0.11892414194E+04  0.00000000000E+00 0. -1.
<mgrwt>
<rscale>  0 0.13335292E+04</rscale>
<asrwt>0</asrwt>
<pdfrwt beam="1">  1        2 0.19825379E+00 0.13335292E+04</pdfrwt>
<pdfrwt beam="2">  1       -2 0.53075835E-01 0.13335292E+04</pdfrwt>
<totfact> 0.54936472E+01</totfact>
</mgrwt>
</event>
<event>
 6    1  0.1885829E-005  0.1714198E+04  0.7818608E-02  0.8753308E-01
         -2   -1    0    0    0  501 -0.00000000000E+00  0.00000000000E+00  0.27203647018E+03  0.27203647018E+03  0.00000000000E+00 0.  1.
          2   -1    0    0  501    0  0.00000000000E+00 -0.00000000000E+00 -0.27004406675E+04  0.27004406675E+04  0.00000000000E+00 0. -1.
         23    2    1    2    0    0 -0.87674485801E+02 -0.71901888685E+03 -0.20043434939E+04  0.21331306923E+04  0.90436353567E+02 0.  0.
         11    1    3    3    0    0 -0.10372572350E+03 -0.59402676207E+03 -0.16970498195E+04  0.18010010854E+04  0.00000000000E+00 0. -1.
        -11    1    3    3    0    0  0.16051237703E+02 -0.12499212478E+03 -0.30729367435E+03  0.33212960690E+03  0.00000000000E+00 0.  1.
         22    1    1    2    0    0  0.87674485801E+02  0.71901888685E+03 -0.42406070346E+03  0.83934644535E+03  0.00000000000E+00 0.  1.
<mgrwt>
<rscale>  0 0.17141976E+04</rscale>
<asrwt>0</asrwt>
<pdfrwt beam="1">  1        2 0.41545242E+00 0.17141976E+04</pdfrwt>
<pdfrwt beam="2">  1       -2 0.41851764E-01 0.17141976E+04</pdfrwt>
<totfact> 0.13683030E+01</totfact>
</mgrwt>
</event>
<event>
 6    1  0.1885829E-005  0.1578939E+04  0.7818608E-02  0.8833592E-01
         -2   -1    0    0    0  501 -0.00000000000E+00  0.00000000000E+00  0.14099501466E+04  0.14099501466E+04  0.00000000000E+00 0. -1.
          2   -1    0    0  501    0  0.00000000000E+00 -0.00000000000E+00 -0.44204553816E+03  0.44204553816E+03  0.00000000000E+00 0.  1.
         23    2    1    2    0    0 -0.79671535784E+02 -0.75216183299E+03  0.23101241579E+03  0.79601032493E+03  0.90392060040E+02 0.  0.
         13    1    3    3    0    0 -0.58410126724E+02 -0.21312165052E+03  0.46091324693E+02  0.22573655229E+03  0.00000000000E+00 0. -1.
        -13    1    3    3    0    0 -0.21261409060E+02 -0.53904018247E+03  0.18492109110E+03  0.57027377264E+03  0.00000000000E+00 0.  1.
         22    1    1    2    0    0  0.79671535784E+02  0.75216183299E+03  0.73689219268E+03  0.10559853599E+04  0.00000000000E+00 0. -1.
<mgrwt>
<rscale>  0 0.15789391E+04</rscale>
<asrwt>0</asrwt>
<pdfrwt beam="1">  1        2 0.68007007E-01 0.15789391E+04</pdfrwt>
<pdfrwt beam="2">  1       -2 0.21691540E+00 0.15789391E+04</pdfrwt>
<totfact> 0.70441573E+00</totfact>
</mgrwt>
</event>
<event>
 6    1  0.1885829E-005  0.2570072E+04  0.7818608E-02  0.8378439E-01
         -1   -1    0    0    0  501 -0.00000000000E+00  0.00000000000E+00  0.14546278793E+04  0.14546278793E+04  0.00000000000E+00 0.  1.
          1   -1    0    0  501    0  0.00000000000E+00 -0.00000000000E+00 -0.11352166031E+04  0.11352166031E+04  0.00000000000E+00 0. -1.
         23    2    1    2    0    0  0.55153289951E+03  0.13871644473E+03  0.13193577877E+04  0.14394863569E+04  0.89359993383E+02 0.  0.
         11    1    3    3    0    0  0.22130006734E+03  0.10000969550E+03  0.58162203016E+03  0.63028552655E+03  0.00000000000E+00 0.  1.
        -11    1    3    3    0    0  0.33023283217E+03  0.38706749224E+02  0.73773575750E+03  0.80920083031E+03  0.00000000000E+00 0. -1.
         22    1    1    2    0    0 -0.55153289951E+03 -0.13871644473E+03 -0.99994651147E+03  0.11503581256E+04  0.00000000000E+00 0. -1.
<mgrwt>
<rscale>  0 0.25700722E+04</rscale>
<asrwt>0</asrwt>
<pdfrwt beam="1">  1        1 0.17464871E+00 0.25700722E+04</pdfrwt>
<pdfrwt beam="2">  1       -1 0.22378891E+00 0.25700722E+04</pdfrwt>
<totfact> 0.10936652E+00</totfact>
</mgrwt>
</event>
<event>
 6    1  0.1885829E-005  0.2773043E+04  0.7818608E-02  0.8311687E-01
         -1   -1    0    0    0  501 -0.00000000000E+00  0.00000000000E+00  0.12014909351E+04  0.12014909351E+04  0.00000000000E+00 0.  1.
          1   -1    0    0  501    0  0.00000000000E+00 -0.00000000000E+00 -0.16000469547E+04  0.16000469547E+04  0.00000000000E+00 0. -1.
         23    2    1    2    0    0 -0.72957512317E+03 -0.48252944506E+03 -0.12844227398E+04  0.15565983846E+04  0.90234309298E+02 0.  0.
         13    1    3    3    0    0 -0.44533714108E+03 -0.29744068174E+03 -0.86258272457E+03  0.10153054147E+04  0.00000000000E+00 0. -1.
        -13    1    3    3    0    0 -0.28423798209E+03 -0.18508876333E+03 -0.42184001527E+03  0.54129296989E+03  0.00000000000E+00 0.  1.
         22    1    1    2    0    0  0.72957512317E+03  0.48252944506E+03  0.88586672023E+03  0.12449395052E+04  0.00000000000E+00 0.  1.
<mgrwt>
<rscale>  0 0.27730430E+04</rscale>
<asrwt>0</asrwt>
<pdfrwt beam="1">  1        1 0.24616107E+00 0.27730430E+04</pdfrwt>
<pdfrwt beam="2">  1       -1 0.18484476E+00 0.27730430E+04</pdfrwt>
<totfact> 0.93041259E-01</totfact>
</mgrwt>
</event>
<event>
 6    1  0.1885829E-005  0.3492691E+04  0.7818608E-02  0.8115524E-01
          2   -1    0    0  501    0  0.00000000000E+00  0.00000000000E+00  0.28734608938E+04  0.28734608938E+04  0.00000000000E+00 0. -1.
         -2   -1    0    0    0  501 -0.00000000000E+00 -0.00000000000E+00 -0.10613412614E+04  0.10613412614E+04  0.00000000000E+00 0.  1.
         23    2    1    2    0    0 -0.13201020223E+04  0.83036110234E+03  0.17891094998E+04  0.23750911641E+04  0.89310278166E+02 0.  0.
         13    1    3    3    0    0 -0.32229097641E+03  0.18049585974E+03  0.37460029809E+03  0.52609467987E+03  0.00000000000E+00 0.  1.
        -13    1    3    3    0    0 -0.99781104589E+03  0.64986524260E+03  0.14145092018E+04  0.18489964842E+04  0.00000000000E+00 0. -1.
         22    1    1    2    0    0  0.13201020223E+04 -0.83036110234E+03  0.23010132487E+02  0.15597109911E+04  0.00000000000E+00 0.  1.
<mgrwt>
<rscale>  0 0.34926910E+04</rscale>
<asrwt>0</asrwt>
<pdfrwt beam="1">  1        2 0.44207090E+00 0.34926910E+04</pdfrwt>
<pdfrwt beam="2">  1       -2 0.16328327E+00 0.34926910E+04</pdfrwt>
<totfact> 0.40844483E-01</totfact>
</mgrwt>
</event>
<event>
 6    1  0.1885829E-005  0.2226250E+04  0.7818608E-02  0.8507581E-01
          2   -1    0    0  501    0  0.00000000000E+00  0.00000000000E+00  0.13433837154E+04  0.13433837154E+04  0.00000000000E+00 0. -1.
         -2   -1    0    0    0  501 -0.00000000000E+00 -0.00000000000E+00 -0.92233318716E+03  0.92233318716E+03  0.00000000000E+00 0.  1.
         23    2    1    2    0    0 -0.10225629436E+04  0.27543223076E+03  0.55378969082E+03  0.11984223918E+04  0.89639946991E+02 0.  0.
         13    1    3    3    0    0 -0.54813946672E+03  0.11460953129E+03  0.25686058146E+03  0.61609218300E+03  0.00000000000E+00 0. -1.
        -13    1    3    3    0    0 -0.47442347690E+03  0.16082269947E+03  0.29692910936E+03  0.58233020880E+03  0.00000000000E+00 0.  1.
         22    1    1    2    0    0  0.10225629436E+04 -0.27543223076E+03 -0.13273916258E+03  0.10672945108E+04  0.00000000000E+00 0.  1.
<mgrwt>
<rscale>  0 0.22262501E+04</rscale>
<asrwt>0</asrwt>
<pdfrwt beam="1">  1        2 0.20667442E+00 0.22262501E+04</pdfrwt>
<pdfrwt beam="2">  1       -2 0.14189741E+00 0.22262501E+04</pdfrwt>
<totfact> 0.49345106E+00</totfact>
</mgrwt>
</event>
<event>
 6    1  0.1885829E-005  0.2856087E+04  0.7818608E-02  0.8286064E-01
         -2   -1    0    0    0  501 -0.00000000000E+00  0.00000000000E+00  0.65855434287E+03  0.65855434287E+03  0.00000000000E+00 0.  1.
          2   -1    0    0  501    0  0.00000000000E+00 -0.00000000000E+00 -0.30966428477E+04  0.30966428477E+04  0.00000000000E+00 0. -1.
         23    2    1    2    0    0 -0.39940560360E+03 -0.30085418731E+03  0.53637521312E+03  0.73899552497E+03  0.91531079172E+02 0.  0.
         13    1    3    3    0    0 -0.34714894398E+03 -0.25770137859E+03  0.50355902270E+03  0.66369727977E+03  0.00000000000E+00 0.  1.
        -13    1    3    3    0    0 -0.52256659622E+02 -0.43152808721E+02  0.32816190423E+02  0.75298245194E+02  0.00000000000E+00 0. -1.
         22    1    1    2    0    0  0.39940560360E+03  0.30085418731E+03 -0.29744637179E+04  0.30162016656E+04  0.00000000000E+00 0. -1.
<mgrwt>
<rscale>  0 0.28560866E+04</rscale>
<asrwt>0</asrwt>
<pdfrwt beam="1">  1        2 0.47640660E+00 0.28560866E+04</pdfrwt>
<pdfrwt beam="2">  1       -2 0.10131605E+00 0.28560866E+04</pdfrwt>
<totfact> 0.10483391E+00</totfact>
</mgrwt>
</event>
<event>
 6    1  0.1885829E-005  0.9215926E+03  0.7818608E-02  0.9398985E-01
          1   -1    0    0  501    0  0.00000000000E+00  0.00000000000E+00  0.78539807588E+03  0.78539807588E+03  0.00000000000E+00 0. -1.
         -1   -1    0    0    0  501 -0.00000000000E+00 -0.00000000000E+00 -0.27035110716E+03  0.27035110716E+03  0.00000000000E+00 0.  1.
         23    2    1    2    0    0 -0.21673790424E+03  0.47785554669E+02  0.71667019093E+03  0.75589804981E+03  0.92232970086E+02 0.  0.
         11    1    3    3    0    0 -0.16192279978E+03  0.71782348898E+02  0.47554448419E+03  0.50745862407E+03  0.00000000000E+00 0. -1.
        -11    1    3    3    0    0 -0.54815104458E+02 -0.23996794229E+02  0.24112570674E+03  0.24843942574E+03  0.00000000000E+00 0.  1.
         22    1    1    2    0    0  0.21673790424E+03 -0.47785554669E+02 -0.20162322220E+03  0.29985113323E+03  0.00000000000E+00 0.  1.
<mgrwt>
<rscale>  0 0.92159262E+03</rscale>
<asrwt>0</asrwt>
<pdfrwt beam="1">  1        1 0.12083047E+00 0.92159262E+03</pdfrwt>
<pdfrwt beam="2">  1       -1 0.41592478E-01 0.92159262E+03</pdfrwt>
<totfact> 0.12984698E+02</totfact>
</mgrwt>
</event>
<event>
 6    1  0.1885829E-005  0.1045803E+04  0.7818608E-02  0.9259688E-01
         -2   -1    0    0    0  501 -0.00000000000E+00  0.00000000000E+00  0.20870743705E+03  0.20870743705E+03  0.00000000000E+00 0. -1.
          2   -1    0    0  501    0  0.00000000000E+00 -0.00000000000E+00 -0.13100909565E+04  0.13100909565E+04  0.00000000000E+00 0.  1.
         23    2    1    2    0    0  0.47152654025E+03  0.12399795029E+03 -0.81592388118E+03  0.95382054005E+03  0.79555470635E+02 0.  0.
         11    1    3    3    0    0  0.16299678847E+02  0.53099820010E+01 -0.80191816876E+01  0.18925715688E+02  0.00000000000E+00 0. -1.
        -11    1    3    3    0    0  0.45522686140E+03  0.11868796828E+03 -0.80790469949E+03  0.93489482436E+03  0.00000000000E+00 0.  1.
         22    1    1    2    0    0 -0.47152654025E+03 -0.12399795029E+03 -0.28545963823E+03  0.56497785345E+03  0.00000000000E+00 0. -1.
<mgrwt>
<rscale>  0 0.10458025E+04</rscale>
<asrwt>0</asrwt>
<pdfrwt beam="1">  1        2 0.20155245E+00 0.10458025E+04</pdfrwt>
<pdfrwt beam="2">  1       -2 0.32108836E-01 0.10458025E+04</pdfrwt>
<totfact> 0.14643166E+02</totfact>
</mgrwt>
</event>
<event>
 6    1  0.1885829E-005  0.2638483E+04  0.7818608E-02  0.8355246E-01
         -2   -1    0    0    0  501 -0.00000000000E+00  0.00000000000E+00  0.31632434051E+03  0.31632434051E+03  0.00000000000E+00 0.  1.
          2   -1    0    0  501    0  0.00000000000E+00 -0.00000000000E+00 -0.55019434210E+04  0.55019434210E+04  0.00000000000E+00 0. -1.
         23    2    1    2    0    0  0.19576824959E+03 -0.12025713930E+04 -0.14899213697E+04  0.19269074939E+04  0.92755804255E+02 0.  0.
         11    1    3    3    0    0  0.13075159241E+03 -0.51865095847E+03 -0.66045229501E+03  0.84987765568E+03  0.00000000000E+00 0.  1.
        -11    1    3    3    0    0  0.65016657179E+02 -0.68392043457E+03 -0.82946907471E+03  0.10770298382E+04  0.00000000000E+00 0. -1.
         22    1    1    2    0    0 -0.19576824959E+03  0.12025713930E+04 -0.36956977107E+04  0.38913602676E+04  0.00000000000E+00 0. -1.
<mgrwt>
<rscale>  0 0.26384834E+04</rscale>
<asrwt>0</asrwt>
<pdfrwt beam="1">  1        2 0.84645283E+00 0.26384834E+04</pdfrwt>
<pdfrwt beam="2">  1       -2 0.48665284E-01 0.26384834E+04</pdfrwt>
<totfact> 0.21164266E-02</totfact>
</mgrwt>
</event>
<event>
 6    1  0.1885829E-005  0.4994574E+04  0.7818608E-02  0.7829345E-01
         -4   -1    0    0    0  501 -0.00000000000E+00  0.00000000000E+00  0.18208346028E+04  0.18208346028E+04  0.00000000000E+00 0. -1.
          4   -1    0    0  501    0  0.00000000000E+00 -0.00000000000E+00 -0.34250457674E+04  0.34250457674E+04  0.00000000000E+00 0.  1.
         23    2    1    2    0    0 -0.67592161479E+03 -0.54131613737E+03 -0.32616528000E+04  0.33758520376E+04  0.90026673982E+02 0.  0.
         13    1    3    3    0    0 -0.27348695123E+03 -0.27347986238E+03 -0.15039250151E+04  0.15528608433E+04  0.00000000000E+00 0.  1.
        -13    1    3    3    0    0 -0.40243466356E+03 -0.26783627500E+03 -0.17577277850E+04  0.18229911944E+04  0.00000000000E+00 0. -1.
         22    1    1    2    0    0  0.67592161479E+03  0.54131613737E+03  0.16574416354E+04  0.18700283326E+04  0.00000000000E+00 0. -1.
<mgrwt>
<rscale>  0 0.49945738E+04</rscale>
<asrwt>0</asrwt>
<pdfrwt beam="1">  1        4 0.52693012E+00 0.49945738E+04</pdfrwt>
<pdfrwt beam="2">  1       -4 0.28012840E+00 0.49945738E+04</pdfrwt>
<totfact> 0.41826447E-05</totfact>
</mgrwt>
</event>
<event>
 6    1  0.1885829E-005  0.5962635E+04  0.7818608E-02  0.7695052E-01
          2   -1    0    0  501    0  0.00000000000E+00  0.00000000000E+00  0.41421712144E+04  0.41421712144E+04  0.00000000000E+00 0. -1.
         -2   -1    0    0    0  501 -0.00000000000E+00 -0.00000000000E+00 -0.21457958896E+04  0.21457958896E+04  0.00000000000E+00 0.  1.
         23    2    1    2    0    0  0.91423531007E+03  0.10707811763E+04 -0.17718914014E+04  0.22652525168E+04  0.96805458951E+02 0.  0.
         13    1    3    3    0    0  0.47170605475E+03  0.51245930352E+03 -0.94150707926E+03  0.11711348002E+04  0.00000000000E+00 0. -1.
        -13    1    3    3    0    0  0.44252925533E+03  0.55832187278E+03 -0.83038432213E+03  0.10941177166E+04  0.00000000000E+00 0.  1.
         22    1    1    2    0    0 -0.91423531007E+03 -0.10707811763E+04  0.37682667263E+04  0.40227145872E+04  0.00000000000E+00 0. -1.
<mgrwt>
<rscale>  0 0.59626350E+04</rscale>
<asrwt>0</asrwt>
<pdfrwt beam="1">  1        2 0.63725711E+00 0.59626350E+04</pdfrwt>
<pdfrwt beam="2">  1       -2 0.33012245E+00 0.59626350E+04</pdfrwt>
<totfact> 0.36223311E-03</totfact>
</mgrwt>
</event>
<event>
 6    1  0.1885829E-005  0.1980138E+04  0.7818608E-02  0.8615964E-01
         -2   -1    0    0    0  501 -0.00000000000E+00  0.00000000000E+00  0.58498754025E+03  0.58498754025E+03  0.00000000000E+00 0.  1.
          2   -1    0    0  501    0  0.00000000000E+00 -0.00000000000E+00 -0.16756530669E+04  0.16756530669E+04  0.00000000000E+00 0. -1.
         23    2    1    2    0    0 -0.74785022363E+03 -0.56447314226E+03 -0.18877121275E+03  0.96013176875E+03  0.91151287916E+02 0.  0.
         13    1    3    3    0    0 -0.36853738761E+03 -0.30747282279E+03 -0.13644263480E+03  0.49897488455E+03  0.00000000000E+00 0.  1.
        -13    1    3    3    0    0 -0.37931283602E+03 -0.25700031947E+03 -0.52328577955E+02  0.46115688421E+03  0.00000000000E+00 0. -1.
         22    1    1    2    0    0  0.74785022363E+03  0.56447314226E+03 -0.90189431391E+03  0.13005088384E+04  0.00000000000E+00 0.  1.
<mgrwt>
<rscale>  0 0.19801375E+04</rscale>
<asrwt>0</asrwt>
<pdfrwt beam="1">  1        2 0.25779278E+00 0.19801375E+04</pdfrwt>
<pdfrwt beam="2">  1       -2 0.89998083E-01 0.19801375E+04</pdfrwt>
<totfact> 0.99506746E+00</totfact>
</mgrwt>
</event>
<event>
 6    1  0.1885829E-005  0.1704366E+04  0.7818608E-02  0.8758878E-01
         -2   -1    0    0    0  501 -0.00000000000E+00  0.00000000000E+00  0.67644695260E+03  0.67644695260E+03  0.00000000000E+00 0.  1.
          2   -1    0    0  501    0  0.00000000000E+00 -0.00000000000E+00 -0.10735734752E+04  0.10735734752E+04  0.00000000000E+00 0. -1.
         23    2    1    2    0    0 -0.31146575977E+03 -0.77078430430E+03 -0.37993249081E+03  0.91850674899E+03  0.90479760698E+02 0.  0.
         11    1    3    3    0    0 -0.11281574227E+03 -0.25283059942E+03 -0.81599009570E+02  0.28863316176E+03  0.00000000000E+00 0. -1.
        -11    1    3    3    0    0 -0.19865001750E+03 -0.51795370488E+03 -0.29833348124E+03  0.62987358722E+03  0.00000000000E+00 0.  1.
         22    1    1    2    0    0  0.31146575977E+03  0.77078430430E+03 -0.17194031762E+02  0.83151367878E+03  0.00000000000E+00 0.  1.
<mgrwt>
<rscale>  0 0.17043656E+04</rscale>
<asrwt>0</asrwt>
<pdfrwt beam="1">  1        2 0.16516515E+00 0.17043656E+04</pdfrwt>
<pdfrwt beam="2">  1       -2 0.10406876E+00 0.17043656E+04</pdfrwt>
<totfact> 0.16164950E+01</totfact>
</mgrwt>
</event>
<event>
 6    1  0.1885829E-005  0.1568371E+04  0.7818608E-02  0.8840218E-01
         -2   -1    0    0    0  501 -0.00000000000E+00  0.00000000000E+00  0.36201860302E+03  0.36201860302E+03  0.00000000000E+00 0.  1.
          2   -1    0    0  501    0  0.00000000000E+00 -0.00000000000E+00 -0.16986607647E+04  0.16986607647E+04  0.00000000000E+00 0. -1.
         23    2    1    2    0    0  0.77215141878E+03  0.72842957176E+02 -0.79843150832E+03  0.11166483209E+04  0.88807033632E+02 0.  0.
         11    1    3    3    0    0  0.33424912579E+03 -0.11290261828E+02 -0.32700095111E+03  0.46773878408E+03  0.00000000000E+00 0. -1.
        -11    1    3    3    0    0  0.43790229299E+03  0.84133219004E+02 -0.47143055721E+03  0.64890953685E+03  0.00000000000E+00 0.  1.
         22    1    1    2    0    0 -0.77215141878E+03 -0.72842957176E+02 -0.53821065338E+03  0.94403104681E+03  0.00000000000E+00 0.  1.
<mgrwt>
<rscale>  0 0.15683709E+04</rscale>
<asrwt>0</asrwt>
<pdfrwt beam="1">  1        2 0.26133242E+00 0.15683709E+04</pdfrwt>
<pdfrwt beam="2">  1       -2 0.55695170E-01 0.15683709E+04</pdfrwt>
<totfact> 0.28595988E+01</totfact>
</mgrwt>
</event>
<event>
 6    1  0.1885829E-005  0.2522432E+04  0.7818608E-02  0.8395037E-01
         -1   -1    0    0    0  501 -0.00000000000E+00  0.00000000000E+00  0.84575478113E+03  0.84575478113E+03  0.00000000000E+00 0.  1.
          1   -1    0    0  501    0  0.00000000000E+00 -0.00000000000E+00 -0.18807652701E+04  0.18807652701E+04  0.00000000000E+00 0. -1.
         23    2    1    2    0    0 -0.26792985202E+03 -0.12086411199E+04 -0.26710993477E+03  0.12697184094E+04  0.90759900440E+02 0.  0.
         11    1    3    3    0    0 -0.19571275108E+03 -0.10310381246E+04 -0.23251090484E+03  0.10748973980E+04  0.00000000000E+00 0. -1.
        -11    1    3    3    0    0 -0.72217100941E+02 -0.17760299531E+03 -0.34599029927E+02  0.19482101140E+03  0.00000000000E+00 0.  1.
         22    1    1    2    0    0  0.26792985202E+03  0.12086411199E+04 -0.76790055421E+03  0.14568016418E+04  0.00000000000E+00 0. -1.
<mgrwt>
<rscale>  0 0.25224323E+04</rscale>
<asrwt>0</asrwt>
<pdfrwt beam="1">  1        1 0.28934850E+00 0.25224323E+04</pdfrwt>
<pdfrwt beam="2">  1       -1 0.13011612E+00 0.25224323E+04</pdfrwt>
<totfact> 0.16107145E+00</totfact>
</mgrwt>
</event>
<event>
 6    1  0.1885829E-005  0.1647015E+04  0.7818608E-02  0.8792174E-01
         -2   -1    0    0    0  501 -0.00000000000E+00  0.00000000000E+00  0.73183796589E+03  0.73183796589E+03  0.00000000000E+00 0.  1.
          2   -1    0    0  501    0  0.00000000000E+00 -0.00000000000E+00 -0.92665954623E+03  0.92665954623E+03  0.00000000000E+00 0. -1.
         23    2    1    2    0    0  0.40009737240E+02  0.16943939438E+03  0.71011647123E+03  0.73696435231E+03  0.92415185048E+02 0.  0.
         11    1    3    3    0    0 -0.24468423563E+02  0.72222593656E+02  0.20980906783E+03  0.22323676160E+03  0.00000000000E+00 0.  1.
        -11    1    3    3    0    0  0.64478160802E+02  0.97216800720E+02  0.50030740340E+03  0.51372759071E+03  0.00000000000E+00 0. -1.
         22    1    1    2    0    0 -0.40009737240E+02 -0.16943939438E+03 -0.90493805157E+03  0.92153315980E+03  0.00000000000E+00 0. -1.
<mgrwt>
<rscale>  0 0.16470150E+04</rscale>
<asrwt>0</asrwt>
<pdfrwt beam="1">  1        2 0.14256301E+00 0.16470150E+04</pdfrwt>
<pdfrwt beam="2">  1       -2 0.11259046E+00 0.16470150E+04</pdfrwt>
<totfact> 0.16693133E+01</totfact>
</mgrwt>
</event>
<event>
 6    1  0.1885829E-005  0.5487168E+04  0.7818608E-02  0.7757457E-01
          2   -1    0    0  501    0  0.00000000000E+00  0.00000000000E+00  0.37604655929E+04  0.37604655929E+04  0.00000000000E+00 0. -1.
         -2   -1    0    0    0  501 -0.00000000000E+00 -0.00000000000E+00 -0.20016808563E+04  0.20016808563E+04  0.00000000000E+00 0.  1.
         23    2    1    2    0    0  0.83817958382E+03 -0.24589046409E+04 -0.44497774673E+02  0.25997763153E+04  0.89998832796E+02 0.  0.
         13    1    3    3    0    0  0.43336310527E+03 -0.13502707898E+04 -0.61156642837E+02  0.14194276740E+04  0.00000000000E+00 0. -1.
        -13    1    3    3    0    0  0.40481647855E+03 -0.11086338511E+04  0.16658868164E+02  0.11803486413E+04  0.00000000000E+00 0.  1.
         22    1    1    2    0    0 -0.83817958382E+03  0.24589046409E+04  0.18032825113E+04  0.31623701338E+04  0.00000000000E+00 0. -1.
<mgrwt>
<rscale>  0 0.54871676E+04</rscale>
<asrwt>0</asrwt>
<pdfrwt beam="1">  1        2 0.57853317E+00 0.54871676E+04</pdfrwt>
<pdfrwt beam="2">  1       -2 0.30795090E+00 0.54871676E+04</pdfrwt>
<totfact> 0.10434168E-02</totfact>
</mgrwt>
</event>
<event>
 6    1  0.1885829E-005  0.3499334E+04  0.7818608E-02  0.8113948E-01
         -2   -1    0    0    0  501 -0.00000000000E+00  0.00000000000E+00  0.87273718071E+03  0.87273718071E+03  0.00000000000E+00 0.  1.
          2   -1    0    0  501    0  0.00000000000E+00 -0.00000000000E+00 -0.35077387325E+04  0.35077387325E+04  0.00000000000E+00 0. -1.
         23    2    1    2    0    0 -0.46738987407E+03  0.16649813566E+04 -0.16414640242E+04  0.23860504242E+04  0.90643653932E+02 0.  0.
         13    1    3    3    0    0 -0.20269272959E+03  0.56324817972E+03 -0.56195661185E+03  0.82105303616E+03  0.00000000000E+00 0. -1.
        -13    1    3    3    0    0 -0.26469714448E+03  0.11017331769E+04 -0.10795074123E+04  0.15649973881E+04  0.00000000000E+00 0.  1.
         22    1    1    2    0    0  0.46738987407E+03 -0.16649813566E+04 -0.99353752765E+03  0.19944254890E+04  0.00000000000E+00 0. -1.
<mgrwt>
<rscale>  0 0.34993337E+04</rscale>
<asrwt>0</asrwt>
<pdfrwt beam="1">  1        2 0.53965213E+00 0.34993337E+04</pdfrwt>
<pdfrwt beam="2">  1       -2 0.13426725E+00 0.34993337E+04</pdfrwt>
<totfact> 0.26350794E-01</totfact>
</mgrwt>
</event>
<event>
 6    1  0.1885829E-005  0.3102879E+04  0.7818608E-02  0.8214948E-01
         -2   -1    0    0    0  501 -0.00000000000E+00  0.00000000000E+00  0.10447699678E+04  0.10447699678E+04  0.00000000000E+00 0.  1.
          2   -1    0    0  501    0  0.00000000000E+00 -0.00000000000E+00 -0.23038222744E+04  0.23038222744E+04  0.00000000000E+00 0. -1.
         23    2    1    2    0    0  0.70970266870E+03 -0.13453338997E+04 -0.95206074228E+03  0.17968690065E+04  0.93366964784E+02 0.  0.
         13    1    3    3    0    0  0.54503902556E+03 -0.10236797762E+04 -0.77155419554E+03  0.13929406665E+04  0.00000000000E+00 0. -1.
        -13    1    3    3    0    0  0.16466364314E+03 -0.32165412342E+03 -0.18050654674E+03  0.40392834006E+03  0.00000000000E+00 0.  1.
         22    1    1    2    0    0 -0.70970266870E+03  0.13453338997E+04 -0.30699156441E+03  0.15517232357E+04  0.00000000000E+00 0. -1.
<mgrwt>
<rscale>  0 0.31028789E+04</rscale>
<asrwt>0</asrwt>
<pdfrwt beam="1">  1        2 0.35443420E+00 0.31028789E+04</pdfrwt>
<pdfrwt beam="2">  1       -2 0.16073384E+00 0.31028789E+04</pdfrwt>
<totfact> 0.95246759E-01</totfact>
</mgrwt>
</event>
<event>
 6    1  0.1885829E-005  0.2711202E+04  0.7818608E-02  0.8331379E-01
         -2   -1    0    0    0  501 -0.00000000000E+00  0.00000000000E+00  0.57468400227E+03  0.57468400227E+03  0.00000000000E+00 0.  1.
          2   -1    0    0  501    0  0.00000000000E+00 -0.00000000000E+00 -0.31976781224E+04  0.31976781224E+04  0.00000000000E+00 0. -1.
         23    2    1    2    0    0  0.47903304280E+03 -0.11449408528E+04 -0.55977869125E+03  0.13646204196E+04  0.92057013467E+02 0.  0.
         13    1    3    3    0    0  0.20754660123E+03 -0.61517101868E+03 -0.29091044866E+03  0.71143507296E+03  0.00000000000E+00 0.  1.
        -13    1    3    3    0    0  0.27148644157E+03 -0.52976983415E+03 -0.26886824259E+03  0.65318534659E+03  0.00000000000E+00 0. -1.
         22    1    1    2    0    0 -0.47903304280E+03  0.11449408528E+04 -0.20632154289E+04  0.24077417051E+04  0.00000000000E+00 0. -1.
<mgrwt>
<rscale>  0 0.27112023E+04</rscale>
<asrwt>0</asrwt>
<pdfrwt beam="1">  1        2 0.49195047E+00 0.27112023E+04</pdfrwt>
<pdfrwt beam="2">  1       -2 0.88412924E-01 0.27112023E+04</pdfrwt>
<totfact> 0.12555926E+00</totfact>
</mgrwt>
</event>
<event>
 6    1  0.1885829E-005  0.3488301E+04  0.7818608E-02  0.8116568E-01
         -2   -1    0    0    0  501 -0.00000000000E+00  0.00000000000E+00  0.28171703608E+04  0.28171703608E+04  0.00000000000E+00 0.  1.
          2   -1    0    0  501    0  0.00000000000E+00 -0.00000000000E+00 -0.10798287883E+04  0.10798287883E+04  0.00000000000E+00 0. -1.
         23    2    1    2    0    0  0.12861827271E+04 -0.11388937358E+04  0.54032986567E+03  0.18031553213E+04  0.89820934281E+02 0.  0.
         11    1    3    3    0    0  0.77469105715E+03 -0.72311181492E+03  0.29771699615E+03  0.11007598924E+04  0.00000000000E+00 0.  1.
        -11    1    3    3    0    0  0.51149166991E+03 -0.41578192085E+03  0.24261286952E+03  0.70239542890E+03  0.00000000000E+00 0. -1.
         22    1    1    2    0    0 -0.12861827271E+04  0.11388937358E+04  0.11970117068E+04  0.20938438278E+04  0.00000000000E+00 0.  1.
<mgrwt>
<rscale>  0 0.34883014E+04</rscale>
<asrwt>0</asrwt>
<pdfrwt beam="1">  1        2 0.16612751E+00 0.34883014E+04</pdfrwt>
<pdfrwt beam="2">  1       -2 0.43341082E+00 0.34883014E+04</pdfrwt>
<totfact> 0.82348135E-02</totfact>
</mgrwt>
</event>
<event>
 6    1  0.1885829E-005  0.3881758E+03  0.7818608E-02  0.1047953E+00
         -1   -1    0    0    0  501 -0.00000000000E+00  0.00000000000E+00  0.41219722159E+02  0.41219722159E+02  0.00000000000E+00 0.  1.
          1   -1    0    0  501    0  0.00000000000E+00 -0.00000000000E+00 -0.91388570330E+03  0.91388570330E+03  0.00000000000E+00 0. -1.
         23    2    1    2    0    0 -0.28049957526E+01 -0.17375724257E+03 -0.32090378916E+03  0.37662382346E+03  0.93095731139E+02 0.  0.
         11    1    3    3    0    0  0.32669072097E+01 -0.89637389042E+02 -0.25273588821E+03  0.26818084083E+03  0.00000000000E+00 0. -1.
        -11    1    3    3    0    0 -0.60719029623E+01 -0.84119853530E+02 -0.68167900950E+02  0.10844298264E+03  0.00000000000E+00 0.  1.
         22    1    1    2    0    0  0.28049957526E+01  0.17375724257E+03 -0.55176219198E+03  0.57848160199E+03  0.00000000000E+00 0. -1.
<mgrwt>
<rscale>  0 0.38817581E+03</rscale>
<asrwt>0</asrwt>
<pdfrwt beam="1">  1        1 0.14059779E+00 0.38817581E+03</pdfrwt>
<pdfrwt beam="2">  1       -1 0.63414961E-02 0.38817581E+03</pdfrwt>
<totfact> 0.22926398E+03</totfact>
</mgrwt>
</event>
<event>
 6    1  0.1885829E-005  0.1188046E+04  0.7818608E-02  0.9123384E-01
         -2   -1    0    0    0  501 -0.00000000000E+00  0.00000000000E+00  0.37830673338E+03  0.37830673338E+03  0.00000000000E+00 0.  1.
          2   -1    0    0  501    0  0.00000000000E+00 -0.00000000000E+00 -0.93274450911E+03  0.93274450911E+03  0.00000000000E+00 0. -1.
         23    2    1    2    0    0  0.53152761270E+03 -0.20281993815E+03 -0.10416760693E+03  0.58551643610E+03  0.91219933317E+02 0.  0.
         13    1    3    3    0    0  0.24081488037E+03 -0.13280506168E+03 -0.24713188104E+02  0.27611543361E+03  0.00000000000E+00 0.  1.
        -13    1    3    3    0    0  0.29071273234E+03 -0.70014876472E+02 -0.79454418823E+02  0.30940100249E+03  0.00000000000E+00 0. -1.
         22    1    1    2    0    0 -0.53152761270E+03  0.20281993815E+03 -0.45027016880E+03  0.72553480639E+03  0.00000000000E+00 0.  1.
<mgrwt>
<rscale>  0 0.11880463E+04</rscale>
<asrwt>0</asrwt>
<pdfrwt beam="1">  1        2 0.14349915E+00 0.11880463E+04</pdfrwt>
<pdfrwt beam="2">  1       -2 0.58201037E-01 0.11880463E+04</pdfrwt>
<totfact> 0.76031303E+01</totfact>
</mgrwt>
</event>
<event>
 6    1  0.1885829E-005  0.1833997E+04  0.7818608E-02  0.8688426E-01
          2   -1    0    0  501    0  0.00000000000E+00  0.00000000000E+00  0.13230530942E+04  0.13230530942E+04  0.00000000000E+00 0. -1.
         -2   -1    0    0    0  501 -0.00000000000E+00 -0.00000000000E+00 -0.63556521973E+03  0.63556521973E+03  0.00000000000E+00 0.  1.
         23    2    1    2    0    0  0.79935601327E+03 -0.14535894587E+03 -0.10412639652E+03  0.82426721610E+03  0.92059100479E+02 0.  0.
         13    1    3    3    0    0  0.55220951764E+03 -0.64991256757E+02 -0.96053537633E+02  0.56425658784E+03  0.00000000000E+00 0.  1.
        -13    1    3    3    0    0  0.24714649563E+03 -0.80367689115E+02 -0.80728588846E+01  0.26001062826E+03  0.00000000000E+00 0. -1.
         22    1    1    2    0    0 -0.79935601327E+03  0.14535894587E+03  0.79161427098E+03  0.11343510978E+04  0.00000000000E+00 0. -1.
<mgrwt>
<rscale>  0 0.18339973E+04</rscale>
<asrwt>0</asrwt>
<pdfrwt beam="1">  1        2 0.20354663E+00 0.18339973E+04</pdfrwt>
<pdfrwt beam="2">  1       -2 0.97779264E-01 0.18339973E+04</pdfrwt>
<totfact> 0.13145998E+01</totfact>
</mgrwt>
</event>
<event>
 6    1  0.1885829E-005  0.2758622E+04  0.7818608E-02  0.8316231E-01
         -2   -1    0    0    0  501 -0.00000000000E+00  0.00000000000E+00  0.84029431131E+03  0.84029431131E+03  0.00000000000E+00 0.  1.
          2   -1    0    0  501    0  0.00000000000E+00 -0.00000000000E+00 -0.22640870586E+04  0.22640870586E+04  0.00000000000E+00 0. -1.
         23    2    1    2    0    0  0.10919751766E+04  0.64820914664E+03 -0.11125725995E+03  0.12780916093E+04  0.92493782129E+02 0.  0.
         11    1    3    3    0    0  0.56715247071E+03  0.29517420039E+03 -0.26394998084E+02  0.63991126692E+03  0.00000000000E+00 0. -1.
        -11    1    3    3    0    0  0.52482270593E+03  0.35303494625E+03 -0.84862261866E+02  0.63818034240E+03  0.00000000000E+00 0.  1.
         22    1    1    2    0    0 -0.10919751766E+04 -0.64820914664E+03 -0.13125354874E+04  0.18262897606E+04  0.00000000000E+00 0. -1.
<mgrwt>
<rscale>  0 0.27586225E+04</rscale>
<asrwt>0</asrwt>
<pdfrwt beam="1">  1        2 0.34832108E+00 0.27586225E+04</pdfrwt>
<pdfrwt beam="2">  1       -2 0.12927605E+00 0.27586225E+04</pdfrwt>
<totfact> 0.18270797E+00</totfact>
</mgrwt>
</event>
<event>
 6    1  0.1885829E-005  0.3266574E+04  0.7818608E-02  0.8171453E-01
          2   -1    0    0  501    0  0.00000000000E+00  0.00000000000E+00  0.18984404946E+04  0.18984404946E+04  0.00000000000E+00 0. -1.
         -2   -1    0    0    0  501 -0.00000000000E+00 -0.00000000000E+00 -0.14051671985E+04  0.14051671985E+04  0.00000000000E+00 0.  1.
         23    2    1    2    0    0 -0.13441427401E+04  0.21595323502E+02 -0.68900526047E+03  0.15133650702E+04  0.91430426784E+02 0.  0.
         13    1    3    3    0    0 -0.38459311511E+03 -0.23310190156E+02 -0.23010391772E+03  0.44877950277E+03  0.00000000000E+00 0. -1.
        -13    1    3    3    0    0 -0.95954962498E+03  0.44905513658E+02 -0.45890134275E+03  0.10645855674E+04  0.00000000000E+00 0.  1.
         22    1    1    2    0    0  0.13441427401E+04 -0.21595323502E+02  0.11822785566E+04  0.17902426230E+04  0.00000000000E+00 0. -1.
<mgrwt>
<rscale>  0 0.32665739E+04</rscale>
<asrwt>0</asrwt>
<pdfrwt beam="1">  1        2 0.29206777E+00 0.32665739E+04</pdfrwt>
<pdfrwt beam="2">  1       -2 0.21617957E+00 0.32665739E+04</pdfrwt>
<totfact> 0.66607708E-01</totfact>
</mgrwt>
</event>
<event>
 6    1  0.1885829E-005  0.1424545E+04  0.7818608E-02  0.8936241E-01
         -2   -1    0    0    0  501 -0.00000000000E+00  0.00000000000E+00  0.24973196832E+03  0.24973196832E+03  0.00000000000E+00 0.  1.
          2   -1    0    0  501    0  0.00000000000E+00 -0.00000000000E+00 -0.20315051824E+04  0.20315051824E+04  0.00000000000E+00 0. -1.
         23    2    1    2    0    0  0.20365723773E+03  0.50845343126E+03 -0.17232333745E+03  0.58114007477E+03  0.89595154087E+02 0.  0.
         13    1    3    3    0    0  0.16214001345E+03  0.47211290055E+03 -0.14658516583E+03  0.52025684587E+03  0.00000000000E+00 0.  1.
        -13    1    3    3    0    0  0.41517224273E+02  0.36340530709E+02 -0.25738171615E+02  0.60883228903E+02  0.00000000000E+00 0. -1.
         22    1    1    2    0    0 -0.20365723773E+03 -0.50845343126E+03 -0.16094498766E+04  0.17000970759E+04  0.00000000000E+00 0. -1.
<mgrwt>
<rscale>  0 0.14245445E+04</rscale>
<asrwt>0</asrwt>
<pdfrwt beam="1">  1        2 0.31253927E+00 0.14245445E+04</pdfrwt>
<pdfrwt beam="2">  1       -2 0.38420301E-01 0.14245445E+04</pdfrwt>
<totfact> 0.39917273E+01</totfact>
</mgrwt>
</event>
<event>
 6    1  0.1885829E-005  0.2629309E+04  0.7818608E-02  0.8358313E-01
         -2   -1    0    0    0  501 -0.00000000000E+00  0.00000000000E+00  0.80264203462E+03  0.80264203462E+03  0.00000000000E+00 0.  1.
          2   -1    0    0  501    0  0.00000000000E+00 -0.00000000000E+00 -0.21532838003E+04  0.21532838003E+04  0.00000000000E+00 0. -1.
         23    2    1    2    0    0  0.12133467002E+04  0.16424194678E+03 -0.14256626010E+03  0.12358583772E+04  0.88516427937E+02 0.  0.
         13    1    3    3    0    0  0.30338247788E+03  0.69175814823E+02 -0.63052375833E+02  0.31749302881E+03  0.00000000000E+00 0.  1.
        -13    1    3    3    0    0  0.90996422231E+03  0.95066131952E+02 -0.79513884262E+02  0.91836534838E+03  0.00000000000E+00 0. -1.
         22    1    1    2    0    0 -0.12133467002E+04 -0.16424194678E+03 -0.12080755056E+04  0.17200674577E+04  0.00000000000E+00 0.  1.
<mgrwt>
<rscale>  0 0.26293087E+04</rscale>
<asrwt>0</asrwt>
<pdfrwt beam="1">  1        2 0.33127442E+00 0.26293087E+04</pdfrwt>
<pdfrwt beam="2">  1       -2 0.12348339E+00 0.26293087E+04</pdfrwt>
<totfact> 0.23930251E+00</totfact>
</mgrwt>
</event>
<event>
 6    1  0.1885829E-005  0.2816723E+04  0.7818608E-02  0.8298095E-01
          2   -1    0    0  501    0  0.00000000000E+00  0.00000000000E+00  0.24165404756E+04  0.24165404756E+04  0.00000000000E+00 0. -1.
         -2   -1    0    0    0  501 -0.00000000000E+00 -0.00000000000E+00 -0.82079429535E+03  0.82079429535E+03  0.00000000000E+00 0.  1.
         23    2    1    2    0    0 -0.49301747970E+03  0.53360952488E+03  0.21834049406E+04  0.23029107885E+04  0.91299535467E+02 0.  0.
         13    1    3    3    0    0 -0.38206155449E+03  0.44293149375E+03  0.18421923493E+04  0.19328300472E+04  0.00000000000E+00 0.  1.
        -13    1    3    3    0    0 -0.11095592522E+03  0.90678031132E+02  0.34121259126E+03  0.37008074133E+03  0.00000000000E+00 0. -1.
         22    1    1    2    0    0  0.49301747970E+03 -0.53360952488E+03 -0.58765876031E+03  0.93442398241E+03  0.00000000000E+00 0.  1.
<mgrwt>
<rscale>  0 0.28167234E+04</rscale>
<asrwt>0</asrwt>
<pdfrwt beam="1">  1        2 0.37177545E+00 0.28167234E+04</pdfrwt>
<pdfrwt beam="2">  1       -2 0.12627605E+00 0.28167234E+04</pdfrwt>
<totfact> 0.15794280E+00</totfact>
</mgrwt>
</event>
<event>
 6    1  0.1885829E-005  0.3211137E+04  0.7818608E-02  0.8185882E-01
         -2   -1    0    0    0  501 -0.00000000000E+00  0.00000000000E+00  0.26337245963E+04  0.26337245963E+04  0.00000000000E+00 0.  1.
          2   -1    0    0  501    0  0.00000000000E+00 -0.00000000000E+00 -0.97878503865E+03  0.97878503865E+03  0.00000000000E+00 0. -1.
         23    2    1    2    0    0 -0.29951691885E+03 -0.33775382226E+03  0.25600738179E+04  0.26010472985E+04  0.87641693940E+02 0.  0.
         11    1    3    3    0    0 -0.87215123178E+02 -0.16293252020E+03  0.10443954810E+04  0.10606202924E+04  0.00000000000E+00 0. -1.
        -11    1    3    3    0    0 -0.21230179567E+03 -0.17482130206E+03  0.15156783369E+04  0.15404270061E+04  0.00000000000E+00 0.  1.
         22    1    1    2    0    0  0.29951691885E+03  0.33775382226E+03 -0.90513426024E+03  0.10114623365E+04  0.00000000000E+00 0. -1.
<mgrwt>
<rscale>  0 0.32111370E+04</rscale>
<asrwt>0</asrwt>
<pdfrwt beam="1">  1        2 0.15058231E+00 0.32111370E+04</pdfrwt>
<pdfrwt beam="2">  1       -2 0.40518840E+00 0.32111370E+04</pdfrwt>
<totfact> 0.14997022E-01</totfact>
</mgrwt>
</event>
<event>
 6    1  0.1885829E-005  0.2839754E+04  0.7818608E-02  0.8291032E-01
         -2   -1    0    0    0  501 -0.00000000000E+00  0.00000000000E+00  0.22342000285E+04  0.22342000285E+04  0.00000000000E+00 0.  1.
          2   -1    0    0  501    0  0.00000000000E+00 -0.00000000000E+00 -0.90235893577E+03  0.90235893577E+03  0.00000000000E+00 0. -1.
         23    2    1    2    0    0 -0.38445222895E+03  0.13544649527E+04  0.85643322084E+03  0.16504931955E+04  0.90945600029E+02 0.  0.
         13    1    3    3    0    0 -0.14668376371E+03  0.45727334586E+03  0.33922950713E+03  0.58795552372E+03  0.00000000000E+00 0.  1.
        -13    1    3    3    0    0 -0.23776846525E+03  0.89719160683E+03  0.51720371371E+03  0.10625376718E+04  0.00000000000E+00 0. -1.
         22    1    1    2    0    0  0.38445222895E+03 -0.13544649527E+04  0.47540787185E+03  0.14860657687E+04  0.00000000000E+00 0. -1.
<mgrwt>
<rscale>  0 0.28397538E+04</rscale>
<asrwt>0</asrwt>
<pdfrwt beam="1">  1        2 0.13882445E+00 0.28397538E+04</pdfrwt>
<pdfrwt beam="2">  1       -2 0.34372308E+00 0.28397538E+04</pdfrwt>
<totfact> 0.43172249E-01</totfact>
</mgrwt>
</event>
<event>
 6    1  0.1885829E-005  0.2746968E+04  0.7818608E-02  0.8319925E-01
          2   -1    0    0  501    0  0.00000000000E+00  0.00000000000E+00  0.68713553192E+03  0.68713553192E+03  0.00000000000E+00 0. -1.
         -2   -1    0    0    0  501 -0.00000000000E+00 -0.00000000000E+00 -0.27453939609E+04  0.27453939609E+04  0.00000000000E+00 0.  1.
         23    2    1    2    0    0  0.83651586137E+03 -0.98693329892E+03 -0.16007505484E+04  0.20602650928E+04  0.92161876932E+02 0.  0.
         11    1    3    3    0    0  0.65020683906E+02 -0.12010084766E+03 -0.16451284296E+03  0.21381388739E+03  0.00000000000E+00 0. -1.
        -11    1    3    3    0    0  0.77149517747E+03 -0.86683245126E+03 -0.14362377054E+04  0.18464512054E+04  0.00000000000E+00 0.  1.
         22    1    1    2    0    0 -0.83651586137E+03  0.98693329892E+03 -0.45750788064E+03  0.13722644001E+04  0.00000000000E+00 0. -1.
<mgrwt>
<rscale>  0 0.27469676E+04</rscale>
<asrwt>0</asrwt>
<pdfrwt beam="1">  1        2 0.10571316E+00 0.27469676E+04</pdfrwt>
<pdfrwt beam="2">  1       -2 0.42236830E+00 0.27469676E+04</pdfrwt>
<totfact> 0.19374715E-01</totfact>
</mgrwt>
</event>
<event>
 6    1  0.1885829E-005  0.8821126E+03  0.7818608E-02  0.9448222E-01
          2   -1    0    0  501    0  0.00000000000E+00  0.00000000000E+00  0.65830222646E+03  0.65830222646E+03  0.00000000000E+00 0.  1.
         -2   -1    0    0    0  501 -0.00000000000E+00 -0.00000000000E+00 -0.29550354381E+03  0.29550354381E+03  0.00000000000E+00 0. -1.
         23    2    1    2    0    0 -0.16510856653E+03 -0.12456405785E+03  0.59901569928E+03  0.63983837994E+03  0.88296665885E+02 0.  0.
         11    1    3    3    0    0 -0.98180210173E+02 -0.96246047931E+02  0.48920832962E+03  0.50816084578E+03  0.00000000000E+00 0. -1.
        -11    1    3    3    0    0 -0.66928356357E+02 -0.28318009920E+02  0.10980736966E+03  0.13167753416E+03  0.00000000000E+00 0.  1.
         22    1    1    2    0    0  0.16510856653E+03  0.12456405785E+03 -0.23621701663E+03  0.31396739034E+03  0.00000000000E+00 0. -1.
<mgrwt>
<rscale>  0 0.88211256E+03</rscale>
<asrwt>0</asrwt>
<pdfrwt beam="1">  1        2 0.10127726E+00 0.88211256E+03</pdfrwt>
<pdfrwt beam="2">  1       -2 0.45462084E-01 0.88211256E+03</pdfrwt>
<totfact> 0.20381769E+02</totfact>
</mgrwt>
</event>
<event>
 6    1  0.1885829E-005  0.8975918E+03  0.7818608E-02  0.9428597E-01
          2   -1    0    0  501    0  0.00000000000E+00  0.00000000000E+00  0.73203470540E+03  0.73203470540E+03  0.00000000000E+00 0. -1.
         -2   -1    0    0    0  501 -0.00000000000E+00 -0.00000000000E+00 -0.27514780592E+03  0.27514780592E+03  0.00000000000E+00 0.  1.
         23    2    1    2    0    0 -0.15089252405E+03 -0.38303531290E+03  0.43614396444E+02  0.42384833051E+03  0.90887771209E+02 0.  0.
         11    1    3    3    0    0 -0.80432988027E+02 -0.19389686843E+03 -0.23305242465E+02  0.21120747022E+03  0.00000000000E+00 0.  1.
        -11    1    3    3    0    0 -0.70459536026E+02 -0.18913844446E+03  0.66919638909E+02  0.21264086029E+03  0.00000000000E+00 0. -1.
         22    1    1    2    0    0  0.15089252405E+03  0.38303531290E+03  0.41327250304E+03  0.58333418082E+03  0.00000000000E+00 0.  1.
<mgrwt>
<rscale>  0 0.89759176E+03</rscale>
<asrwt>0</asrwt>
<pdfrwt beam="1">  1        2 0.11262072E+00 0.89759176E+03</pdfrwt>
<pdfrwt beam="2">  1       -2 0.42330432E-01 0.89759176E+03</pdfrwt>
<totfact> 0.20523375E+02</totfact>
</mgrwt>
</event>
<event>
 6    1  0.1885829E-005  0.1446672E+04  0.7818608E-02  0.8920711E-01
         -2   -1    0    0    0  501 -0.00000000000E+00  0.00000000000E+00  0.10820538062E+03  0.10820538062E+03  0.00000000000E+00 0.  1.
          2   -1    0    0  501    0  0.00000000000E+00 -0.00000000000E+00 -0.48353892320E+04  0.48353892320E+04  0.00000000000E+00 0. -1.
         23    2    1    2    0    0  0.48723557368E+03  0.36232941234E+03 -0.36993186389E+04  0.37497822311E+04  0.85013417140E+02 0.  0.
         13    1    3    3    0    0  0.24069726610E+03  0.21685506072E+03 -0.17818140598E+04  0.18110280603E+04  0.00000000000E+00 0. -1.
        -13    1    3    3    0    0  0.24653830758E+03  0.14547435162E+03 -0.19175045791E+04  0.19387541708E+04  0.00000000000E+00 0.  1.
         22    1    1    2    0    0 -0.48723557368E+03 -0.36232941234E+03 -0.10278652124E+04  0.11938123815E+04  0.00000000000E+00 0.  1.
<mgrwt>
<rscale>  0 0.14466722E+04</rscale>
<asrwt>0</asrwt>
<pdfrwt beam="1">  1        2 0.74390602E+00 0.14466722E+04</pdfrwt>
<pdfrwt beam="2">  1       -2 0.16646982E-01 0.14466722E+04</pdfrwt>
<totfact> 0.16256730E+00</totfact>
</mgrwt>
</event>
<event>
 6    1  0.3678270E-005  0.2756510E+04  0.7818608E-02  0.8316899E-01
          1   -1    0    0  501    0  0.00000000000E+00  0.00000000000E+00  0.18058413761E+04  0.18058413761E+04  0.00000000000E+00 0. -1.
         -1   -1    0    0    0  501 -0.00000000000E+00 -0.00000000000E+00 -0.10519126212E+04  0.10519126212E+04  0.00000000000E+00 0.  1.
         23    2    1    2    0    0 -0.70471096574E+03 -0.11814311514E+04  0.31800055546E+03  0.14146911069E+04  0.88484258204E+02 0.  0.
         13    1    3    3    0    0 -0.37561835178E+03 -0.59080210406E+03  0.12123449923E+03  0.71051676698E+03  0.00000000000E+00 0.  1.
        -13    1    3    3    0    0 -0.32909261396E+03 -0.59062904734E+03  0.19676605622E+03  0.70417433992E+03  0.00000000000E+00 0. -1.
         22    1    1    2    0    0  0.70471096574E+03  0.11814311514E+04  0.43592819945E+03  0.14430628905E+04  0.00000000000E+00 0.  1.
<mgrwt>
<rscale>  0 0.27565104E+04</rscale>
<asrwt>0</asrwt>
<pdfrwt beam="1">  1        1 0.27782175E+00 0.27565104E+04</pdfrwt>
<pdfrwt beam="2">  1       -1 0.16183271E+00 0.27565104E+04</pdfrwt>
<totfact> 0.99293800E-01</totfact>
</mgrwt>
</event>
<event>
 6    1  0.1885829E-005  0.1194520E+04  0.7818608E-02  0.9117667E-01
          1   -1    0    0  501    0  0.00000000000E+00  0.00000000000E+00  0.11015694825E+04  0.11015694825E+04  0.00000000000E+00 0. -1.
         -1   -1    0    0    0  501 -0.00000000000E+00 -0.00000000000E+00 -0.32382840599E+03  0.32382840599E+03  0.00000000000E+00 0.  1.
         23    2    1    2    0    0 -0.18030353799E+03 -0.16506643379E+03  0.10369384719E+04  0.10691120719E+04  0.89459121541E+02 0.  0.
         13    1    3    3    0    0 -0.70293306308E+02 -0.11655564923E+02  0.30654951087E+03  0.31472147006E+03  0.00000000000E+00 0.  1.
        -13    1    3    3    0    0 -0.11001023169E+03 -0.15341086887E+03  0.73038896100E+03  0.75439060182E+03  0.00000000000E+00 0. -1.
         22    1    1    2    0    0  0.18030353799E+03  0.16506643379E+03 -0.25919739534E+03  0.35628581663E+03  0.00000000000E+00 0.  1.
<mgrwt>
<rscale>  0 0.11945200E+04</rscale>
<asrwt>0</asrwt>
<pdfrwt beam="1">  1        1 0.16947223E+00 0.11945200E+04</pdfrwt>
<pdfrwt beam="2">  1       -1 0.49819755E-01 0.11945200E+04</pdfrwt>
<totfact> 0.50582139E+01</totfact>
</mgrwt>
</event>
<event>
 6    1  0.1885829E-005  0.1861216E+04  0.7818608E-02  0.8674406E-01
          2   -1    0    0  501    0  0.00000000000E+00  0.00000000000E+00  0.17426520285E+04  0.17426520285E+04  0.00000000000E+00 0. -1.
         -2   -1    0    0    0  501 -0.00000000000E+00 -0.00000000000E+00 -0.49696147791E+03  0.49696147791E+03  0.00000000000E+00 0.  1.
         23    2    1    2    0    0 -0.32606375393E+03 -0.18275289979E+03  0.16470386835E+04  0.16911643130E+04  0.87086822996E+02 0.  0.
         11    1    3    3    0    0 -0.16804174135E+03 -0.90336338005E+02  0.64839953207E+03  0.67588507454E+03  0.00000000000E+00 0. -1.
        -11    1    3    3    0    0 -0.15802201258E+03 -0.92416561783E+02  0.99863915142E+03  0.10152792385E+04  0.00000000000E+00 0.  1.
         22    1    1    2    0    0  0.32606375393E+03  0.18275289979E+03 -0.40134813287E+03  0.54844919342E+03  0.00000000000E+00 0.  1.
<mgrwt>
<rscale>  0 0.18612157E+04</rscale>
<asrwt>0</asrwt>
<pdfrwt beam="1">  1        2 0.26810031E+00 0.18612157E+04</pdfrwt>
<pdfrwt beam="2">  1       -2 0.76455613E-01 0.18612157E+04</pdfrwt>
<totfact> 0.13345466E+01</totfact>
</mgrwt>
</event>
<event>
 6    1  0.1885829E-005  0.1490859E+04  0.7818608E-02  0.8890555E-01
          2   -1    0    0  501    0  0.00000000000E+00  0.00000000000E+00  0.16299087199E+04  0.16299087199E+04  0.00000000000E+00 0. -1.
         -2   -1    0    0    0  501 -0.00000000000E+00 -0.00000000000E+00 -0.34091777326E+03  0.34091777326E+03  0.00000000000E+00 0.  1.
         23    2    1    2    0    0  0.52426701291E+03 -0.17210814801E+03 -0.10218597638E+02  0.55929450437E+03  0.90712774398E+02 0.  0.
         11    1    3    3    0    0  0.36592964398E+03 -0.97966897279E+02  0.29633903484E+02  0.37997392745E+03  0.00000000000E+00 0.  1.
        -11    1    3    3    0    0  0.15833736893E+03 -0.74141250733E+02 -0.39852501123E+02  0.17932057692E+03  0.00000000000E+00 0. -1.
         22    1    1    2    0    0 -0.52426701291E+03  0.17210814801E+03  0.12992095443E+04  0.14115319888E+04  0.00000000000E+00 0. -1.
<mgrwt>
<rscale>  0 0.14908586E+04</rscale>
<asrwt>0</asrwt>
<pdfrwt beam="1">  1        2 0.25075518E+00 0.14908586E+04</pdfrwt>
<pdfrwt beam="2">  1       -2 0.52448889E-01 0.14908586E+04</pdfrwt>
<totfact> 0.35584757E+01</totfact>
</mgrwt>
</event>
<event>
 6    1  0.1885829E-005  0.3242497E+04  0.7818608E-02  0.8177683E-01
         -2   -1    0    0    0  501 -0.00000000000E+00  0.00000000000E+00  0.20986376804E+04  0.20986376804E+04  0.00000000000E+00 0.  1.
          2   -1    0    0  501    0  0.00000000000E+00 -0.00000000000E+00 -0.12524534674E+04  0.12524534674E+04  0.00000000000E+00 0. -1.
         23    2    1    2    0    0 -0.12494881884E+04 -0.76657307543E+02 -0.63931318083E+03  0.14084641680E+04  0.89178998348E+02 0.  0.
         13    1    3    3    0    0 -0.88658639808E+03 -0.84706628599E+02 -0.48401810754E+03  0.10136489445E+04  0.00000000000E+00 0. -1.
        -13    1    3    3    0    0 -0.36290179030E+03  0.80493210559E+01 -0.15529507330E+03  0.39481522357E+03  0.00000000000E+00 0.  1.
         22    1    1    2    0    0  0.12494881884E+04  0.76657307543E+02  0.14854973938E+04  0.19426269798E+04  0.00000000000E+00 0.  1.
<mgrwt>
<rscale>  0 0.32424966E+04</rscale>
<asrwt>0</asrwt>
<pdfrwt beam="1">  1        2 0.19268515E+00 0.32424966E+04</pdfrwt>
<pdfrwt beam="2">  1       -2 0.32286733E+00 0.32424966E+04</pdfrwt>
<totfact> 0.33994549E-01</totfact>
</mgrwt>
</event>
<event>
 6    1  0.1885829E-005  0.3864127E+04  0.7818608E-02  0.8032532E-01
          2   -1    0    0  501    0  0.00000000000E+00  0.00000000000E+00  0.51303232532E+04  0.51303232532E+04  0.00000000000E+00 0. -1.
         -2   -1    0    0    0  501 -0.00000000000E+00 -0.00000000000E+00 -0.72760912834E+03  0.72760912834E+03  0.00000000000E+00 0.  1.
         23    2    1    2    0    0  0.28059080530E+03 -0.14618789775E+04  0.33765718247E+03  0.15289013942E+04  0.87782431546E+02 0.  0.
         13    1    3    3    0    0  0.21561650290E+03 -0.12120325995E+04  0.24936584945E+03  0.12560640212E+04  0.00000000000E+00 0. -1.
        -13    1    3    3    0    0  0.64974302404E+02 -0.24984637800E+03  0.88291333023E+02  0.27283737292E+03  0.00000000000E+00 0.  1.
         22    1    1    2    0    0 -0.28059080530E+03  0.14618789775E+04  0.40650569424E+04  0.43290309874E+04  0.00000000000E+00 0. -1.
<mgrwt>
<rscale>  0 0.38641273E+04</rscale>
<asrwt>0</asrwt>
<pdfrwt beam="1">  1        2 0.78928048E+00 0.38641273E+04</pdfrwt>
<pdfrwt beam="2">  1       -2 0.11193987E+00 0.38641273E+04</pdfrwt>
<totfact> 0.11468315E-02</totfact>
</mgrwt>
</event>
<event>
 6    1  0.1885829E-005  0.4139598E+03  0.7818608E-02  0.1039050E+00
          2   -1    0    0  501    0  0.00000000000E+00  0.00000000000E+00  0.82290389778E+03  0.82290389778E+03  0.00000000000E+00 0. -1.
         -2   -1    0    0    0  501 -0.00000000000E+00 -0.00000000000E+00 -0.52060357183E+02  0.52060357183E+02  0.00000000000E+00 0.  1.
         23    2    1    2    0    0  0.84705748546E+02  0.14585675925E+03  0.61946482257E+03  0.64832627419E+03  0.90227675079E+02 0.  0.
         11    1    3    3    0    0 -0.54856434045E+01  0.72296873296E+02  0.18978899955E+03  0.20316691296E+03  0.00000000000E+00 0.  1.
        -11    1    3    3    0    0  0.90191391951E+02  0.73559885956E+02  0.42967582302E+03  0.44515936124E+03  0.00000000000E+00 0. -1.
         22    1    1    2    0    0 -0.84705748546E+02 -0.14585675925E+03  0.15137871803E+03  0.22663798077E+03  0.00000000000E+00 0.  1.
<mgrwt>
<rscale>  0 0.41395976E+03</rscale>
<asrwt>0</asrwt>
<pdfrwt beam="1">  1        2 0.12660059E+00 0.41395976E+03</pdfrwt>
<pdfrwt beam="2">  1       -2 0.80092863E-02 0.41395976E+03</pdfrwt>
<totfact> 0.32439865E+03</totfact>
</mgrwt>
</event>
<event>
 6    1  0.1885829E-005  0.1202803E+04  0.7818608E-02  0.9110406E-01
         -2   -1    0    0    0  501 -0.00000000000E+00  0.00000000000E+00  0.60435465478E+03  0.60435465478E+03  0.00000000000E+00 0.  1.
          2   -1    0    0  501    0  0.00000000000E+00 -0.00000000000E+00 -0.59846292841E+03  0.59846292841E+03  0.00000000000E+00 0. -1.
         23    2    1    2    0    0  0.23415960679E+03 -0.11366446551E+02  0.55304951362E+03  0.60755162439E+03  0.91078505800E+02 0.  0.
         11    1    3    3    0    0  0.47599617359E+02  0.22950120955E+02  0.19890337017E+03  0.20580326113E+03  0.00000000000E+00 0. -1.
        -11    1    3    3    0    0  0.18655998943E+03 -0.34316567507E+02  0.35414614345E+03  0.40174836326E+03  0.00000000000E+00 0.  1.
         22    1    1    2    0    0 -0.23415960679E+03  0.11366446551E+02 -0.54715778725E+03  0.59526595880E+03  0.00000000000E+00 0. -1.
<mgrwt>
<rscale>  0 0.12028032E+04</rscale>
<asrwt>0</asrwt>
<pdfrwt beam="1">  1        2 0.92071219E-01 0.12028032E+04</pdfrwt>
<pdfrwt beam="2">  1       -2 0.92977640E-01 0.12028032E+04</pdfrwt>
<totfact> 0.48118848E+01</totfact>
</mgrwt>
</event>
<event>
 6    1  0.1885829E-005  0.4470853E+04  0.7818608E-02  0.7915760E-01
          2   -1    0    0  501    0  0.00000000000E+00  0.00000000000E+00  0.13600234924E+04  0.13600234924E+04  0.00000000000E+00 0. -1.
         -2   -1    0    0    0  501 -0.00000000000E+00 -0.00000000000E+00 -0.36742974199E+04  0.36742974199E+04  0.00000000000E+00 0.  1.
         23    2    1    2    0    0 -0.32006654817E+03  0.14948495300E+04 -0.29926822014E+04  0.33618211369E+04  0.93149800166E+02 0.  0.
         13    1    3    3    0    0 -0.16191803493E+03  0.72516633156E+03 -0.13534691533E+04  0.15440085516E+04  0.00000000000E+00 0. -1.
        -13    1    3    3    0    0 -0.15814851324E+03  0.76968319847E+03 -0.16392130481E+04  0.18178125853E+04  0.00000000000E+00 0.  1.
         22    1    1    2    0    0  0.32006654817E+03 -0.14948495300E+04  0.67840827394E+03  0.16724997754E+04  0.00000000000E+00 0. -1.
<mgrwt>
<rscale>  0 0.44708526E+04</rscale>
<asrwt>0</asrwt>
<pdfrwt beam="1">  1        2 0.20923439E+00 0.44708526E+04</pdfrwt>
<pdfrwt beam="2">  1       -2 0.56527651E+00 0.44708526E+04</pdfrwt>
<totfact> 0.83545580E-03</totfact>
</mgrwt>
</event>
<event>
 6    1  0.1885829E-005  0.2131955E+04  0.7818608E-02  0.8547296E-01
          2   -1    0    0  501    0  0.00000000000E+00  0.00000000000E+00  0.26444624144E+03  0.26444624144E+03  0.00000000000E+00 0.  1.
         -2   -1    0    0    0  501 -0.00000000000E+00 -0.00000000000E+00 -0.42969351162E+04  0.42969351162E+04  0.00000000000E+00 0. -1.
         23    2    1    2    0    0 -0.94622218204E+03  0.10388578406E+03 -0.30371676039E+04  0.31841402364E+04  0.90737626106E+02 0.  0.
         11    1    3    3    0    0 -0.60211237163E+03  0.10958657264E+03 -0.19265149748E+04  0.20213877592E+04  0.00000000000E+00 0.  1.
        -11    1    3    3    0    0 -0.34410981041E+03 -0.57007885755E+01 -0.11106526291E+04  0.11627524772E+04  0.00000000000E+00 0. -1.
         22    1    1    2    0    0  0.94622218204E+03 -0.10388578406E+03 -0.99532127090E+03  0.13772411213E+04  0.00000000000E+00 0.  1.
<mgrwt>
<rscale>  0 0.21319553E+04</rscale>
<asrwt>0</asrwt>
<pdfrwt beam="1">  1        2 0.40684041E-01 0.21319553E+04</pdfrwt>
<pdfrwt beam="2">  1       -2 0.66106688E+00 0.21319553E+04</pdfrwt>
<totfact> 0.35256919E-02</totfact>
</mgrwt>
</event>
<event>
 6    1  0.1885829E-005  0.2319686E+04  0.7818608E-02  0.8470199E-01
         -2   -1    0    0    0  501 -0.00000000000E+00  0.00000000000E+00  0.38008101746E+03  0.38008101746E+03  0.00000000000E+00 0.  1.
          2   -1    0    0  501    0  0.00000000000E+00 -0.00000000000E+00 -0.35393396141E+04  0.35393396141E+04  0.00000000000E+00 0. -1.
         23    2    1    2    0    0 -0.19301835636E+03 -0.38760776657E+03 -0.33968500424E+04  0.34255121769E+04  0.89708397812E+02 0.  0.
         13    1    3    3    0    0 -0.10567034066E+03 -0.25370478510E+03 -0.18292105955E+04  0.18497415337E+04  0.00000000000E+00 0.  1.
        -13    1    3    3    0    0 -0.87348015696E+02 -0.13390298147E+03 -0.15676394469E+04  0.15757706431E+04  0.00000000000E+00 0. -1.
         22    1    1    2    0    0  0.19301835636E+03  0.38760776657E+03  0.23759144572E+03  0.49390845475E+03  0.00000000000E+00 0.  1.
<mgrwt>
<rscale>  0 0.23196860E+04</rscale>
<asrwt>0</asrwt>
<pdfrwt beam="1">  1        2 0.54451382E+00 0.23196860E+04</pdfrwt>
<pdfrwt beam="2">  1       -2 0.58473999E-01 0.23196860E+04</pdfrwt>
<totfact> 0.18932293E+00</totfact>
</mgrwt>
</event>
<event>
 6    1  0.1885829E-005  0.3463720E+04  0.7818608E-02  0.8122442E-01
         -1   -1    0    0    0  501 -0.00000000000E+00  0.00000000000E+00  0.14192082152E+04  0.14192082152E+04  0.00000000000E+00 0.  1.
          1   -1    0    0  501    0  0.00000000000E+00 -0.00000000000E+00 -0.21133893509E+04  0.21133893509E+04  0.00000000000E+00 0. -1.
         23    2    1    2    0    0  0.11646218312E+04  0.51292684158E+03  0.84890465810E+03  0.15324596405E+04  0.91408296797E+02 0.  0.
         13    1    3    3    0    0  0.23124251361E+03  0.82533222536E+02  0.12690625611E+03  0.27638746492E+03  0.00000000000E+00 0. -1.
        -13    1    3    3    0    0  0.93337931755E+03  0.43039361904E+03  0.72199840199E+03  0.12560721756E+04  0.00000000000E+00 0.  1.
         22    1    1    2    0    0 -0.11646218312E+04 -0.51292684158E+03 -0.15430857939E+04  0.20001379257E+04  0.00000000000E+00 0. -1.
<mgrwt>
<rscale>  0 0.34637203E+04</rscale>
<asrwt>0</asrwt>
<pdfrwt beam="1">  1        1 0.32513682E+00 0.34637203E+04</pdfrwt>
<pdfrwt beam="2">  1       -1 0.21833973E+00 0.34637203E+04</pdfrwt>
<totfact> 0.23059800E-01</totfact>
</mgrwt>
</event>
<event>
 6    1  0.1885829E-005  0.2175734E+04  0.7818608E-02  0.8528596E-01
          1   -1    0    0  501    0  0.00000000000E+00  0.00000000000E+00  0.62508694939E+03  0.62508694939E+03  0.00000000000E+00 0. -1.
         -1   -1    0    0    0  501 -0.00000000000E+00 -0.00000000000E+00 -0.18932644926E+04  0.18932644926E+04  0.00000000000E+00 0.  1.
         23    2    1    2    0    0 -0.85368143317E+03 -0.63654380171E+03 -0.88221336784E+03  0.13856871733E+04  0.88704650421E+02 0.  0.
         13    1    3    3    0    0 -0.57863105743E+03 -0.47107224491E+03 -0.64932464809E+03  0.98911347133E+03  0.00000000000E+00 0. -1.
        -13    1    3    3    0    0 -0.27505037575E+03 -0.16547155681E+03 -0.23288871975E+03  0.39657370197E+03  0.00000000000E+00 0.  1.
         22    1    1    2    0    0  0.85368143317E+03  0.63654380171E+03 -0.38596417533E+03  0.11326642687E+04  0.00000000000E+00 0. -1.
<mgrwt>
<rscale>  0 0.21757343E+04</rscale>
<asrwt>0</asrwt>
<pdfrwt beam="1">  1        1 0.96167225E-01 0.21757343E+04</pdfrwt>
<pdfrwt beam="2">  1       -1 0.29127145E+00 0.21757343E+04</pdfrwt>
<totfact> 0.11092948E+00</totfact>
</mgrwt>
</event>
<event>
 6    1  0.1885829E-005  0.6183933E+03  0.7818608E-02  0.9867964E-01
          2   -1    0    0  501    0  0.00000000000E+00  0.00000000000E+00  0.11577797139E+04  0.11577797139E+04  0.00000000000E+00 0.  1.
         -2   -1    0    0    0  501 -0.00000000000E+00 -0.00000000000E+00 -0.82574069712E+02  0.82574069712E+02  0.00000000000E+00 0. -1.
         23    2    1    2    0    0  0.10388595131E+03  0.28259084305E+03  0.61517975372E+03  0.69055955359E+03  0.88184421622E+02 0.  0.
         11    1    3    3    0    0 -0.26966910391E+01  0.39542223957E+02  0.36305969420E+02  0.53749260772E+02  0.00000000000E+00 0.  1.
        -11    1    3    3    0    0  0.10658264235E+03  0.24304861909E+03  0.57887378430E+03  0.63681029282E+03  0.00000000000E+00 0. -1.
         22    1    1    2    0    0 -0.10388595131E+03 -0.28259084305E+03  0.46002589043E+03  0.54979422998E+03  0.00000000000E+00 0.  1.
<mgrwt>
<rscale>  0 0.61839335E+03</rscale>
<asrwt>0</asrwt>
<pdfrwt beam="1">  1        2 0.17811994E+00 0.61839335E+03</pdfrwt>
<pdfrwt beam="2">  1       -2 0.12703704E-01 0.61839335E+03</pdfrwt>
<totfact> 0.93981519E+02</totfact>
</mgrwt>
</event>
<event>
 6    1  0.1885829E-005  0.1341913E+04  0.7818608E-02  0.8996973E-01
          2   -1    0    0  501    0  0.00000000000E+00  0.00000000000E+00  0.29633096893E+04  0.29633096893E+04  0.00000000000E+00 0. -1.
         -2   -1    0    0    0  501 -0.00000000000E+00 -0.00000000000E+00 -0.15191882741E+03  0.15191882741E+03  0.00000000000E+00 0.  1.
         23    2    1    2    0    0  0.46051112551E+03  0.23274784893E+03  0.42777561413E+03  0.67640426981E+03  0.91042310363E+02 0.  0.
         13    1    3    3    0    0  0.14993467750E+03  0.11425203641E+03  0.19045339786E+03  0.26796722206E+03  0.00000000000E+00 0. -1.
        -13    1    3    3    0    0  0.31057644801E+03  0.11849581252E+03  0.23732221627E+03  0.40843704775E+03  0.00000000000E+00 0.  1.
         22    1    1    2    0    0 -0.46051112551E+03 -0.23274784893E+03  0.23836152478E+04  0.24388242469E+04  0.00000000000E+00 0. -1.
<mgrwt>
<rscale>  0 0.13419129E+04</rscale>
<asrwt>0</asrwt>
<pdfrwt beam="1">  1        2 0.45589376E+00 0.13419129E+04</pdfrwt>
<pdfrwt beam="2">  1       -2 0.23372129E-01 0.13419129E+04</pdfrwt>
<totfact> 0.29354218E+01</totfact>
</mgrwt>
</event>
<event>
 6    1  0.1885829E-005  0.1938916E+04  0.7818608E-02  0.8635724E-01
          2   -1    0    0  501    0  0.00000000000E+00  0.00000000000E+00  0.12701699995E+04  0.12701699995E+04  0.00000000000E+00 0. -1.
         -2   -1    0    0    0  501 -0.00000000000E+00 -0.00000000000E+00 -0.73993938826E+03  0.73993938826E+03  0.00000000000E+00 0.  1.
         23    2    1    2    0    0 -0.64588480083E+03 -0.16607718557E+02 -0.48089559082E+03  0.81018472815E+03  0.87725322442E+02 0.  0.
         11    1    3    3    0    0 -0.17806814735E+03 -0.12424034598E+02 -0.18253683999E+03  0.25530828363E+03  0.00000000000E+00 0. -1.
        -11    1    3    3    0    0 -0.46781665348E+03 -0.41836839594E+01 -0.29835875082E+03  0.55487644452E+03  0.00000000000E+00 0.  1.
         22    1    1    2    0    0  0.64588480083E+03  0.16607718557E+02  0.10111262021E+04  0.11999246596E+04  0.00000000000E+00 0. -1.
<mgrwt>
<rscale>  0 0.19389160E+04</rscale>
<asrwt>0</asrwt>
<pdfrwt beam="1">  1        2 0.19541077E+00 0.19389160E+04</pdfrwt>
<pdfrwt beam="2">  1       -2 0.11383683E+00 0.19389160E+04</pdfrwt>
<totfact> 0.97144561E+00</totfact>
</mgrwt>
</event>
<event>
 6    1  0.1885829E-005  0.8681763E+03  0.7818608E-02  0.9466261E-01
         -2   -1    0    0    0  501 -0.00000000000E+00  0.00000000000E+00  0.49825582554E+02  0.49825582554E+02  0.00000000000E+00 0. -1.
          2   -1    0    0  501    0  0.00000000000E+00 -0.00000000000E+00 -0.37818425207E+04  0.37818425207E+04  0.00000000000E+00 0.  1.
         23    2    1    2    0    0  0.93390711929E+02  0.11695052611E+03 -0.36623515123E+04  0.36665847237E+04  0.92874572803E+02 0.  0.
         11    1    3    3    0    0  0.88362751318E+02  0.41442223234E+02 -0.17286236322E+04  0.17313766475E+04  0.00000000000E+00 0.  1.
        -11    1    3    3    0    0  0.50279606117E+01  0.75508302876E+02 -0.19337278801E+04  0.19352080763E+04  0.00000000000E+00 0. -1.
         22    1    1    2    0    0 -0.93390711929E+02 -0.11695052611E+03 -0.69665425882E+02  0.16508337952E+03  0.00000000000E+00 0. -1.
<mgrwt>
<rscale>  0 0.86817626E+03</rscale>
<asrwt>0</asrwt>
<pdfrwt beam="1">  1        2 0.58182193E+00 0.86817626E+03</pdfrwt>
<pdfrwt beam="2">  1       -2 0.76654742E-02 0.86817626E+03</pdfrwt>
<totfact> 0.57198817E+01</totfact>
</mgrwt>
</event>
<event>
 6    1  0.1885829E-005  0.1598509E+04  0.7818608E-02  0.8821465E-01
          2   -1    0    0  501    0  0.00000000000E+00  0.00000000000E+00  0.18839000138E+04  0.18839000138E+04  0.00000000000E+00 0. -1.
         -2   -1    0    0    0  501 -0.00000000000E+00 -0.00000000000E+00 -0.33908779757E+03  0.33908779757E+03  0.00000000000E+00 0.  1.
         23    2    1    2    0    0  0.45067407749E+03 -0.11777925494E+03 -0.12394568202E+03  0.49043709062E+03  0.90481659720E+02 0.  0.
         11    1    3    3    0    0  0.39317185468E+03 -0.92527617543E+02 -0.13657374410E+03  0.42637759662E+03  0.00000000000E+00 0. -1.
        -11    1    3    3    0    0  0.57502222808E+02 -0.25251637396E+02  0.12628062081E+02  0.64059493995E+02  0.00000000000E+00 0.  1.
         22    1    1    2    0    0 -0.45067407749E+03  0.11777925494E+03  0.16687578982E+04  0.17325507207E+04  0.00000000000E+00 0. -1.
<mgrwt>
<rscale>  0 0.15985087E+04</rscale>
<asrwt>0</asrwt>
<pdfrwt beam="1">  1        2 0.28983076E+00 0.15985087E+04</pdfrwt>
<pdfrwt beam="2">  1       -2 0.52167355E-01 0.15985087E+04</pdfrwt>
<totfact> 0.25786965E+01</totfact>
</mgrwt>
</event>
<event>
 6    1  0.1885829E-005  0.1823646E+04  0.7818608E-02  0.8693825E-01
         -2   -1    0    0    0  501 -0.00000000000E+00  0.00000000000E+00  0.77938648115E+03  0.77938648115E+03  0.00000000000E+00 0.  1.
          2   -1    0    0  501    0  0.00000000000E+00 -0.00000000000E+00 -0.10667641252E+04  0.10667641252E+04  0.00000000000E+00 0. -1.
         23    2    1    2    0    0  0.53101489804E+02  0.87407204443E+03 -0.39350762928E+03  0.96405918210E+03  0.87978095052E+02 0.  0.
         13    1    3    3    0    0  0.18508715628E+02  0.56155997818E+03 -0.29480870267E+03  0.63451111323E+03  0.00000000000E+00 0. -1.
        -13    1    3    3    0    0  0.34592774176E+02  0.31251206625E+03 -0.98698926615E+02  0.32954806887E+03  0.00000000000E+00 0.  1.
         22    1    1    2    0    0 -0.53101489804E+02 -0.87407204443E+03  0.10612998519E+03  0.88209142430E+03  0.00000000000E+00 0.  1.
<mgrwt>
<rscale>  0 0.18236464E+04</rscale>
<asrwt>0</asrwt>
<pdfrwt beam="1">  1        2 0.16411756E+00 0.18236464E+04</pdfrwt>
<pdfrwt beam="2">  1       -2 0.11990561E+00 0.18236464E+04</pdfrwt>
<totfact> 0.11455727E+01</totfact>
</mgrwt>
</event>
<event>
 6    1  0.1885829E-005  0.2638839E+04  0.7818608E-02  0.8355127E-01
          2   -1    0    0  501    0  0.00000000000E+00  0.00000000000E+00  0.21321916826E+04  0.21321916826E+04  0.00000000000E+00 0. -1.
         -2   -1    0    0    0  501 -0.00000000000E+00 -0.00000000000E+00 -0.81646878708E+03  0.81646878708E+03  0.00000000000E+00 0.  1.
         23    2    1    2    0    0 -0.41913581393E+03 -0.18249363703E+03 -0.72253237812E+03  0.85977001812E+03  0.90402923318E+02 0.  0.
         11    1    3    3    0    0 -0.36901714011E+03 -0.13913256630E+03 -0.56659676701E+03  0.69033572780E+03  0.00000000000E+00 0. -1.
        -11    1    3    3    0    0 -0.50118673820E+02 -0.43361070728E+02 -0.15593561111E+03  0.16943429031E+03  0.00000000000E+00 0.  1.
         22    1    1    2    0    0  0.41913581393E+03  0.18249363703E+03  0.20382552736E+04  0.20888904515E+04  0.00000000000E+00 0. -1.
<mgrwt>
<rscale>  0 0.26388391E+04</rscale>
<asrwt>0</asrwt>
<pdfrwt beam="1">  1        2 0.32802949E+00 0.26388391E+04</pdfrwt>
<pdfrwt beam="2">  1       -2 0.12561058E+00 0.26388391E+04</pdfrwt>
<totfact> 0.23540743E+00</totfact>
</mgrwt>
</event>
<event>
 6    1  0.1885829E-005  0.2840055E+04  0.7818608E-02  0.8290940E-01
          2   -1    0    0  501    0  0.00000000000E+00  0.00000000000E+00  0.18532659491E+04  0.18532659491E+04  0.00000000000E+00 0. -1.
         -2   -1    0    0    0  501 -0.00000000000E+00 -0.00000000000E+00 -0.10880673063E+04  0.10880673063E+04  0.00000000000E+00 0.  1.
         23    2    1    2    0    0  0.10417827334E+04 -0.82710361508E+03 -0.12727509314E+03  0.13394840043E+04  0.92772811636E+02 0.  0.
         13    1    3    3    0    0  0.81328218238E+03 -0.61782857911E+03 -0.13027354101E+03  0.10296170438E+04  0.00000000000E+00 0.  1.
        -13    1    3    3    0    0  0.22850055106E+03 -0.20927503598E+03  0.29984478698E+01  0.30986696050E+03  0.00000000000E+00 0. -1.
         22    1    1    2    0    0 -0.10417827334E+04  0.82710361508E+03  0.89247373599E+03  0.16018492511E+04  0.00000000000E+00 0.  1.
<mgrwt>
<rscale>  0 0.28400550E+04</rscale>
<asrwt>0</asrwt>
<pdfrwt beam="1">  1        2 0.28511784E+00 0.28400550E+04</pdfrwt>
<pdfrwt beam="2">  1       -2 0.16739497E+00 0.28400550E+04</pdfrwt>
<totfact> 0.15556127E+00</totfact>
</mgrwt>
</event>
<event>
 6    1  0.1885829E-005  0.2957478E+04  0.7818608E-02  0.8255979E-01
         -2   -1    0    0    0  501 -0.00000000000E+00  0.00000000000E+00  0.13246264846E+04  0.13246264846E+04  0.00000000000E+00 0.  1.
          2   -1    0    0  501    0  0.00000000000E+00 -0.00000000000E+00 -0.16507817487E+04  0.16507817487E+04  0.00000000000E+00 0. -1.
         23    2    1    2    0    0  0.68088033317E+02  0.10230518892E+04 -0.12331774795E+04  0.16064814831E+04  0.93727856668E+02 0.  0.
         11    1    3    3    0    0  0.48390141501E+02  0.22368566208E+03 -0.30635103294E+03  0.38239748509E+03  0.00000000000E+00 0.  1.
        -11    1    3    3    0    0  0.19697891816E+02  0.79936622713E+03 -0.92682644659E+03  0.12240839980E+04  0.00000000000E+00 0. -1.
         22    1    1    2    0    0 -0.68088033317E+02 -0.10230518892E+04  0.90702221535E+03  0.13689267502E+04  0.00000000000E+00 0.  1.
<mgrwt>
<rscale>  0 0.29574781E+04</rscale>
<asrwt>0</asrwt>
<pdfrwt beam="1">  1        2 0.25396642E+00 0.29574781E+04</pdfrwt>
<pdfrwt beam="2">  1       -2 0.20378869E+00 0.29574781E+04</pdfrwt>
<totfact> 0.11273699E+00</totfact>
</mgrwt>
</event>
<event>
 6    1  0.1885829E-005  0.1930882E+04  0.7818608E-02  0.8639635E-01
          2   -1    0    0  501    0  0.00000000000E+00  0.00000000000E+00  0.29778168686E+04  0.29778168686E+04  0.00000000000E+00 0. -1.
         -2   -1    0    0    0  501 -0.00000000000E+00 -0.00000000000E+00 -0.31300650066E+03  0.31300650066E+03  0.00000000000E+00 0.  1.
         23    2    1    2    0    0  0.77622905690E+03 -0.49947111532E+03  0.86700005775E+03  0.12699015857E+04  0.94646676796E+02 0.  0.
         13    1    3    3    0    0  0.40077348921E+03 -0.20173280129E+03  0.42300731205E+03  0.61664471036E+03  0.00000000000E+00 0. -1.
        -13    1    3    3    0    0  0.37545556769E+03 -0.29773831404E+03  0.44399274570E+03  0.65325687534E+03  0.00000000000E+00 0.  1.
         22    1    1    2    0    0 -0.77622905690E+03  0.49947111532E+03  0.17978103102E+04  0.20209217836E+04  0.00000000000E+00 0. -1.
<mgrwt>
<rscale>  0 0.19308817E+04</rscale>
<asrwt>0</asrwt>
<pdfrwt beam="1">  1        2 0.45812565E+00 0.19308817E+04</pdfrwt>
<pdfrwt beam="2">  1       -2 0.48154848E-01 0.19308817E+04</pdfrwt>
<totfact> 0.68801323E+00</totfact>
</mgrwt>
</event>
<event>
 6    1  0.1885829E-005  0.2767972E+04  0.7818608E-02  0.8313281E-01
          2   -1    0    0  501    0  0.00000000000E+00  0.00000000000E+00  0.23073930936E+04  0.23073930936E+04  0.00000000000E+00 0. -1.
         -2   -1    0    0    0  501 -0.00000000000E+00 -0.00000000000E+00 -0.83012182101E+03  0.83012182101E+03  0.00000000000E+00 0.  1.
         23    2    1    2    0    0 -0.12170348949E+04  0.64395709052E+03  0.59895310883E+03  0.15043286219E+04  0.91679366333E+02 0.  0.
         11    1    3    3    0    0 -0.75648812545E+03  0.36319275263E+03  0.39767049374E+03  0.92861460311E+03  0.00000000000E+00 0. -1.
        -11    1    3    3    0    0 -0.46054676948E+03  0.28076433789E+03  0.20128261509E+03  0.57571401880E+03  0.00000000000E+00 0.  1.
         22    1    1    2    0    0  0.12170348949E+04 -0.64395709052E+03  0.87831816378E+03  0.16331862927E+04  0.00000000000E+00 0. -1.
<mgrwt>
<rscale>  0 0.27679721E+04</rscale>
<asrwt>0</asrwt>
<pdfrwt beam="1">  1        2 0.35498355E+00 0.27679721E+04</pdfrwt>
<pdfrwt beam="2">  1       -2 0.12771105E+00 0.27679721E+04</pdfrwt>
<totfact> 0.17792251E+00</totfact>
</mgrwt>
</event>
<event>
 6    1  0.1885829E-005  0.6187879E+04  0.7818608E-02  0.7667534E-01
          2   -1    0    0  501    0  0.00000000000E+00  0.00000000000E+00  0.39746312813E+04  0.39746312813E+04  0.00000000000E+00 0. -1.
         -2   -1    0    0    0  501 -0.00000000000E+00 -0.00000000000E+00 -0.24083896406E+04  0.24083896406E+04  0.00000000000E+00 0.  1.
         23    2    1    2    0    0  0.23090875582E+04 -0.20435491679E+04  0.10366390964E+04  0.32543698693E+04  0.91236378593E+02 0.  0.
         13    1    3    3    0    0  0.57874493933E+03 -0.46461465031E+03  0.26617841119E+03  0.78845635558E+03  0.00000000000E+00 0.  1.
        -13    1    3    3    0    0  0.17303426189E+04 -0.15789345176E+04  0.77046068525E+03  0.24659135138E+04  0.00000000000E+00 0. -1.
         22    1    1    2    0    0 -0.23090875582E+04  0.20435491679E+04  0.52960254429E+03  0.31286510525E+04  0.00000000000E+00 0. -1.
<mgrwt>
<rscale>  0 0.61878787E+04</rscale>
<asrwt>0</asrwt>
<pdfrwt beam="1">  1        2 0.61148174E+00 0.61878787E+04</pdfrwt>
<pdfrwt beam="2">  1       -2 0.37052148E+00 0.61878787E+04</pdfrwt>
<totfact> 0.27279330E-03</totfact>
</mgrwt>
</event>
<event>
 6    1  0.1885829E-005  0.7532660E+03  0.7818608E-02  0.9630240E-01
          2   -1    0    0  501    0  0.00000000000E+00  0.00000000000E+00  0.11076610167E+04  0.11076610167E+04  0.00000000000E+00 0. -1.
         -2   -1    0    0    0  501 -0.00000000000E+00 -0.00000000000E+00 -0.12806483009E+03  0.12806483009E+03  0.00000000000E+00 0.  1.
         23    2    1    2    0    0 -0.21964228923E+03  0.71650239914E+02  0.20140029512E+02  0.24884560609E+03  0.90233157891E+02 0.  0.
         13    1    3    3    0    0 -0.16537950931E+03  0.85200677232E+02 -0.80567726762E+01  0.18621076523E+03  0.00000000000E+00 0. -1.
        -13    1    3    3    0    0 -0.54262779920E+02 -0.13550437318E+02  0.28196802188E+02  0.62634840861E+02  0.00000000000E+00 0.  1.
         22    1    1    2    0    0  0.21964228923E+03 -0.71650239914E+02  0.95945615705E+03  0.98688024066E+03  0.00000000000E+00 0. -1.
<mgrwt>
<rscale>  0 0.75326601E+03</rscale>
<asrwt>0</asrwt>
<pdfrwt beam="1">  1        2 0.17040938E+00 0.75326601E+03</pdfrwt>
<pdfrwt beam="2">  1       -2 0.19702282E-01 0.75326601E+03</pdfrwt>
<totfact> 0.47531792E+02</totfact>
</mgrwt>
</event>
<event>
 6    1  0.1885829E-005  0.2418991E+04  0.7818608E-02  0.8432428E-01
          2   -1    0    0  501    0  0.00000000000E+00  0.00000000000E+00  0.84315924874E+03  0.84315924874E+03  0.00000000000E+00 0. -1.
         -2   -1    0    0    0  501 -0.00000000000E+00 -0.00000000000E+00 -0.17349970655E+04  0.17349970655E+04  0.00000000000E+00 0.  1.
         23    2    1    2    0    0 -0.26942706766E+03 -0.36874922509E+03 -0.16382316244E+04  0.17031302279E+04  0.91009791330E+02 0.  0.
         11    1    3    3    0    0 -0.17604837826E+03 -0.29504535395E+03 -0.11251668244E+04  0.11764544934E+04  0.00000000000E+00 0. -1.
        -11    1    3    3    0    0 -0.93378689396E+02 -0.73703871142E+02 -0.51306479998E+03  0.52667573442E+03  0.00000000000E+00 0.  1.
         22    1    1    2    0    0  0.26942706766E+03  0.36874922509E+03  0.74639380763E+03  0.87502608639E+03  0.00000000000E+00 0. -1.
<mgrwt>
<rscale>  0 0.24189906E+04</rscale>
<asrwt>0</asrwt>
<pdfrwt beam="1">  1        2 0.12971681E+00 0.24189906E+04</pdfrwt>
<pdfrwt beam="2">  1       -2 0.26692262E+00 0.24189906E+04</pdfrwt>
<totfact> 0.14581648E+00</totfact>
</mgrwt>
</event>
<event>
 6    1  0.1885829E-005  0.3063330E+04  0.7818608E-02  0.8225874E-01
          2   -1    0    0  501    0  0.00000000000E+00  0.00000000000E+00  0.29335671437E+04  0.29335671437E+04  0.00000000000E+00 0. -1.
         -2   -1    0    0    0  501 -0.00000000000E+00 -0.00000000000E+00 -0.79970831919E+03  0.79970831919E+03  0.00000000000E+00 0.  1.
         23    2    1    2    0    0  0.98913841300E+03  0.79689660004E+02 -0.35170073461E+03  0.10569437264E+04  0.93227635340E+02 0.  0.
         11    1    3    3    0    0  0.89912108464E+03  0.66971768558E+02 -0.29012215677E+03  0.94714033199E+03  0.00000000000E+00 0.  1.
        -11    1    3    3    0    0  0.90017328356E+02  0.12717891446E+02 -0.61578577837E+02  0.10980339437E+03  0.00000000000E+00 0. -1.
         22    1    1    2    0    0 -0.98913841300E+03 -0.79689660004E+02  0.24855595591E+04  0.26763317365E+04  0.00000000000E+00 0. -1.
<mgrwt>
<rscale>  0 0.30633302E+04</rscale>
<asrwt>0</asrwt>
<pdfrwt beam="1">  1        2 0.45131802E+00 0.30633302E+04</pdfrwt>
<pdfrwt beam="2">  1       -2 0.12303205E+00 0.30633302E+04</pdfrwt>
<totfact> 0.81335332E-01</totfact>
</mgrwt>
</event>
<event>
 6    1  0.1885829E-005  0.6490379E+04  0.7818608E-02  0.7632406E-01
          2   -1    0    0  501    0  0.00000000000E+00  0.00000000000E+00  0.22771097458E+04  0.22771097458E+04  0.00000000000E+00 0. -1.
         -2   -1    0    0    0  501 -0.00000000000E+00 -0.00000000000E+00 -0.46248338285E+04  0.46248338285E+04  0.00000000000E+00 0.  1.
         23    2    1    2    0    0  0.57999051938E+03 -0.15968736499E+03 -0.45645542918E+04  0.46049400407E+04  0.91803256978E+02 0.  0.
         13    1    3    3    0    0  0.49937169236E+03 -0.16900467143E+03 -0.39158711481E+04  0.39512000095E+04  0.00000000000E+00 0.  1.
        -13    1    3    3    0    0  0.80618827021E+02  0.93173064457E+01 -0.64868314369E+03  0.65374003119E+03  0.00000000000E+00 0. -1.
         22    1    1    2    0    0 -0.57999051938E+03  0.15968736499E+03  0.22168302091E+04  0.22970035336E+04  0.00000000000E+00 0. -1.
<mgrwt>
<rscale>  0 0.64903788E+04</rscale>
<asrwt>0</asrwt>
<pdfrwt beam="1">  1        2 0.35032458E+00 0.64903788E+04</pdfrwt>
<pdfrwt beam="2">  1       -2 0.71151289E+00 0.64903788E+04</pdfrwt>
<totfact> 0.63842190E-04</totfact>
</mgrwt>
</event>
<event>
 6    1  0.2856829E-005  0.3853853E+04  0.7818608E-02  0.8034696E-01
         -2   -1    0    0    0  501 -0.00000000000E+00  0.00000000000E+00  0.19725938758E+04  0.19725938758E+04  0.00000000000E+00 0.  1.
          2   -1    0    0  501    0  0.00000000000E+00 -0.00000000000E+00 -0.18823166064E+04  0.18823166064E+04  0.00000000000E+00 0. -1.
         23    2    1    2    0    0  0.54644704934E+03 -0.14875077821E+04  0.11398587509E+04  0.19541461449E+04  0.90141022029E+02 0.  0.
         13    1    3    3    0    0  0.40488450805E+03 -0.98180818282E+03  0.77342990812E+03  0.13138008203E+04  0.00000000000E+00 0.  1.
        -13    1    3    3    0    0  0.14156254129E+03 -0.50569959929E+03  0.36642884281E+03  0.64034532454E+03  0.00000000000E+00 0. -1.
         22    1    1    2    0    0 -0.54644704934E+03  0.14875077821E+04 -0.10495814816E+04  0.19007643373E+04  0.00000000000E+00 0. -1.
<mgrwt>
<rscale>  0 0.38538532E+04</rscale>
<asrwt>0</asrwt>
<pdfrwt beam="1">  1        2 0.28958717E+00 0.38538532E+04</pdfrwt>
<pdfrwt beam="2">  1       -2 0.30347598E+00 0.38538532E+04</pdfrwt>
<totfact> 0.18763339E-01</totfact>
</mgrwt>
</event>
<event>
 6    1  0.1885829E-005  0.2341306E+04  0.7818608E-02  0.8461810E-01
         -1   -1    0    0    0  501 -0.00000000000E+00  0.00000000000E+00  0.25530455234E+04  0.25530455234E+04  0.00000000000E+00 0.  1.
          1   -1    0    0  501    0  0.00000000000E+00 -0.00000000000E+00 -0.53678189133E+03  0.53678189133E+03  0.00000000000E+00 0. -1.
         23    2    1    2    0    0  0.61574981367E+03 -0.88268232041E+03  0.40792879978E+03  0.11546228146E+04  0.92043611495E+02 0.  0.
         13    1    3    3    0    0  0.41615072361E+03 -0.63650642883E+03  0.32510986700E+03  0.82705397909E+03  0.00000000000E+00 0. -1.
        -13    1    3    3    0    0  0.19959909005E+03 -0.24617589157E+03  0.82818932784E+02  0.32756883547E+03  0.00000000000E+00 0.  1.
         22    1    1    2    0    0 -0.61574981367E+03  0.88268232041E+03  0.16083348323E+04  0.19352046002E+04  0.00000000000E+00 0.  1.
<mgrwt>
<rscale>  0 0.23413061E+04</rscale>
<asrwt>0</asrwt>
<pdfrwt beam="1">  1        1 0.82581831E-01 0.23413061E+04</pdfrwt>
<pdfrwt beam="2">  1       -1 0.39277623E+00 0.23413061E+04</pdfrwt>
<totfact> 0.28991526E-01</totfact>
</mgrwt>
</event>
<event>
 6    1  0.1885829E-005  0.2206427E+04  0.7818608E-02  0.8515758E-01
          2   -1    0    0  501    0  0.00000000000E+00  0.00000000000E+00  0.19389912775E+04  0.19389912775E+04  0.00000000000E+00 0. -1.
         -2   -1    0    0    0  501 -0.00000000000E+00 -0.00000000000E+00 -0.62768695792E+03  0.62768695792E+03  0.00000000000E+00 0.  1.
         23    2    1    2    0    0 -0.67564474167E+03 -0.37433879951E+03  0.15699418577E+04  0.17521116452E+04  0.92479333809E+02 0.  0.
         13    1    3    3    0    0 -0.35221929220E+03 -0.24742856018E+03  0.87927729215E+03  0.97898308396E+03  0.00000000000E+00 0. -1.
        -13    1    3    3    0    0 -0.32342544947E+03 -0.12691023933E+03  0.69066456552E+03  0.77312856128E+03  0.00000000000E+00 0.  1.
         22    1    1    2    0    0  0.67564474167E+03  0.37433879951E+03 -0.25863753807E+03  0.81456659019E+03  0.00000000000E+00 0.  1.
<mgrwt>
<rscale>  0 0.22064266E+04</rscale>
<asrwt>0</asrwt>
<pdfrwt beam="1">  1        2 0.29830635E+00 0.22064266E+04</pdfrwt>
<pdfrwt beam="2">  1       -2 0.96567225E-01 0.22064266E+04</pdfrwt>
<totfact> 0.59191364E+00</totfact>
</mgrwt>
</event>
<event>
 6    1  0.1885829E-005  0.7279939E+03  0.7818608E-02  0.9670521E-01
         -2   -1    0    0    0  501 -0.00000000000E+00  0.00000000000E+00  0.11024257285E+03  0.11024257285E+03  0.00000000000E+00 0.  1.
          2   -1    0    0  501    0  0.00000000000E+00 -0.00000000000E+00 -0.12018386440E+04  0.12018386440E+04  0.00000000000E+00 0. -1.
         23    2    1    2    0    0  0.82498835165E+02  0.33802711357E+03 -0.70857479333E+03  0.79461268006E+03  0.90899319314E+02 0.  0.
         13    1    3    3    0    0  0.68603679203E+02  0.10072905745E+03 -0.23393897621E+03  0.26378068998E+03  0.00000000000E+00 0.  1.
        -13    1    3    3    0    0  0.13895155961E+02  0.23729805612E+03 -0.47463581712E+03  0.53083199008E+03  0.00000000000E+00 0. -1.
         22    1    1    2    0    0 -0.82498835165E+02 -0.33802711357E+03 -0.38302127784E+03  0.51746853682E+03  0.00000000000E+00 0.  1.
<mgrwt>
<rscale>  0 0.72799391E+03</rscale>
<asrwt>0</asrwt>
<pdfrwt beam="1">  1        2 0.18489826E+00 0.72799391E+03</pdfrwt>
<pdfrwt beam="2">  1       -2 0.16960395E-01 0.72799391E+03</pdfrwt>
<totfact> 0.54141891E+02</totfact>
</mgrwt>
</event>
<event>
 6    1  0.1885829E-005  0.3945912E+04  0.7818608E-02  0.8015548E-01
         -2   -1    0    0    0  501 -0.00000000000E+00  0.00000000000E+00  0.15729392390E+04  0.15729392390E+04  0.00000000000E+00 0.  1.
          2   -1    0    0  501    0  0.00000000000E+00 -0.00000000000E+00 -0.24747020352E+04  0.24747020352E+04  0.00000000000E+00 0. -1.
         23    2    1    2    0    0  0.93116106885E+03  0.30379764332E+03 -0.22065804234E+04  0.24161073382E+04  0.96039369994E+02 0.  0.
         13    1    3    3    0    0  0.65906396868E+03  0.21372170940E+03 -0.14491887939E+04  0.16062971221E+04  0.00000000000E+00 0.  1.
        -13    1    3    3    0    0  0.27209710017E+03  0.90075933921E+02 -0.75739162943E+03  0.80981021611E+03  0.00000000000E+00 0. -1.
         22    1    1    2    0    0 -0.93116106885E+03 -0.30379764332E+03  0.13048176272E+04  0.16315339361E+04  0.00000000000E+00 0.  1.
<mgrwt>
<rscale>  0 0.39459123E+04</rscale>
<asrwt>0</asrwt>
<pdfrwt beam="1">  1        2 0.38072339E+00 0.39459123E+04</pdfrwt>
<pdfrwt beam="2">  1       -2 0.24199065E+00 0.39459123E+04</pdfrwt>
<totfact> 0.20541606E-01</totfact>
</mgrwt>
</event>
<event>
 6    1  0.1885829E-005  0.3535072E+04  0.7818608E-02  0.8105528E-01
          2   -1    0    0  501    0  0.00000000000E+00  0.00000000000E+00  0.32519313708E+04  0.32519313708E+04  0.00000000000E+00 0. -1.
         -2   -1    0    0    0  501 -0.00000000000E+00 -0.00000000000E+00 -0.96071642742E+03  0.96071642742E+03  0.00000000000E+00 0.  1.
         23    2    1    2    0    0 -0.16824744172E+03  0.16866118122E+04  0.55398985854E+03  0.17855265400E+04  0.90739488132E+02 0.  0.
         13    1    3    3    0    0 -0.10509090341E+03  0.78486150142E+03  0.29720329981E+03  0.84580226756E+03  0.00000000000E+00 0.  1.
        -13    1    3    3    0    0 -0.63156538309E+02  0.90175031083E+03  0.25678655873E+03  0.93972427241E+03  0.00000000000E+00 0. -1.
         22    1    1    2    0    0  0.16824744172E+03 -0.16866118122E+04  0.17372250849E+04  0.24271212583E+04  0.00000000000E+00 0. -1.
<mgrwt>
<rscale>  0 0.35350722E+04</rscale>
<asrwt>0</asrwt>
<pdfrwt beam="1">  1        2 0.50029713E+00 0.35350722E+04</pdfrwt>
<pdfrwt beam="2">  1       -2 0.14780253E+00 0.35350722E+04</pdfrwt>
<totfact> 0.30568340E-01</totfact>
</mgrwt>
</event>
<event>
 6    1  0.1885829E-005  0.7867322E+03  0.7818608E-02  0.9579423E-01
          2   -1    0    0  501    0  0.00000000000E+00  0.00000000000E+00  0.15686137902E+04  0.15686137902E+04  0.00000000000E+00 0. -1.
         -2   -1    0    0    0  501 -0.00000000000E+00 -0.00000000000E+00 -0.98645630888E+02  0.98645630888E+02  0.00000000000E+00 0.  1.
         23    2    1    2    0    0  0.16204705553E+02  0.25501140932E+03  0.12551146153E+03  0.29873568232E+03  0.90534355641E+02 0.  0.
         13    1    3    3    0    0 -0.32216252932E+02  0.16641289835E+03  0.68810475320E+02  0.18293720563E+03  0.00000000000E+00 0.  1.
        -13    1    3    3    0    0  0.48420958485E+02  0.88598510967E+02  0.56700986210E+02  0.11579847669E+03  0.00000000000E+00 0. -1.
         22    1    1    2    0    0 -0.16204705553E+02 -0.25501140932E+03  0.13444566977E+04  0.13685237387E+04  0.00000000000E+00 0. -1.
<mgrwt>
<rscale>  0 0.78673222E+03</rscale>
<asrwt>0</asrwt>
<pdfrwt beam="1">  1        2 0.24132518E+00 0.78673222E+03</pdfrwt>
<pdfrwt beam="2">  1       -2 0.15176252E-01 0.78673222E+03</pdfrwt>
<totfact> 0.40353711E+02</totfact>
</mgrwt>
</event>
<event>
 6    1  0.1885829E-005  0.2347156E+04  0.7818608E-02  0.8459557E-01
         -2   -1    0    0    0  501 -0.00000000000E+00  0.00000000000E+00  0.71989663832E+03  0.71989663832E+03  0.00000000000E+00 0.  1.
          2   -1    0    0  501    0  0.00000000000E+00 -0.00000000000E+00 -0.19131705361E+04  0.19131705361E+04  0.00000000000E+00 0. -1.
         23    2    1    2    0    0 -0.33960168516E+03  0.97504412546E+03  0.24133851775E+02  0.10367833714E+04  0.91087678740E+02 0.  0.
         11    1    3    3    0    0 -0.21303875077E+03  0.60053277220E+03 -0.29274550168E+02  0.63787312148E+03  0.00000000000E+00 0. -1.
        -11    1    3    3    0    0 -0.12656293439E+03  0.37451135326E+03  0.53408401943E+02  0.39891024991E+03  0.00000000000E+00 0.  1.
         22    1    1    2    0    0  0.33960168516E+03 -0.97504412546E+03 -0.12174077496E+04  0.15962838031E+04  0.00000000000E+00 0. -1.
<mgrwt>
<rscale>  0 0.23471558E+04</rscale>
<asrwt>0</asrwt>
<pdfrwt beam="1">  1        2 0.29433393E+00 0.23471558E+04</pdfrwt>
<pdfrwt beam="2">  1       -2 0.11075333E+00 0.23471558E+04</pdfrwt>
<totfact> 0.43577735E+00</totfact>
</mgrwt>
</event>
<event>
 6    1  0.1885829E-005  0.1669806E+04  0.7818608E-02  0.8778775E-01
         -2   -1    0    0    0  501 -0.00000000000E+00  0.00000000000E+00  0.31073770995E+03  0.31073770995E+03  0.00000000000E+00 0.  1.
          2   -1    0    0  501    0  0.00000000000E+00 -0.00000000000E+00 -0.22432511023E+04  0.22432511023E+04  0.00000000000E+00 0. -1.
         23    2    1    2    0    0 -0.74252171493E+03 -0.17738273302E+03 -0.46900488120E+03  0.90333430772E+03  0.11508328200E+03 0.  0.
         13    1    3    3    0    0 -0.38959349112E+03 -0.15172257476E+03 -0.24725847024E+03  0.48573612088E+03  0.00000000000E+00 0. -1.
        -13    1    3    3    0    0 -0.35292822381E+03 -0.25660158262E+02 -0.22174641095E+03  0.41759818684E+03  0.00000000000E+00 0.  1.
         22    1    1    2    0    0  0.74252171493E+03  0.17738273302E+03 -0.14635085111E+04  0.16506545045E+04  0.00000000000E+00 0. -1.
<mgrwt>
<rscale>  0 0.16698056E+04</rscale>
<asrwt>0</asrwt>
<pdfrwt beam="1">  1        2 0.34511556E+00 0.16698056E+04</pdfrwt>
<pdfrwt beam="2">  1       -2 0.47805801E-01 0.16698056E+04</pdfrwt>
<totfact> 0.19318702E+01</totfact>
</mgrwt>
</event>
<event>
 6    1  0.1885829E-005  0.9995176E+03  0.7818608E-02  0.9309074E-01
          2   -1    0    0  501    0  0.00000000000E+00  0.00000000000E+00  0.30489289943E+04  0.30489289943E+04  0.00000000000E+00 0.  1.
         -2   -1    0    0    0  501 -0.00000000000E+00 -0.00000000000E+00 -0.81916907955E+02  0.81916907955E+02  0.00000000000E+00 0. -1.
         23    2    1    2    0    0 -0.36644839859E+03  0.32708131325E+03  0.17042152880E+04  0.17758837743E+04  0.90259723237E+02 0.  0.
         11    1    3    3    0    0 -0.36859582377E+03  0.30962846400E+03  0.16566112043E+04  0.17251357480E+04  0.00000000000E+00 0. -1.
        -11    1    3    3    0    0  0.21474251794E+01  0.17452849253E+02  0.47604083763E+02  0.50748026295E+02  0.00000000000E+00 0.  1.
         22    1    1    2    0    0  0.36644839859E+03 -0.32708131325E+03  0.12627967983E+04  0.13549621279E+04  0.00000000000E+00 0.  1.
<mgrwt>
<rscale>  0 0.99951756E+03</rscale>
<asrwt>0</asrwt>
<pdfrwt beam="1">  1        2 0.46906591E+00 0.99951756E+03</pdfrwt>
<pdfrwt beam="2">  1       -2 0.12602604E-01 0.99951756E+03</pdfrwt>
<totfact> 0.78141727E+01</totfact>
</mgrwt>
</event>
<event>
 6    1  0.1885829E-005  0.1414311E+04  0.7818608E-02  0.8943524E-01
          2   -1    0    0  501    0  0.00000000000E+00  0.00000000000E+00  0.10882455468E+04  0.10882455468E+04  0.00000000000E+00 0. -1.
         -2   -1    0    0    0  501 -0.00000000000E+00 -0.00000000000E+00 -0.45951841852E+03  0.45951841852E+03  0.00000000000E+00 0.  1.
         23    2    1    2    0    0  0.43338698738E+03 -0.51799523486E+03  0.97578698066E+02  0.68854222498E+03  0.91790245095E+02 0.  0.
         13    1    3    3    0    0  0.31576309962E+03 -0.39217469823E+03  0.11166306304E+03  0.51572858042E+03  0.00000000000E+00 0. -1.
        -13    1    3    3    0    0  0.11762388776E+03 -0.12582053662E+03 -0.14084364971E+02  0.17281364455E+03  0.00000000000E+00 0.  1.
         22    1    1    2    0    0 -0.43338698738E+03  0.51799523486E+03  0.53114843023E+03  0.85922174036E+03  0.00000000000E+00 0. -1.
<mgrwt>
<rscale>  0 0.14143110E+04</rscale>
<asrwt>0</asrwt>
<pdfrwt beam="1">  1        2 0.16742239E+00 0.14143110E+04</pdfrwt>
<pdfrwt beam="2">  1       -2 0.70695142E-01 0.14143110E+04</pdfrwt>
<totfact> 0.39192483E+01</totfact>
</mgrwt>
</event>
<event>
 6    1  0.1885829E-005  0.2159462E+04  0.7818608E-02  0.8535493E-01
          2   -1    0    0  501    0  0.00000000000E+00  0.00000000000E+00  0.81154274999E+03  0.81154274999E+03  0.00000000000E+00 0. -1.
         -2   -1    0    0    0  501 -0.00000000000E+00 -0.00000000000E+00 -0.14365470414E+04  0.14365470414E+04  0.00000000000E+00 0.  1.
         23    2    1    2    0    0  0.89634136714E+03 -0.31420696893E+03  0.21719691810E+03  0.97865812994E+03  0.91887802707E+02 0.  0.
         13    1    3    3    0    0  0.30617353932E+03 -0.14757387268E+03  0.54733840522E+02  0.34426164087E+03  0.00000000000E+00 0. -1.
        -13    1    3    3    0    0  0.59016782782E+03 -0.16663309625E+03  0.16246307758E+03  0.63439648906E+03  0.00000000000E+00 0.  1.
         22    1    1    2    0    0 -0.89634136714E+03  0.31420696893E+03 -0.84220120946E+03  0.12694316614E+04  0.00000000000E+00 0.  1.
<mgrwt>
<rscale>  0 0.21594623E+04</rscale>
<asrwt>0</asrwt>
<pdfrwt beam="1">  1        2 0.12485273E+00 0.21594623E+04</pdfrwt>
<pdfrwt beam="2">  1       -2 0.22100724E+00 0.21594623E+04</pdfrwt>
<totfact> 0.30171092E+00</totfact>
</mgrwt>
</event>
<event>
 6    1  0.1885829E-005  0.3228881E+04  0.7818608E-02  0.8181231E-01
         -2   -1    0    0    0  501 -0.00000000000E+00  0.00000000000E+00  0.70502850472E+03  0.70502850472E+03  0.00000000000E+00 0. -1.
          2   -1    0    0  501    0  0.00000000000E+00 -0.00000000000E+00 -0.36968976909E+04  0.36968976909E+04  0.00000000000E+00 0.  1.
         23    2    1    2    0    0  0.90164695210E+03 -0.71424735434E+03  0.46667097287E+02  0.11529541651E+04  0.63316501390E+02 0.  0.
         13    1    3    3    0    0  0.52386119658E+02 -0.48234178858E+02  0.17330596040E+02  0.73288410421E+02  0.00000000000E+00 0.  1.
        -13    1    3    3    0    0  0.84926083244E+03 -0.66601317548E+03  0.29336501247E+02  0.10796657546E+04  0.00000000000E+00 0. -1.
         22    1    1    2    0    0 -0.90164695210E+03  0.71424735434E+03 -0.30385362835E+04  0.32489720305E+04  0.00000000000E+00 0.  1.
<mgrwt>
<rscale>  0 0.32288811E+04</rscale>
<asrwt>0</asrwt>
<pdfrwt beam="1">  1        2 0.56875349E+00 0.32288811E+04</pdfrwt>
<pdfrwt beam="2">  1       -2 0.10846592E+00 0.32288811E+04</pdfrwt>
<totfact> 0.33455234E-01</totfact>
</mgrwt>
</event>
<event>
 6    1  0.1895578E-005  0.2299102E+04  0.7818608E-02  0.8478275E-01
         -2   -1    0    0    0  501 -0.00000000000E+00  0.00000000000E+00  0.54152479063E+03  0.54152479063E+03  0.00000000000E+00 0.  1.
          2   -1    0    0  501    0  0.00000000000E+00 -0.00000000000E+00 -0.24402709320E+04  0.24402709320E+04  0.00000000000E+00 0. -1.
         23    2    1    2    0    0 -0.74189457597E+03  0.11325652267E+03 -0.20766016519E+04  0.22105193879E+04  0.10434050892E+03 0.  0.
         13    1    3    3    0    0 -0.52956299095E+03  0.71001628651E+02 -0.13346173200E+04  0.14375957650E+04  0.00000000000E+00 0. -1.
        -13    1    3    3    0    0 -0.21233158502E+03  0.42254894019E+02 -0.74198433195E+03  0.77292362296E+03  0.00000000000E+00 0.  1.
         22    1    1    2    0    0  0.74189457597E+03 -0.11325652267E+03  0.17785551059E+03  0.77127633467E+03  0.00000000000E+00 0.  1.
<mgrwt>
<rscale>  0 0.22991017E+04</rscale>
<asrwt>0</asrwt>
<pdfrwt beam="1">  1        2 0.37542629E+00 0.22991017E+04</pdfrwt>
<pdfrwt beam="2">  1       -2 0.83311508E-01 0.22991017E+04</pdfrwt>
<totfact> 0.43096602E+00</totfact>
</mgrwt>
</event>
<event>
 6    1  0.1975764E-005  0.2908198E+04  0.7818608E-02  0.8270443E-01
          1   -1    0    0  501    0  0.00000000000E+00  0.00000000000E+00  0.19338288847E+04  0.19338288847E+04  0.00000000000E+00 0. -1.
         -1   -1    0    0    0  501 -0.00000000000E+00 -0.00000000000E+00 -0.10933767252E+04  0.10933767252E+04  0.00000000000E+00 0.  1.
         23    2    1    2    0    0  0.42534264925E+03 -0.63029917057E+03  0.17090506906E+04  0.18727980467E+04  0.91240600467E+02 0.  0.
         13    1    3    3    0    0  0.32927271143E+03 -0.41464018215E+03  0.12050424723E+04  0.13162349179E+04  0.00000000000E+00 0. -1.
        -13    1    3    3    0    0  0.96069937812E+02 -0.21565898843E+03  0.50400821826E+03  0.55656312878E+03  0.00000000000E+00 0.  1.
         22    1    1    2    0    0 -0.42534264925E+03  0.63029917057E+03 -0.86859853104E+03  0.11544075631E+04  0.00000000000E+00 0.  1.
<mgrwt>
<rscale>  0 0.29081977E+04</rscale>
<asrwt>0</asrwt>
<pdfrwt beam="1">  1        1 0.29751214E+00 0.29081977E+04</pdfrwt>
<pdfrwt beam="2">  1       -1 0.16821180E+00 0.29081977E+04</pdfrwt>
<totfact> 0.71899690E-01</totfact>
</mgrwt>
</event>
<event>
 6    1  0.1885829E-005  0.4525101E+03  0.7818608E-02  0.1026976E+00
          4   -1    0    0  501    0  0.00000000000E+00  0.00000000000E+00  0.13851845229E+03  0.13851845229E+03  0.00000000000E+00 0. -1.
         -4   -1    0    0    0  501 -0.00000000000E+00 -0.00000000000E+00 -0.36956333298E+03  0.36956333298E+03  0.00000000000E+00 0.  1.
         23    2    1    2    0    0 -0.69967779235E+02  0.15749135209E+03  0.28421251674E+02  0.19659873604E+03  0.90245661129E+02 0.  0.
         13    1    3    3    0    0 -0.73823907372E+02  0.11502102693E+03  0.53904244572E+02  0.14691995617E+03  0.00000000000E+00 0.  1.
        -13    1    3    3    0    0  0.38561281379E+01  0.42470325157E+02 -0.25482992898E+02  0.49678779878E+02  0.00000000000E+00 0. -1.
         22    1    1    2    0    0  0.69967779235E+02 -0.15749135209E+03 -0.25946613236E+03  0.31148304923E+03  0.00000000000E+00 0. -1.
<mgrwt>
<rscale>  0 0.45251007E+03</rscale>
<asrwt>0</asrwt>
<pdfrwt beam="1">  1        4 0.21310531E-01 0.45251007E+03</pdfrwt>
<pdfrwt beam="2">  1       -4 0.56855897E-01 0.45251007E+03</pdfrwt>
<totfact> 0.11662988E+02</totfact>
</mgrwt>
</event>
<event>
 6    1  0.1885829E-005  0.1314418E+04  0.7818608E-02  0.9018209E-01
         -1   -1    0    0    0  501 -0.00000000000E+00  0.00000000000E+00  0.49351406212E+03  0.49351406212E+03  0.00000000000E+00 0.  1.
          1   -1    0    0  501    0  0.00000000000E+00 -0.00000000000E+00 -0.87520081619E+03  0.87520081619E+03  0.00000000000E+00 0. -1.
         23    2    1    2    0    0  0.39152557268E+03  0.51961012493E+03 -0.12082425498E+03  0.66776109992E+03  0.89551270142E+02 0.  0.
         13    1    3    3    0    0  0.33673404594E+03  0.42534547618E+03 -0.13148708922E+03  0.55820914220E+03  0.00000000000E+00 0. -1.
        -13    1    3    3    0    0  0.54791526739E+02  0.94264648755E+02  0.10662834245E+02  0.10955195773E+03  0.00000000000E+00 0.  1.
         22    1    1    2    0    0 -0.39152557268E+03 -0.51961012493E+03 -0.26086249910E+03  0.70095377839E+03  0.00000000000E+00 0. -1.
<mgrwt>
<rscale>  0 0.13144184E+04</rscale>
<asrwt>0</asrwt>
<pdfrwt beam="1">  1        1 0.13464628E+00 0.13144184E+04</pdfrwt>
<pdfrwt beam="2">  1       -1 0.75925241E-01 0.13144184E+04</pdfrwt>
<totfact> 0.32634686E+01</totfact>
</mgrwt>
</event>
<event>
 6    1  0.1885829E-005  0.2627069E+04  0.7818608E-02  0.8359064E-01
         -2   -1    0    0    0  501 -0.00000000000E+00  0.00000000000E+00  0.12467970861E+04  0.12467970861E+04  0.00000000000E+00 0.  1.
          2   -1    0    0  501    0  0.00000000000E+00 -0.00000000000E+00 -0.13838445100E+04  0.13838445100E+04  0.00000000000E+00 0. -1.
         23    2    1    2    0    0 -0.11300117357E+04  0.65810660983E+03  0.24235045644E+02  0.13130518011E+04  0.11613295069E+03 0.  0.
         11    1    3    3    0    0 -0.45555442629E+03  0.32057735174E+03  0.42154915930E+02  0.55863826462E+03  0.00000000000E+00 0. -1.
        -11    1    3    3    0    0 -0.67445730946E+03  0.33752925809E+03 -0.17919870286E+02  0.75441353653E+03  0.00000000000E+00 0.  1.
         22    1    1    2    0    0  0.11300117357E+04 -0.65810660983E+03 -0.16128246958E+03  0.13175897950E+04  0.00000000000E+00 0. -1.
<mgrwt>
<rscale>  0 0.26270693E+04</rscale>
<asrwt>0</asrwt>
<pdfrwt beam="1">  1        2 0.21289915E+00 0.26270693E+04</pdfrwt>
<pdfrwt beam="2">  1       -2 0.19181494E+00 0.26270693E+04</pdfrwt>
<totfact> 0.19666511E+00</totfact>
</mgrwt>
</event>
<event>
 6    1  0.1885829E-005  0.3998013E+04  0.7818608E-02  0.8004948E-01
          2   -1    0    0  501    0  0.00000000000E+00  0.00000000000E+00  0.28101301715E+04  0.28101301715E+04  0.00000000000E+00 0. -1.
         -2   -1    0    0    0  501 -0.00000000000E+00 -0.00000000000E+00 -0.14220077682E+04  0.14220077682E+04  0.00000000000E+00 0.  1.
         23    2    1    2    0    0  0.17821967669E+04  0.77866682966E+02 -0.25816968153E+03  0.18046770925E+04  0.88990376881E+02 0.  0.
         11    1    3    3    0    0  0.12977153161E+04  0.50370864465E+02 -0.22731277837E+03  0.13184359541E+04  0.00000000000E+00 0.  1.
        -11    1    3    3    0    0  0.48448145081E+03  0.27495818501E+02 -0.30856903154E+02  0.48624113841E+03  0.00000000000E+00 0. -1.
         22    1    1    2    0    0 -0.17821967669E+04 -0.77866682966E+02  0.16462920848E+04  0.24274608472E+04  0.00000000000E+00 0. -1.
<mgrwt>
<rscale>  0 0.39980130E+04</rscale>
<asrwt>0</asrwt>
<pdfrwt beam="1">  1        2 0.43232772E+00 0.39980130E+04</pdfrwt>
<pdfrwt beam="2">  1       -2 0.21877043E+00 0.39980130E+04</pdfrwt>
<totfact> 0.18096426E-01</totfact>
</mgrwt>
</event>
<event>
 6    1  0.1885829E-005  0.2111483E+04  0.7818608E-02  0.8556202E-01
         -2   -1    0    0    0  501 -0.00000000000E+00  0.00000000000E+00  0.12881913151E+04  0.12881913151E+04  0.00000000000E+00 0.  1.
          2   -1    0    0  501    0  0.00000000000E+00 -0.00000000000E+00 -0.86523610891E+03  0.86523610891E+03  0.00000000000E+00 0. -1.
         23    2    1    2    0    0 -0.95935315492E+03  0.81704046723E+02  0.64878367719E+03  0.11644721544E+04  0.89672244407E+02 0.  0.
         13    1    3    3    0    0 -0.28953361158E+03 -0.16536608723E+02  0.19354288624E+03  0.34865745435E+03  0.00000000000E+00 0.  1.
        -13    1    3    3    0    0 -0.66981954334E+03  0.98240655446E+02  0.45524079095E+03  0.81581470002E+03  0.00000000000E+00 0. -1.
         22    1    1    2    0    0  0.95935315492E+03 -0.81704046723E+02 -0.22582847096E+03  0.98895526967E+03  0.00000000000E+00 0. -1.
<mgrwt>
<rscale>  0 0.21114826E+04</rscale>
<asrwt>0</asrwt>
<pdfrwt beam="1">  1        2 0.13311325E+00 0.21114826E+04</pdfrwt>
<pdfrwt beam="2">  1       -2 0.19818328E+00 0.21114826E+04</pdfrwt>
<totfact> 0.38971192E+00</totfact>
</mgrwt>
</event>
<event>
 6    1  0.1885829E-005  0.7576037E+03  0.7818608E-02  0.9623496E-01
          2   -1    0    0  501    0  0.00000000000E+00  0.00000000000E+00  0.13611592583E+04  0.13611592583E+04  0.00000000000E+00 0.  1.
         -2   -1    0    0    0  501 -0.00000000000E+00 -0.00000000000E+00 -0.10541810105E+03  0.10541810105E+03  0.00000000000E+00 0. -1.
         23    2    1    2    0    0 -0.36762377126E+03 -0.50490254856E+02  0.71528258161E+03  0.81099214367E+03  0.91556444351E+02 0.  0.
         11    1    3    3    0    0 -0.52802848749E+02  0.24584643508E+02  0.97769021831E+02  0.11380389783E+03  0.00000000000E+00 0. -1.
        -11    1    3    3    0    0 -0.31482092251E+03 -0.75074898364E+02  0.61751355978E+03  0.69718824583E+03  0.00000000000E+00 0.  1.
         22    1    1    2    0    0  0.36762377126E+03  0.50490254856E+02  0.54045857560E+03  0.65558521564E+03  0.00000000000E+00 0.  1.
<mgrwt>
<rscale>  0 0.75760365E+03</rscale>
<asrwt>0</asrwt>
<pdfrwt beam="1">  1        2 0.20940910E+00 0.75760365E+03</pdfrwt>
<pdfrwt beam="2">  1       -2 0.16218170E-01 0.75760365E+03</pdfrwt>
<totfact> 0.47188253E+02</totfact>
</mgrwt>
</event>
<event>
 6    1  0.1885829E-005  0.1377500E+04  0.7818608E-02  0.8970268E-01
         -2   -1    0    0    0  501 -0.00000000000E+00  0.00000000000E+00  0.39580004973E+03  0.39580004973E+03  0.00000000000E+00 0.  1.
          2   -1    0    0  501    0  0.00000000000E+00 -0.00000000000E+00 -0.11985265433E+04  0.11985265433E+04  0.00000000000E+00 0. -1.
         23    2    1    2    0    0 -0.44101208653E+03  0.38110814250E+03 -0.82064993805E+03  0.10111831059E+04  0.96384003311E+02 0.  0.
         11    1    3    3    0    0 -0.24099630324E+03  0.19302801308E+03 -0.35384020162E+03  0.46961890964E+03  0.00000000000E+00 0.  1.
        -11    1    3    3    0    0 -0.20001578330E+03  0.18808012942E+03 -0.46680973643E+03  0.54156419627E+03  0.00000000000E+00 0. -1.
         22    1    1    2    0    0  0.44101208653E+03 -0.38110814250E+03  0.17923444453E+02  0.58314348716E+03  0.00000000000E+00 0.  1.
<mgrwt>
<rscale>  0 0.13775004E+04</rscale>
<asrwt>0</asrwt>
<pdfrwt beam="1">  1        2 0.18438870E+00 0.13775004E+04</pdfrwt>
<pdfrwt beam="2">  1       -2 0.60892315E-01 0.13775004E+04</pdfrwt>
<totfact> 0.46443703E+01</totfact>
</mgrwt>
</event>
<event>
 6    1  0.1885829E-005  0.2186570E+04  0.7818608E-02  0.8524039E-01
          4   -1    0    0  501    0  0.00000000000E+00  0.00000000000E+00  0.86276841399E+03  0.86276841399E+03  0.00000000000E+00 0. -1.
         -4   -1    0    0    0  501 -0.00000000000E+00 -0.00000000000E+00 -0.13853914410E+04  0.13853914410E+04  0.00000000000E+00 0.  1.
         23    2    1    2    0    0 -0.52397556002E+01  0.86449803440E+03 -0.94679966388E+03  0.12851904236E+04  0.88884840199E+02 0.  0.
         11    1    3    3    0    0 -0.45758763066E+01  0.29246925792E+03 -0.38402380054E+03  0.48273541910E+03  0.00000000000E+00 0. -1.
        -11    1    3    3    0    0 -0.66387929362E+00  0.57202877648E+03 -0.56277586334E+03  0.80245500448E+03  0.00000000000E+00 0.  1.
         22    1    1    2    0    0  0.52397556002E+01 -0.86449803440E+03  0.42417663688E+03  0.96296943140E+03  0.00000000000E+00 0. -1.
<mgrwt>
<rscale>  0 0.21865699E+04</rscale>
<asrwt>0</asrwt>
<pdfrwt beam="1">  1        4 0.13273360E+00 0.21865699E+04</pdfrwt>
<pdfrwt beam="2">  1       -4 0.21313714E+00 0.21865699E+04</pdfrwt>
<totfact> 0.81010406E-02</totfact>
</mgrwt>
</event>
<event>
 6    1  0.1885829E-005  0.3004265E+04  0.7818608E-02  0.8242514E-01
          1   -1    0    0  501    0  0.00000000000E+00  0.00000000000E+00  0.97504275587E+03  0.97504275587E+03  0.00000000000E+00 0. -1.
         -1   -1    0    0    0  501 -0.00000000000E+00 -0.00000000000E+00 -0.23141575463E+04  0.23141575463E+04  0.00000000000E+00 0.  1.
         23    2    1    2    0    0  0.53980710471E+03  0.98893439649E+03 -0.17555885268E+04  0.20880203306E+04  0.91405004108E+02 0.  0.
         11    1    3    3    0    0  0.44270080653E+03  0.72927169958E+03 -0.13196447491E+04  0.15713953925E+04  0.00000000000E+00 0.  1.
        -11    1    3    3    0    0  0.97106298186E+02  0.25966269691E+03 -0.43594377774E+03  0.51662493810E+03  0.00000000000E+00 0. -1.
         22    1    1    2    0    0 -0.53980710471E+03 -0.98893439649E+03  0.41647373641E+03  0.12011799715E+04  0.00000000000E+00 0. -1.
<mgrwt>
<rscale>  0 0.30042653E+04</rscale>
<asrwt>0</asrwt>
<pdfrwt beam="1">  1        1 0.15000658E+00 0.30042653E+04</pdfrwt>
<pdfrwt beam="2">  1       -1 0.35602424E+00 0.30042653E+04</pdfrwt>
<totfact> 0.19078194E-01</totfact>
</mgrwt>
</event>
<event>
 6    1  0.1885829E-005  0.2166230E+04  0.7818608E-02  0.8532617E-01
         -2   -1    0    0    0  501 -0.00000000000E+00  0.00000000000E+00  0.27012492904E+03  0.27012492904E+03  0.00000000000E+00 0.  1.
          2   -1    0    0  501    0  0.00000000000E+00 -0.00000000000E+00 -0.43429471794E+04  0.43429471794E+04  0.00000000000E+00 0. -1.
         23    2    1    2    0    0  0.10351793989E+04 -0.25603418199E+03 -0.24199841618E+04  0.26460887234E+04  0.91171805782E+02 0.  0.
         13    1    3    3    0    0  0.99780201031E+03 -0.26320554929E+03 -0.23223052093E+04  0.25412570705E+04  0.00000000000E+00 0.  1.
        -13    1    3    3    0    0  0.37377388581E+02  0.71713672982E+01 -0.97678952493E+02  0.10483165288E+03  0.00000000000E+00 0. -1.
         22    1    1    2    0    0 -0.10351793989E+04  0.25603418199E+03 -0.16528380885E+04  0.19669833850E+04  0.00000000000E+00 0.  1.
<mgrwt>
<rscale>  0 0.21662302E+04</rscale>
<asrwt>0</asrwt>
<pdfrwt beam="1">  1        2 0.66814567E+00 0.21662302E+04</pdfrwt>
<pdfrwt beam="2">  1       -2 0.41557684E-01 0.21662302E+04</pdfrwt>
<totfact> 0.88125574E-01</totfact>
</mgrwt>
</event>
<event>
 6    1  0.1885829E-005  0.1771314E+04  0.7818608E-02  0.8721705E-01
         -2   -1    0    0    0  501 -0.00000000000E+00  0.00000000000E+00  0.45625720256E+03  0.45625720256E+03  0.00000000000E+00 0.  1.
          2   -1    0    0  501    0  0.00000000000E+00 -0.00000000000E+00 -0.17191796604E+04  0.17191796604E+04  0.00000000000E+00 0. -1.
         23    2    1    2    0    0  0.67310003731E+03  0.32021774749E+03 -0.12154682696E+04  0.14285399718E+04  0.88092397610E+02 0.  0.
         13    1    3    3    0    0  0.26184749160E+03  0.15819272332E+03 -0.43913927120E+03  0.53519374630E+03  0.00000000000E+00 0. -1.
        -13    1    3    3    0    0  0.41125254571E+03  0.16202502416E+03 -0.77632899840E+03  0.89334622547E+03  0.00000000000E+00 0.  1.
         22    1    1    2    0    0 -0.67310003731E+03 -0.32021774749E+03 -0.47454188216E+02  0.74689689116E+03  0.00000000000E+00 0.  1.
<mgrwt>
<rscale>  0 0.17713138E+04</rscale>
<asrwt>0</asrwt>
<pdfrwt beam="1">  1        2 0.26448918E+00 0.17713138E+04</pdfrwt>
<pdfrwt beam="2">  1       -2 0.70193417E-01 0.17713138E+04</pdfrwt>
<totfact> 0.16728079E+01</totfact>
</mgrwt>
</event>
<event>
 6    1  0.1885829E-005  0.5851666E+04  0.7818608E-02  0.7709070E-01
         -1   -1    0    0    0  501 -0.00000000000E+00  0.00000000000E+00  0.21295094384E+04  0.21295094384E+04  0.00000000000E+00 0.  1.
          1   -1    0    0  501    0  0.00000000000E+00 -0.00000000000E+00 -0.40199388465E+04  0.40199388465E+04  0.00000000000E+00 0. -1.
         23    2    1    2    0    0  0.27330383133E+04  0.65249362628E+03 -0.17997565401E+04  0.33381375722E+04  0.93768295375E+02 0.  0.
         11    1    3    3    0    0  0.23559070623E+04  0.53537346773E+03 -0.15239011790E+04  0.28564309268E+04  0.00000000000E+00 0.  1.
        -11    1    3    3    0    0  0.37713125095E+03  0.11712015855E+03 -0.27585536104E+03  0.48170664538E+03  0.00000000000E+00 0. -1.
         22    1    1    2    0    0 -0.27330383133E+04 -0.65249362628E+03 -0.90672868060E+02  0.28113107127E+04  0.00000000000E+00 0.  1.
<mgrwt>
<rscale>  0 0.58516656E+04</rscale>
<asrwt>0</asrwt>
<pdfrwt beam="1">  1        1 0.61845213E+00 0.58516656E+04</pdfrwt>
<pdfrwt beam="2">  1       -1 0.32761684E+00 0.58516656E+04</pdfrwt>
<totfact> 0.13531977E-03</totfact>
</mgrwt>
</event>
<event>
 6    1  0.1885829E-005  0.5644389E+04  0.7818608E-02  0.7736128E-01
          2   -1    0    0  501    0  0.00000000000E+00  0.00000000000E+00  0.44003322977E+04  0.44003322977E+04  0.00000000000E+00 0. -1.
         -2   -1    0    0    0  501 -0.00000000000E+00 -0.00000000000E+00 -0.18100409458E+04  0.18100409458E+04  0.00000000000E+00 0.  1.
         23    2    1    2    0    0 -0.20003860759E+04  0.18385586868E+04  0.45841645354E+03  0.27568629887E+04  0.91133945196E+02 0.  0.
         11    1    3    3    0    0 -0.13423148206E+04  0.12134030572E+04  0.26433689831E+03  0.18286689292E+04  0.00000000000E+00 0. -1.
        -11    1    3    3    0    0 -0.65807125531E+03  0.62515562966E+03  0.19407955523E+03  0.92819405951E+03  0.00000000000E+00 0.  1.
         22    1    1    2    0    0  0.20003860759E+04 -0.18385586868E+04  0.21318748983E+04  0.34535102548E+04  0.00000000000E+00 0.  1.
<mgrwt>
<rscale>  0 0.56443889E+04</rscale>
<asrwt>0</asrwt>
<pdfrwt beam="1">  1        2 0.67697419E+00 0.56443889E+04</pdfrwt>
<pdfrwt beam="2">  1       -2 0.27846784E+00 0.56443889E+04</pdfrwt>
<totfact> 0.45217714E-03</totfact>
</mgrwt>
</event>
<event>
 6    1  0.1885829E-005  0.4614791E+04  0.7818608E-02  0.7890843E-01
         -2   -1    0    0    0  501 -0.00000000000E+00  0.00000000000E+00  0.16961652726E+04  0.16961652726E+04  0.00000000000E+00 0.  1.
          2   -1    0    0  501    0  0.00000000000E+00 -0.00000000000E+00 -0.31388885628E+04  0.31388885628E+04  0.00000000000E+00 0. -1.
         23    2    1    2    0    0  0.18280785882E+04 -0.11879818202E+04 -0.15103840008E+04  0.26538270931E+04  0.91467373427E+02 0.  0.
         13    1    3    3    0    0  0.13021608054E+03 -0.11361525058E+03 -0.11469413798E+03  0.20741118119E+03  0.00000000000E+00 0.  1.
        -13    1    3    3    0    0  0.16978625076E+04 -0.10743665696E+04 -0.13956898628E+04  0.24464159119E+04  0.00000000000E+00 0. -1.
         22    1    1    2    0    0 -0.18280785882E+04  0.11879818202E+04  0.67660710700E+02  0.21812267423E+04  0.00000000000E+00 0.  1.
<mgrwt>
<rscale>  0 0.46147909E+04</rscale>
<asrwt>0</asrwt>
<pdfrwt beam="1">  1        2 0.48290593E+00 0.46147909E+04</pdfrwt>
<pdfrwt beam="2">  1       -2 0.26094850E+00 0.46147909E+04</pdfrwt>
<totfact> 0.58669579E-02</totfact>
</mgrwt>
</event>
<event>
 6    1  0.1885829E-005  0.3111645E+03  0.7818608E-02  0.1079789E+00
          2   -1    0    0  501    0  0.00000000000E+00  0.00000000000E+00  0.10283833348E+03  0.10283833348E+03  0.00000000000E+00 0. -1.
         -2   -1    0    0    0  501 -0.00000000000E+00 -0.00000000000E+00 -0.23537753193E+03  0.23537753193E+03  0.00000000000E+00 0.  1.
         23    2    1    2    0    0  0.46305239020E+02 -0.45301192027E+02 -0.20947912829E+03  0.23763691153E+03  0.91615628416E+02 0.  0.
         11    1    3    3    0    0 -0.23851464717E+02 -0.25928808963E+02 -0.40678583103E+02  0.53813963119E+02  0.00000000000E+00 0.  1.
        -11    1    3    3    0    0  0.70156703737E+02 -0.19372383065E+02 -0.16880054519E+03  0.18382294841E+03  0.00000000000E+00 0. -1.
         22    1    1    2    0    0 -0.46305239020E+02  0.45301192027E+02  0.76939929843E+02  0.10057895388E+03  0.00000000000E+00 0. -1.
<mgrwt>
<rscale>  0 0.31116448E+03</rscale>
<asrwt>0</asrwt>
<pdfrwt beam="1">  1        2 0.15821282E-01 0.31116448E+03</pdfrwt>
<pdfrwt beam="2">  1       -2 0.36211928E-01 0.31116448E+03</pdfrwt>
<totfact> 0.26367065E+03</totfact>
</mgrwt>
</event>
<event>
 6    1  0.1885829E-005  0.4412586E+04  0.7818608E-02  0.7926122E-01
         -2   -1    0    0    0  501 -0.00000000000E+00  0.00000000000E+00  0.16925392125E+04  0.16925392125E+04  0.00000000000E+00 0.  1.
          2   -1    0    0  501    0  0.00000000000E+00 -0.00000000000E+00 -0.28759920595E+04  0.28759920595E+04  0.00000000000E+00 0. -1.
         23    2    1    2    0    0 -0.20966928654E+04 -0.59935896484E+03 -0.93249066151E+03  0.23734608496E+04  0.91790142679E+02 0.  0.
         11    1    3    3    0    0 -0.90024340460E+03 -0.29279535864E+03 -0.43741410842E+03  0.10428319193E+04  0.00000000000E+00 0.  1.
        -11    1    3    3    0    0 -0.11964494608E+04 -0.30656360620E+03 -0.49507655309E+03  0.13306289304E+04  0.00000000000E+00 0. -1.
         22    1    1    2    0    0  0.20966928654E+04  0.59935896484E+03 -0.25096218550E+03  0.21950704224E+04  0.00000000000E+00 0. -1.
<mgrwt>
<rscale>  0 0.44125862E+04</rscale>
<asrwt>0</asrwt>
<pdfrwt beam="1">  1        2 0.44246031E+00 0.44125862E+04</pdfrwt>
<pdfrwt beam="2">  1       -2 0.26039065E+00 0.44125862E+04</pdfrwt>
<totfact> 0.87975018E-02</totfact>
</mgrwt>
</event>
<event>
 6    1  0.1885829E-005  0.1259144E+04  0.7818608E-02  0.9062607E-01
          2   -1    0    0  501    0  0.00000000000E+00  0.00000000000E+00  0.17873272969E+04  0.17873272969E+04  0.00000000000E+00 0. -1.
         -2   -1    0    0    0  501 -0.00000000000E+00 -0.00000000000E+00 -0.22176191712E+03  0.22176191712E+03  0.00000000000E+00 0.  1.
         23    2    1    2    0    0 -0.14230345586E+03 -0.59172810709E+03  0.54819155848E+03  0.82357585748E+03  0.85853258370E+02 0.  0.
         11    1    3    3    0    0 -0.72312794067E+02 -0.43405420589E+03  0.36253995510E+03  0.57014683449E+03  0.00000000000E+00 0. -1.
        -11    1    3    3    0    0 -0.69990661793E+02 -0.15767390120E+03  0.18565160338E+03  0.25342902299E+03  0.00000000000E+00 0.  1.
         22    1    1    2    0    0  0.14230345586E+03  0.59172810709E+03  0.10173738213E+04  0.11855133565E+04  0.00000000000E+00 0. -1.
<mgrwt>
<rscale>  0 0.12591444E+04</rscale>
<asrwt>0</asrwt>
<pdfrwt beam="1">  1        2 0.27497342E+00 0.12591444E+04</pdfrwt>
<pdfrwt beam="2">  1       -2 0.34117219E-01 0.12591444E+04</pdfrwt>
<totfact> 0.69344591E+01</totfact>
</mgrwt>
</event>
<event>
 6    1  0.1885829E-005  0.1615115E+04  0.7818608E-02  0.8811316E-01
          3   -1    0    0  501    0  0.00000000000E+00  0.00000000000E+00  0.44079351983E+03  0.44079351983E+03  0.00000000000E+00 0. -1.
         -3   -1    0    0    0  501 -0.00000000000E+00 -0.00000000000E+00 -0.14794885081E+04  0.14794885081E+04  0.00000000000E+00 0.  1.
         23    2    1    2    0    0  0.17193642430E+03  0.31197423745E+03 -0.13791956706E+04  0.14275034027E+04  0.93248099322E+02 0.  0.
         13    1    3    3    0    0  0.92133544176E+02  0.15024446320E+03 -0.86009869643E+03  0.87797024795E+03  0.00000000000E+00 0. -1.
        -13    1    3    3    0    0  0.79802880123E+02  0.16172977425E+03 -0.51909697415E+03  0.54953315471E+03  0.00000000000E+00 0.  1.
         22    1    1    2    0    0 -0.17193642430E+03 -0.31197423745E+03  0.34050068233E+03  0.49277862524E+03  0.00000000000E+00 0. -1.
<mgrwt>
<rscale>  0 0.16151148E+04</rscale>
<asrwt>0</asrwt>
<pdfrwt beam="1">  1        3 0.67814388E-01 0.16151148E+04</pdfrwt>
<pdfrwt beam="2">  1       -3 0.22761361E+00 0.16151148E+04</pdfrwt>
<totfact> 0.51965172E-01</totfact>
</mgrwt>
</event>
<event>
 6    1  0.1885829E-005  0.2592742E+04  0.7818608E-02  0.8370671E-01
         -2   -1    0    0    0  501 -0.00000000000E+00  0.00000000000E+00  0.12024718060E+04  0.12024718060E+04  0.00000000000E+00 0.  1.
          2   -1    0    0  501    0  0.00000000000E+00 -0.00000000000E+00 -0.13976022367E+04  0.13976022367E+04  0.00000000000E+00 0. -1.
         23    2    1    2    0    0  0.17130298675E+03 -0.68185426786E+03  0.99263247100E+03  0.12198383141E+04  0.91740580554E+02 0.  0.
         11    1    3    3    0    0  0.10571698473E+03 -0.46529634435E+03  0.59914644448E+03  0.76593291537E+03  0.00000000000E+00 0. -1.
        -11    1    3    3    0    0  0.65586002017E+02 -0.21655792352E+03  0.39348602652E+03  0.45390539870E+03  0.00000000000E+00 0.  1.
         22    1    1    2    0    0 -0.17130298675E+03  0.68185426786E+03 -0.11877629017E+04  0.13802357286E+04  0.00000000000E+00 0. -1.
<mgrwt>
<rscale>  0 0.25927416E+04</rscale>
<asrwt>0</asrwt>
<pdfrwt beam="1">  1        2 0.21501573E+00 0.25927416E+04</pdfrwt>
<pdfrwt beam="2">  1       -2 0.18499566E+00 0.25927416E+04</pdfrwt>
<totfact> 0.21531497E+00</totfact>
</mgrwt>
</event>
<event>
 6    1  0.1885829E-005  0.1677402E+04  0.7818608E-02  0.8774359E-01
          2   -1    0    0  501    0  0.00000000000E+00  0.00000000000E+00  0.23242745106E+04  0.23242745106E+04  0.00000000000E+00 0. -1.
         -2   -1    0    0    0  501 -0.00000000000E+00 -0.00000000000E+00 -0.30264049887E+03  0.30264049887E+03  0.00000000000E+00 0.  1.
         23    2    1    2    0    0 -0.15962049578E+03 -0.81306800095E+03  0.11904792184E+04  0.14532981353E+04  0.90974852616E+02 0.  0.
         11    1    3    3    0    0 -0.83984355892E+02 -0.51940050517E+03  0.82355457719E+03  0.97727805584E+03  0.00000000000E+00 0.  1.
        -11    1    3    3    0    0 -0.75636139892E+02 -0.29366749578E+03  0.36692464120E+03  0.47602007946E+03  0.00000000000E+00 0. -1.
         22    1    1    2    0    0  0.15962049578E+03  0.81306800095E+03  0.83115479337E+03  0.11736168742E+04  0.00000000000E+00 0. -1.
<mgrwt>
<rscale>  0 0.16774023E+04</rscale>
<asrwt>0</asrwt>
<pdfrwt beam="1">  1        2 0.35758068E+00 0.16774023E+04</pdfrwt>
<pdfrwt beam="2">  1       -2 0.46560078E-01 0.16774023E+04</pdfrwt>
<totfact> 0.18326116E+01</totfact>
</mgrwt>
</event>
<event>
 6    1  0.1885829E-005  0.1474063E+04  0.7818608E-02  0.8901886E-01
         -2   -1    0    0    0  501 -0.00000000000E+00  0.00000000000E+00  0.11072572136E+04  0.11072572136E+04  0.00000000000E+00 0.  1.
          2   -1    0    0  501    0  0.00000000000E+00 -0.00000000000E+00 -0.49059534111E+03  0.49059534111E+03  0.00000000000E+00 0. -1.
         23    2    1    2    0    0 -0.17808933457E+03 -0.99209644826E+02  0.10741234449E+04  0.10970237867E+04  0.90341844295E+02 0.  0.
         13    1    3    3    0    0 -0.21383858717E+02 -0.55145723358E+02  0.24153619157E+03  0.24867258003E+03  0.00000000000E+00 0.  1.
        -13    1    3    3    0    0 -0.15670547585E+03 -0.44063921468E+02  0.83258725338E+03  0.84835120665E+03  0.00000000000E+00 0. -1.
         22    1    1    2    0    0  0.17808933457E+03  0.99209644826E+02 -0.45746157240E+03  0.50082876808E+03  0.00000000000E+00 0. -1.
<mgrwt>
<rscale>  0 0.14740627E+04</rscale>
<asrwt>0</asrwt>
<pdfrwt beam="1">  1        2 0.75476207E-01 0.14740627E+04</pdfrwt>
<pdfrwt beam="2">  1       -2 0.17034726E+00 0.14740627E+04</pdfrwt>
<totfact> 0.12901506E+01</totfact>
</mgrwt>
</event>
<event>
 6    1  0.1885829E-005  0.9882078E+03  0.7818608E-02  0.9321574E-01
          2   -1    0    0  501    0  0.00000000000E+00  0.00000000000E+00  0.15671855725E+04  0.15671855725E+04  0.00000000000E+00 0. -1.
         -2   -1    0    0    0  501 -0.00000000000E+00 -0.00000000000E+00 -0.15578157791E+03  0.15578157791E+03  0.00000000000E+00 0.  1.
         23    2    1    2    0    0  0.14282616102E+03 -0.46799661407E+03  0.68565392222E+03  0.84767673541E+03  0.94944213353E+02 0.  0.
         13    1    3    3    0    0  0.11892552844E+03 -0.40809164944E+03  0.53146452034E+03  0.68054141097E+03  0.00000000000E+00 0.  1.
        -13    1    3    3    0    0  0.23900632578E+02 -0.59904964622E+02  0.15418940188E+03  0.16713532445E+03  0.00000000000E+00 0. -1.
         22    1    1    2    0    0 -0.14282616102E+03  0.46799661407E+03  0.72575007233E+03  0.87529041497E+03  0.00000000000E+00 0. -1.
<mgrwt>
<rscale>  0 0.98820775E+03</rscale>
<asrwt>0</asrwt>
<pdfrwt beam="1">  1        2 0.24110546E+00 0.98820775E+03</pdfrwt>
<pdfrwt beam="2">  1       -2 0.23966398E-01 0.98820775E+03</pdfrwt>
<totfact> 0.17990386E+02</totfact>
</mgrwt>
</event>
<event>
 6    1  0.1885829E-005  0.1508774E+04  0.7818608E-02  0.8878639E-01
          2   -1    0    0  501    0  0.00000000000E+00  0.00000000000E+00  0.15897307795E+04  0.15897307795E+04  0.00000000000E+00 0. -1.
         -2   -1    0    0    0  501 -0.00000000000E+00 -0.00000000000E+00 -0.35798502507E+03  0.35798502507E+03  0.00000000000E+00 0.  1.
         23    2    1    2    0    0 -0.71946387715E+02  0.74802627523E+03  0.63663848324E+03  0.98913755771E+03  0.91460147473E+02 0.  0.
         13    1    3    3    0    0 -0.42965176835E+02  0.29008846597E+03  0.19422694918E+03  0.35174057528E+03  0.00000000000E+00 0.  1.
        -13    1    3    3    0    0 -0.28981210880E+02  0.45793780926E+03  0.44241153406E+03  0.63739698243E+03  0.00000000000E+00 0. -1.
         22    1    1    2    0    0  0.71946387715E+02 -0.74802627523E+03  0.59510727118E+03  0.95857824686E+03  0.00000000000E+00 0. -1.
<mgrwt>
<rscale>  0 0.15087741E+04</rscale>
<asrwt>0</asrwt>
<pdfrwt beam="1">  1        2 0.24457396E+00 0.15087741E+04</pdfrwt>
<pdfrwt beam="2">  1       -2 0.55074620E-01 0.15087741E+04</pdfrwt>
<totfact> 0.33822204E+01</totfact>
</mgrwt>
</event>
<event>
 6    1  0.1885829E-005  0.2102395E+04  0.7818608E-02  0.8560189E-01
         -2   -1    0    0    0  501 -0.00000000000E+00  0.00000000000E+00  0.53070932980E+03  0.53070932980E+03  0.00000000000E+00 0.  1.
          2   -1    0    0  501    0  0.00000000000E+00 -0.00000000000E+00 -0.20821505246E+04  0.20821505246E+04  0.00000000000E+00 0. -1.
         23    2    1    2    0    0 -0.10403648610E+04 -0.11442692512E+03 -0.86675842004E+03  0.13621628218E+04  0.93620666024E+02 0.  0.
         11    1    3    3    0    0 -0.54006651849E+02  0.72024613935E+01 -0.67957821903E+02  0.87102580053E+02  0.00000000000E+00 0. -1.
        -11    1    3    3    0    0 -0.98635820920E+03 -0.12162938651E+03 -0.79880059814E+03  0.12750602418E+04  0.00000000000E+00 0.  1.
         22    1    1    2    0    0  0.10403648610E+04  0.11442692512E+03 -0.68468277475E+03  0.12506970326E+04  0.00000000000E+00 0.  1.
<mgrwt>
<rscale>  0 0.21023955E+04</rscale>
<asrwt>0</asrwt>
<pdfrwt beam="1">  1        2 0.32033085E+00 0.21023955E+04</pdfrwt>
<pdfrwt beam="2">  1       -2 0.81647589E-01 0.21023955E+04</pdfrwt>
<totfact> 0.73125398E+00</totfact>
</mgrwt>
</event>
<event>
 6    1  0.1885829E-005  0.3301877E+04  0.7818608E-02  0.8162418E-01
          2   -1    0    0  501    0  0.00000000000E+00  0.00000000000E+00  0.12791979109E+04  0.12791979109E+04  0.00000000000E+00 0.  1.
         -2   -1    0    0    0  501 -0.00000000000E+00 -0.00000000000E+00 -0.21307080134E+04  0.21307080134E+04  0.00000000000E+00 0. -1.
         23    2    1    2    0    0  0.14437468352E+04  0.12627581964E+03 -0.12398346525E+04  0.19095238187E+04  0.93491935544E+02 0.  0.
         13    1    3    3    0    0  0.60472217960E+03  0.39189246675E+02 -0.57663107100E+03  0.83649752158E+03  0.00000000000E+00 0. -1.
        -13    1    3    3    0    0  0.83902465556E+03  0.87086572961E+02 -0.66320358150E+03  0.10730262971E+04  0.00000000000E+00 0.  1.
         22    1    1    2    0    0 -0.14437468352E+04 -0.12627581964E+03  0.38832454998E+03  0.15003821056E+04  0.00000000000E+00 0.  1.
<mgrwt>
<rscale>  0 0.33018766E+04</rscale>
<asrwt>0</asrwt>
<pdfrwt beam="1">  1        2 0.19679968E+00 0.33018766E+04</pdfrwt>
<pdfrwt beam="2">  1       -2 0.32780123E+00 0.33018766E+04</pdfrwt>
<totfact> 0.30406140E-01</totfact>
</mgrwt>
</event>
<event>
 6    1  0.2639632E-005  0.4147690E+04  0.7818608E-02  0.7975398E-01
          2   -1    0    0  501    0  0.00000000000E+00  0.00000000000E+00  0.22512445654E+04  0.22512445654E+04  0.00000000000E+00 0. -1.
         -2   -1    0    0    0  501 -0.00000000000E+00 -0.00000000000E+00 -0.19104245246E+04  0.19104245246E+04  0.00000000000E+00 0.  1.
         23    2    1    2    0    0 -0.59930758678E+02  0.11187141442E+04  0.19202055409E+04  0.22252880349E+04  0.98002482440E+02 0.  0.
         13    1    3    3    0    0 -0.59901377948E+02  0.47916807520E+03  0.89476485647E+03  0.10167567889E+04  0.00000000000E+00 0.  1.
        -13    1    3    3    0    0 -0.29380730503E-01  0.63954606903E+03  0.10254406845E+04  0.12085312460E+04  0.00000000000E+00 0. -1.
         22    1    1    2    0    0  0.59930758678E+02 -0.11187141442E+04 -0.15793855002E+04  0.19363810551E+04  0.00000000000E+00 0.  1.
<mgrwt>
<rscale>  0 0.41476899E+04</rscale>
<asrwt>0</asrwt>
<pdfrwt beam="1">  1        2 0.34634532E+00 0.41476899E+04</pdfrwt>
<pdfrwt beam="2">  1       -2 0.29391146E+00 0.41476899E+04</pdfrwt>
<totfact> 0.13043028E-01</totfact>
</mgrwt>
</event>
<event>
 6    1  0.1885829E-005  0.2241547E+04  0.7818608E-02  0.8501331E-01
         -2   -1    0    0    0  501 -0.00000000000E+00  0.00000000000E+00  0.49548044995E+03  0.49548044995E+03  0.00000000000E+00 0.  1.
          2   -1    0    0  501    0  0.00000000000E+00 -0.00000000000E+00 -0.25351832842E+04  0.25351832842E+04  0.00000000000E+00 0. -1.
         23    2    1    2    0    0  0.58874540872E+03  0.70846948505E+03 -0.18796072956E+04  0.20956873981E+04  0.10213675716E+03 0.  0.
         13    1    3    3    0    0  0.34379449914E+03  0.33994988459E+03 -0.93721244186E+03  0.10545746739E+04  0.00000000000E+00 0.  1.
        -13    1    3    3    0    0  0.24495090958E+03  0.36851960046E+03 -0.94239485379E+03  0.10411127242E+04  0.00000000000E+00 0. -1.
         22    1    1    2    0    0 -0.58874540872E+03 -0.70846948505E+03 -0.16009553862E+03  0.93497633608E+03  0.00000000000E+00 0.  1.
<mgrwt>
<rscale>  0 0.22415475E+04</rscale>
<asrwt>0</asrwt>
<pdfrwt beam="1">  1        2 0.39002818E+00 0.22415475E+04</pdfrwt>
<pdfrwt beam="2">  1       -2 0.76227765E-01 0.22415475E+04</pdfrwt>
<totfact> 0.46597195E+00</totfact>
</mgrwt>
</event>
<event>
 6    1  0.1885829E-005  0.3490290E+04  0.7818608E-02  0.8116095E-01
          2   -1    0    0  501    0  0.00000000000E+00  0.00000000000E+00  0.16175857331E+04  0.16175857331E+04  0.00000000000E+00 0. -1.
         -2   -1    0    0    0  501 -0.00000000000E+00 -0.00000000000E+00 -0.18827632255E+04  0.18827632255E+04  0.00000000000E+00 0.  1.
         23    2    1    2    0    0  0.41456525735E+02 -0.64917637071E+03 -0.17554956391E+04  0.18742503200E+04  0.88885988864E+02 0.  0.
         13    1    3    3    0    0 -0.57770071635E+01 -0.84654892154E+02 -0.31890350635E+03  0.32999889536E+03  0.00000000000E+00 0.  1.
        -13    1    3    3    0    0  0.47233532899E+02 -0.56452147856E+03 -0.14365921328E+04  0.15442514246E+04  0.00000000000E+00 0. -1.
         22    1    1    2    0    0 -0.41456525735E+02  0.64917637071E+03  0.14903181467E+04  0.16260986386E+04  0.00000000000E+00 0. -1.
<mgrwt>
<rscale>  0 0.34902899E+04</rscale>
<asrwt>0</asrwt>
<pdfrwt beam="1">  1        2 0.24885934E+00 0.34902899E+04</pdfrwt>
<pdfrwt beam="2">  1       -2 0.28965588E+00 0.34902899E+04</pdfrwt>
<totfact> 0.32961870E-01</totfact>
</mgrwt>
</event>
<event>
 6    1  0.2564885E-005  0.2820083E+04  0.7818608E-02  0.8297060E-01
         -2   -1    0    0    0  501 -0.00000000000E+00  0.00000000000E+00  0.10163562077E+04  0.10163562077E+04  0.00000000000E+00 0.  1.
          2   -1    0    0  501    0  0.00000000000E+00 -0.00000000000E+00 -0.19562212162E+04  0.19562212162E+04  0.00000000000E+00 0. -1.
         23    2    1    2    0    0  0.70603421413E+03 -0.37212672219E+03 -0.16938521871E+04  0.18746433300E+04  0.90497369826E+02 0.  0.
         11    1    3    3    0    0  0.18854129941E+03 -0.91083070745E+02 -0.54072286351E+03  0.57984925841E+03  0.00000000000E+00 0.  1.
        -11    1    3    3    0    0  0.51749291471E+03 -0.28104365145E+03 -0.11531293236E+04  0.12947940716E+04  0.00000000000E+00 0. -1.
         22    1    1    2    0    0 -0.70603421413E+03  0.37212672219E+03  0.75398717871E+03  0.10979340939E+04  0.00000000000E+00 0.  1.
<mgrwt>
<rscale>  0 0.28200834E+04</rscale>
<asrwt>0</asrwt>
<pdfrwt beam="1">  1        2 0.30095710E+00 0.28200834E+04</pdfrwt>
<pdfrwt beam="2">  1       -2 0.15636250E+00 0.28200834E+04</pdfrwt>
<totfact> 0.16461031E+00</totfact>
</mgrwt>
</event>
<event>
 6    1  0.1885829E-005  0.1900369E+04  0.7818608E-02  0.8654673E-01
         -2   -1    0    0    0  501 -0.00000000000E+00  0.00000000000E+00  0.37577038271E+03  0.37577038271E+03  0.00000000000E+00 0.  1.
          2   -1    0    0  501    0  0.00000000000E+00 -0.00000000000E+00 -0.24026665942E+04  0.24026665942E+04  0.00000000000E+00 0. -1.
         23    2    1    2    0    0  0.25048860508E+03 -0.81903316013E+03 -0.42266619050E+03  0.95988980434E+03  0.95822070567E+02 0.  0.
         13    1    3    3    0    0  0.16416597518E+03 -0.57705156590E+03 -0.34212482670E+03  0.69064344937E+03  0.00000000000E+00 0.  1.
        -13    1    3    3    0    0  0.86322629899E+02 -0.24198159423E+03 -0.80541363801E+02  0.26924635496E+03  0.00000000000E+00 0. -1.
         22    1    1    2    0    0 -0.25048860508E+03  0.81903316013E+03 -0.16042300210E+04  0.18185471726E+04  0.00000000000E+00 0. -1.
<mgrwt>
<rscale>  0 0.19003694E+04</rscale>
<asrwt>0</asrwt>
<pdfrwt beam="1">  1        2 0.36964102E+00 0.19003694E+04</pdfrwt>
<pdfrwt beam="2">  1       -2 0.57810827E-01 0.19003694E+04</pdfrwt>
<totfact> 0.10398319E+01</totfact>
</mgrwt>
</event>
<event>
 6    1  0.1885829E-005  0.2173673E+04  0.7818608E-02  0.8529467E-01
          2   -1    0    0  501    0  0.00000000000E+00  0.00000000000E+00  0.20533799969E+04  0.20533799969E+04  0.00000000000E+00 0. -1.
         -2   -1    0    0    0  501 -0.00000000000E+00 -0.00000000000E+00 -0.57525327313E+03  0.57525327313E+03  0.00000000000E+00 0.  1.
         23    2    1    2    0    0 -0.44590302837E+03  0.61052963127E+03  0.16813910545E+04  0.18457588678E+04  0.90410058206E+02 0.  0.
         11    1    3    3    0    0 -0.36272482520E+03  0.54335551296E+03  0.14070385127E+04  0.15513097332E+04  0.00000000000E+00 0. -1.
        -11    1    3    3    0    0 -0.83178203174E+02  0.67174118318E+02  0.27435254185E+03  0.29444913462E+03  0.00000000000E+00 0.  1.
         22    1    1    2    0    0  0.44590302837E+03 -0.61052963127E+03 -0.20326433078E+03  0.78287440215E+03  0.00000000000E+00 0.  1.
<mgrwt>
<rscale>  0 0.21736730E+04</rscale>
<asrwt>0</asrwt>
<pdfrwt beam="1">  1        2 0.31590461E+00 0.21736730E+04</pdfrwt>
<pdfrwt beam="2">  1       -2 0.88500505E-01 0.21736730E+04</pdfrwt>
<totfact> 0.62774959E+00</totfact>
</mgrwt>
</event>
<event>
 6    1  0.1930732E-005  0.4306786E+04  0.7818608E-02  0.7945365E-01
          2   -1    0    0  501    0  0.00000000000E+00  0.00000000000E+00  0.35873130214E+04  0.35873130214E+04  0.00000000000E+00 0. -1.
         -2   -1    0    0    0  501 -0.00000000000E+00 -0.00000000000E+00 -0.12926391185E+04  0.12926391185E+04  0.00000000000E+00 0.  1.
         23    2    1    2    0    0  0.18774134138E+04  0.88994638713E+03  0.17849008534E+04  0.27406638798E+04  0.93175894541E+02 0.  0.
         13    1    3    3    0    0  0.12807636672E+04  0.63766065521E+03  0.11844923845E+04  0.18574145718E+04  0.00000000000E+00 0. -1.
        -13    1    3    3    0    0  0.59664974651E+03  0.25228573192E+03  0.60040846889E+03  0.88324930798E+03  0.00000000000E+00 0.  1.
         22    1    1    2    0    0 -0.18774134138E+04 -0.88994638713E+03  0.50977304944E+03  0.21392882602E+04  0.00000000000E+00 0.  1.
<mgrwt>
<rscale>  0 0.43067859E+04</rscale>
<asrwt>0</asrwt>
<pdfrwt beam="1">  1        2 0.55189431E+00 0.43067859E+04</pdfrwt>
<pdfrwt beam="2">  1       -2 0.19886756E+00 0.43067859E+04</pdfrwt>
<totfact> 0.73254544E-02</totfact>
</mgrwt>
</event>
<event>
 6    1  0.1885829E-005  0.1932948E+04  0.7818608E-02  0.8638628E-01
         -2   -1    0    0    0  501 -0.00000000000E+00  0.00000000000E+00  0.28885053082E+03  0.28885053082E+03  0.00000000000E+00 0.  1.
          2   -1    0    0  501    0  0.00000000000E+00 -0.00000000000E+00 -0.32337555028E+04  0.32337555028E+04  0.00000000000E+00 0. -1.
         23    2    1    2    0    0 -0.37127306356E+03 -0.67881282900E+03 -0.25248063237E+04  0.26422007753E+04  0.89148305948E+02 0.  0.
         11    1    3    3    0    0 -0.22342944031E+03 -0.40670207792E+03 -0.16591398974E+04  0.17228094770E+04  0.00000000000E+00 0. -1.
        -11    1    3    3    0    0 -0.14784362325E+03 -0.27211075108E+03 -0.86566642630E+03  0.91939129831E+03  0.00000000000E+00 0.  1.
         22    1    1    2    0    0  0.37127306356E+03  0.67881282900E+03 -0.42009864829E+03  0.88040525829E+03  0.00000000000E+00 0.  1.
<mgrwt>
<rscale>  0 0.19329480E+04</rscale>
<asrwt>0</asrwt>
<pdfrwt beam="1">  1        2 0.49750085E+00 0.19329480E+04</pdfrwt>
<pdfrwt beam="2">  1       -2 0.44438543E-01 0.19329480E+04</pdfrwt>
<totfact> 0.55520002E+00</totfact>
</mgrwt>
</event>
<event>
 6    1  0.1885829E-005  0.1789469E+04  0.7818608E-02  0.8711920E-01
          2   -1    0    0  501    0  0.00000000000E+00  0.00000000000E+00  0.64356907168E+03  0.64356907168E+03  0.00000000000E+00 0. -1.
         -2   -1    0    0    0  501 -0.00000000000E+00 -0.00000000000E+00 -0.12439226110E+04  0.12439226110E+04  0.00000000000E+00 0.  1.
         23    2    1    2    0    0 -0.24391697424E+03  0.32009571794E+03  0.53965417338E+03  0.67853579266E+03  0.85014328873E+02 0.  0.
         11    1    3    3    0    0 -0.25895861527E+02  0.78203358942E+02  0.14608032876E+03  0.16770755333E+03  0.00000000000E+00 0. -1.
        -11    1    3    3    0    0 -0.21802111271E+03  0.24189235900E+03  0.39357384462E+03  0.51082823933E+03  0.00000000000E+00 0.  1.
         22    1    1    2    0    0  0.24391697424E+03 -0.32009571794E+03 -0.11400077127E+04  0.12089558900E+04  0.00000000000E+00 0.  1.
<mgrwt>
<rscale>  0 0.17894693E+04</rscale>
<asrwt>0</asrwt>
<pdfrwt beam="1">  1        2 0.99010626E-01 0.17894693E+04</pdfrwt>
<pdfrwt beam="2">  1       -2 0.19137271E+00 0.17894693E+04</pdfrwt>
<totfact> 0.65213414E+00</totfact>
</mgrwt>
</event>
<event>
 6    1  0.1885829E-005  0.1582641E+04  0.7818608E-02  0.8831284E-01
          2   -1    0    0  501    0  0.00000000000E+00  0.00000000000E+00  0.67595899720E+03  0.67595899720E+03  0.00000000000E+00 0.  1.
         -2   -1    0    0    0  501 -0.00000000000E+00 -0.00000000000E+00 -0.92636990303E+03  0.92636990303E+03  0.00000000000E+00 0. -1.
         23    2    1    2    0    0 -0.16345148946E+03  0.55350722697E+03 -0.66976555170E+03  0.88892511644E+03  0.92278538522E+02 0.  0.
         13    1    3    3    0    0 -0.10830332346E+02  0.18525901415E+03 -0.20030532399E+03  0.27305754200E+03  0.00000000000E+00 0. -1.
        -13    1    3    3    0    0 -0.15262115711E+03  0.36824821282E+03 -0.46946022771E+03  0.61586757444E+03  0.00000000000E+00 0.  1.
         22    1    1    2    0    0  0.16345148946E+03 -0.55350722697E+03  0.41935464587E+03  0.71340378379E+03  0.00000000000E+00 0.  1.
<mgrwt>
<rscale>  0 0.15826409E+04</rscale>
<asrwt>0</asrwt>
<pdfrwt beam="1">  1        2 0.10399369E+00 0.15826409E+04</pdfrwt>
<pdfrwt beam="2">  1       -2 0.14251845E+00 0.15826409E+04</pdfrwt>
<totfact> 0.14089017E+01</totfact>
</mgrwt>
</event>
<event>
 6    1  0.1885829E-005  0.2131229E+04  0.7818608E-02  0.8547610E-01
          2   -1    0    0  501    0  0.00000000000E+00  0.00000000000E+00  0.19564192189E+04  0.19564192189E+04  0.00000000000E+00 0. -1.
         -2   -1    0    0    0  501 -0.00000000000E+00 -0.00000000000E+00 -0.58041473619E+03  0.58041473619E+03  0.00000000000E+00 0.  1.
         23    2    1    2    0    0  0.97916278745E+03  0.18767410598E+03  0.11309176853E+04  0.15101651319E+04  0.87421851847E+02 0.  0.
         13    1    3    3    0    0  0.79110766414E+03  0.15867151582E+03  0.96344107766E+03  0.12566808252E+04  0.00000000000E+00 0.  1.
        -13    1    3    3    0    0  0.18805512331E+03  0.29002590157E+02  0.16747660766E+03  0.25348430672E+03  0.00000000000E+00 0. -1.
         22    1    1    2    0    0 -0.97916278745E+03 -0.18767410598E+03  0.24508679745E+03  0.10266688233E+04  0.00000000000E+00 0.  1.
<mgrwt>
<rscale>  0 0.21312293E+04</rscale>
<asrwt>0</asrwt>
<pdfrwt beam="1">  1        2 0.30098757E+00 0.21312293E+04</pdfrwt>
<pdfrwt beam="2">  1       -2 0.89294576E-01 0.21312293E+04</pdfrwt>
<totfact> 0.69880577E+00</totfact>
</mgrwt>
</event>
<event>
 6    1  0.1885829E-005  0.3281053E+04  0.7818608E-02  0.8167733E-01
          2   -1    0    0  501    0  0.00000000000E+00  0.00000000000E+00  0.26501990495E+04  0.26501990495E+04  0.00000000000E+00 0. -1.
         -2   -1    0    0    0  501 -0.00000000000E+00 -0.00000000000E+00 -0.10155189091E+04  0.10155189091E+04  0.00000000000E+00 0.  1.
         23    2    1    2    0    0 -0.15228152757E+04 -0.76612551011E+02  0.14608394454E+03  0.15348133428E+04  0.97342855688E+02 0.  0.
         11    1    3    3    0    0 -0.12400909997E+04 -0.52311048941E+02  0.81994504215E+02  0.12438992050E+04  0.00000000000E+00 0.  1.
        -11    1    3    3    0    0 -0.28272427599E+03 -0.24301502070E+02  0.64089440327E+02  0.29091413784E+03  0.00000000000E+00 0. -1.
         22    1    1    2    0    0  0.15228152757E+04  0.76612551011E+02  0.14885961959E+04  0.21309046158E+04  0.00000000000E+00 0. -1.
<mgrwt>
<rscale>  0 0.32810530E+04</rscale>
<asrwt>0</asrwt>
<pdfrwt beam="1">  1        2 0.40772293E+00 0.32810530E+04</pdfrwt>
<pdfrwt beam="2">  1       -2 0.15623368E+00 0.32810530E+04</pdfrwt>
<totfact> 0.63878022E-01</totfact>
</mgrwt>
</event>
<event>
 6    1  0.1885829E-005  0.2228862E+04  0.7818608E-02  0.8506510E-01
         -2   -1    0    0    0  501 -0.00000000000E+00  0.00000000000E+00  0.52724971094E+03  0.52724971094E+03  0.00000000000E+00 0.  1.
          2   -1    0    0  501    0  0.00000000000E+00 -0.00000000000E+00 -0.23555379875E+04  0.23555379875E+04  0.00000000000E+00 0. -1.
         23    2    1    2    0    0 -0.60743912403E+03 -0.92659286980E+03 -0.10454913721E+04  0.15262009414E+04  0.93169032386E+02 0.  0.
         13    1    3    3    0    0 -0.21006564155E+03 -0.34108695024E+03 -0.43832745523E+03  0.59380033630E+03  0.00000000000E+00 0.  1.
        -13    1    3    3    0    0 -0.39737348249E+03 -0.58550591956E+03 -0.60716391687E+03  0.93240060509E+03  0.00000000000E+00 0. -1.
         22    1    1    2    0    0  0.60743912403E+03  0.92659286980E+03 -0.78279690447E+03  0.13565867571E+04  0.00000000000E+00 0.  1.
<mgrwt>
<rscale>  0 0.22288622E+04</rscale>
<asrwt>0</asrwt>
<pdfrwt beam="1">  1        2 0.36239046E+00 0.22288622E+04</pdfrwt>
<pdfrwt beam="2">  1       -2 0.81115339E-01 0.22288622E+04</pdfrwt>
<totfact> 0.51496773E+00</totfact>
</mgrwt>
</event>
<event>
 6    1  0.1885829E-005  0.1567562E+04  0.7818608E-02  0.8840728E-01
          2   -1    0    0  501    0  0.00000000000E+00  0.00000000000E+00  0.74181598481E+03  0.74181598481E+03  0.00000000000E+00 0. -1.
         -2   -1    0    0    0  501 -0.00000000000E+00 -0.00000000000E+00 -0.82811983509E+03  0.82811983509E+03  0.00000000000E+00 0.  1.
         23    2    1    2    0    0 -0.73103860932E+03 -0.26755344882E+03 -0.10825584807E+03  0.79116487379E+03  0.90665498346E+02 0.  0.
         11    1    3    3    0    0 -0.79328242894E+02 -0.29219320317E+02 -0.41099525670E+02  0.93999520269E+02  0.00000000000E+00 0. -1.
        -11    1    3    3    0    0 -0.65171036642E+03 -0.23833412851E+03 -0.67156322399E+02  0.69716535352E+03  0.00000000000E+00 0.  1.
         22    1    1    2    0    0  0.73103860932E+03  0.26755344882E+03  0.21951997789E+02  0.77877094610E+03  0.00000000000E+00 0.  1.
<mgrwt>
<rscale>  0 0.15675618E+04</rscale>
<asrwt>0</asrwt>
<pdfrwt beam="1">  1        2 0.11412554E+00 0.15675618E+04</pdfrwt>
<pdfrwt beam="2">  1       -2 0.12740305E+00 0.15675618E+04</pdfrwt>
<totfact> 0.16708270E+01</totfact>
</mgrwt>
</event>
<event>
 6    1  0.1885829E-005  0.2083879E+04  0.7818608E-02  0.8568378E-01
          4   -1    0    0  501    0  0.00000000000E+00  0.00000000000E+00  0.10433500219E+04  0.10433500219E+04  0.00000000000E+00 0. -1.
         -4   -1    0    0    0  501 -0.00000000000E+00 -0.00000000000E+00 -0.10405303873E+04  0.10405303873E+04  0.00000000000E+00 0.  1.
         23    2    1    2    0    0 -0.19324975770E+03  0.10040025984E+04 -0.18905664636E+03  0.10436000655E+04  0.89397956909E+02 0.  0.
         11    1    3    3    0    0 -0.13574977774E+03  0.46912911516E+03 -0.88843719188E+02  0.49639030539E+03  0.00000000000E+00 0. -1.
        -11    1    3    3    0    0 -0.57499979966E+02  0.53487348324E+03 -0.10021292718E+03  0.54720976009E+03  0.00000000000E+00 0.  1.
         22    1    1    2    0    0  0.19324975770E+03 -0.10040025984E+04  0.19187628100E+03  0.10402803438E+04  0.00000000000E+00 0. -1.
<mgrwt>
<rscale>  0 0.20838785E+04</rscale>
<asrwt>0</asrwt>
<pdfrwt beam="1">  1        4 0.16051539E+00 0.20838785E+04</pdfrwt>
<pdfrwt beam="2">  1       -4 0.16008160E+00 0.20838785E+04</pdfrwt>
<totfact> 0.11434094E-01</totfact>
</mgrwt>
</event>
<event>
 6    1  0.1885829E-005  0.2349389E+04  0.7818608E-02  0.8458699E-01
          2   -1    0    0  501    0  0.00000000000E+00  0.00000000000E+00  0.33609942229E+04  0.33609942229E+04  0.00000000000E+00 0. -1.
         -2   -1    0    0    0  501 -0.00000000000E+00 -0.00000000000E+00 -0.41056502638E+03  0.41056502638E+03  0.00000000000E+00 0.  1.
         23    2    1    2    0    0 -0.72676577138E+02  0.11403210512E+04  0.10510318425E+04  0.15549572793E+04  0.87236585710E+02 0.  0.
         13    1    3    3    0    0 -0.21369173152E+02  0.28745319047E+03  0.31792432808E+03  0.42914083546E+03  0.00000000000E+00 0. -1.
        -13    1    3    3    0    0 -0.51307403985E+02  0.85286786075E+03  0.73310751444E+03  0.11258164439E+04  0.00000000000E+00 0.  1.
         22    1    1    2    0    0  0.72676577138E+02 -0.11403210512E+04  0.18993973540E+04  0.22166019700E+04  0.00000000000E+00 0.  1.
<mgrwt>
<rscale>  0 0.23493886E+04</rscale>
<asrwt>0</asrwt>
<pdfrwt beam="1">  1        2 0.51707602E+00 0.23493886E+04</pdfrwt>
<pdfrwt beam="2">  1       -2 0.63163852E-01 0.23493886E+04</pdfrwt>
<totfact> 0.21282937E+00</totfact>
</mgrwt>
</event>
<event>
 6    1  0.1885829E-005  0.1646628E+04  0.7818608E-02  0.8792404E-01
          2   -1    0    0  501    0  0.00000000000E+00  0.00000000000E+00  0.15852621816E+04  0.15852621816E+04  0.00000000000E+00 0. -1.
         -2   -1    0    0    0  501 -0.00000000000E+00 -0.00000000000E+00 -0.42759246741E+03  0.42759246741E+03  0.00000000000E+00 0.  1.
         23    2    1    2    0    0 -0.77471752436E+03  0.19463440098E+03  0.81110632865E+03  0.11421216401E+04  0.92079161022E+02 0.  0.
         11    1    3    3    0    0 -0.32620723951E+03  0.77559989536E+02  0.27702274238E+03  0.43493483981E+03  0.00000000000E+00 0.  1.
        -11    1    3    3    0    0 -0.44851028486E+03  0.11707441144E+03  0.53408358627E+03  0.70718680033E+03  0.00000000000E+00 0. -1.
         22    1    1    2    0    0  0.77471752436E+03 -0.19463440098E+03  0.34656338558E+03  0.87073300892E+03  0.00000000000E+00 0.  1.
<mgrwt>
<rscale>  0 0.16466283E+04</rscale>
<asrwt>0</asrwt>
<pdfrwt beam="1">  1        2 0.24388649E+00 0.16466283E+04</pdfrwt>
<pdfrwt beam="2">  1       -2 0.65783457E-01 0.16466283E+04</pdfrwt>
<totfact> 0.23102690E+01</totfact>
</mgrwt>
</event>
<event>
 6    1  0.1885829E-005  0.1968631E+04  0.7818608E-02  0.8621429E-01
          1   -1    0    0  501    0  0.00000000000E+00  0.00000000000E+00  0.84509599040E+03  0.84509599040E+03  0.00000000000E+00 0. -1.
         -1   -1    0    0    0  501 -0.00000000000E+00 -0.00000000000E+00 -0.11464695711E+04  0.11464695711E+04  0.00000000000E+00 0.  1.
         23    2    1    2    0    0  0.93854099915E+02 -0.56929547997E+03  0.65305291694E+03  0.87629166016E+03  0.92211852581E+02 0.  0.
         11    1    3    3    0    0  0.31967366901E+02 -0.41436796614E+03  0.49681136305E+03  0.64772235902E+03  0.00000000000E+00 0. -1.
        -11    1    3    3    0    0  0.61886733014E+02 -0.15492751383E+03  0.15624155389E+03  0.22856930115E+03  0.00000000000E+00 0.  1.
         22    1    1    2    0    0 -0.93854099915E+02  0.56929547997E+03 -0.95442649767E+03  0.11152739014E+04  0.00000000000E+00 0.  1.
<mgrwt>
<rscale>  0 0.19686308E+04</rscale>
<asrwt>0</asrwt>
<pdfrwt beam="1">  1        1 0.13001477E+00 0.19686308E+04</pdfrwt>
<pdfrwt beam="2">  1       -1 0.17637993E+00 0.19686308E+04</pdfrwt>
<totfact> 0.41568378E+00</totfact>
</mgrwt>
</event>
<event>
 6    1  0.1885829E-005  0.2787821E+04  0.7818608E-02  0.8307059E-01
          2   -1    0    0  501    0  0.00000000000E+00  0.00000000000E+00  0.24934585087E+04  0.24934585087E+04  0.00000000000E+00 0. -1.
         -2   -1    0    0    0  501 -0.00000000000E+00 -0.00000000000E+00 -0.77923363120E+03  0.77923363120E+03  0.00000000000E+00 0.  1.
         23    2    1    2    0    0  0.92021893292E+03  0.32250351811E+03  0.20247984198E+04  0.22493313390E+04  0.94188259485E+02 0.  0.
         13    1    3    3    0    0  0.45507468926E+03  0.11563809861E+03  0.10230212365E+04  0.11256276441E+04  0.00000000000E+00 0. -1.
        -13    1    3    3    0    0  0.46514424365E+03  0.20686541951E+03  0.10017771832E+04  0.11237036950E+04  0.00000000000E+00 0.  1.
         22    1    1    2    0    0 -0.92021893292E+03 -0.32250351811E+03 -0.31057354225E+03  0.10233608009E+04  0.00000000000E+00 0.  1.
<mgrwt>
<rscale>  0 0.27878212E+04</rscale>
<asrwt>0</asrwt>
<pdfrwt beam="1">  1        2 0.38360900E+00 0.27878212E+04</pdfrwt>
<pdfrwt beam="2">  1       -2 0.11988210E+00 0.27878212E+04</pdfrwt>
<totfact> 0.16278080E+00</totfact>
</mgrwt>
</event>
<event>
 6    1  0.1885829E-005  0.3066014E+04  0.7818608E-02  0.8225127E-01
         -2   -1    0    0    0  501 -0.00000000000E+00  0.00000000000E+00  0.11857883067E+04  0.11857883067E+04  0.00000000000E+00 0.  1.
          2   -1    0    0  501    0  0.00000000000E+00 -0.00000000000E+00 -0.19818974173E+04  0.19818974173E+04  0.00000000000E+00 0. -1.
         23    2    1    2    0    0  0.36031902991E+03  0.11496041104E+04 -0.13756018340E+04  0.18308120462E+04  0.90404252112E+02 0.  0.
         11    1    3    3    0    0  0.33110140513E+03  0.94612191217E+03 -0.11294164311E+04  0.15100848612E+04  0.00000000000E+00 0. -1.
        -11    1    3    3    0    0  0.29217624781E+02  0.20348219821E+03 -0.24618540285E+03  0.32072718495E+03  0.00000000000E+00 0.  1.
         22    1    1    2    0    0 -0.36031902991E+03 -0.11496041104E+04  0.57949272338E+03  0.13368736778E+04  0.00000000000E+00 0.  1.
<mgrwt>
<rscale>  0 0.30660142E+04</rscale>
<asrwt>0</asrwt>
<pdfrwt beam="1">  1        2 0.30490729E+00 0.30660142E+04</pdfrwt>
<pdfrwt beam="2">  1       -2 0.18242897E+00 0.30660142E+04</pdfrwt>
<totfact> 0.10158391E+00</totfact>
</mgrwt>
</event>
<event>
 6    1  0.1885829E-005  0.1858622E+04  0.7818608E-02  0.8675731E-01
         -2   -1    0    0    0  501 -0.00000000000E+00  0.00000000000E+00  0.96991173491E+03  0.96991173491E+03  0.00000000000E+00 0.  1.
          2   -1    0    0  501    0  0.00000000000E+00 -0.00000000000E+00 -0.89041026267E+03  0.89041026267E+03  0.00000000000E+00 0. -1.
         23    2    1    2    0    0 -0.13639739375E+03  0.12892077143E+03  0.94853214572E+03  0.97125556261E+03  0.91647815709E+02 0.  0.
         11    1    3    3    0    0 -0.88942211639E+02  0.12953434725E+03  0.63501049416E+03  0.65416220604E+03  0.00000000000E+00 0. -1.
        -11    1    3    3    0    0 -0.47455182111E+02 -0.61357581273E+00  0.31352165156E+03  0.31709335657E+03  0.00000000000E+00 0.  1.
         22    1    1    2    0    0  0.13639739375E+03 -0.12892077143E+03 -0.86903067348E+03  0.88906643497E+03  0.00000000000E+00 0. -1.
<mgrwt>
<rscale>  0 0.18586225E+04</rscale>
<asrwt>0</asrwt>
<pdfrwt beam="1">  1        2 0.13698619E+00 0.18586225E+04</pdfrwt>
<pdfrwt beam="2">  1       -2 0.14921719E+00 0.18586225E+04</pdfrwt>
<totfact> 0.84950269E+00</totfact>
</mgrwt>
</event>
<event>
 6    1  0.1885829E-005  0.3564177E+04  0.7818608E-02  0.8098747E-01
         -2   -1    0    0    0  501 -0.00000000000E+00  0.00000000000E+00  0.94126451329E+03  0.94126451329E+03  0.00000000000E+00 0.  1.
          2   -1    0    0  501    0  0.00000000000E+00 -0.00000000000E+00 -0.33740140968E+04  0.33740140968E+04  0.00000000000E+00 0. -1.
         23    2    1    2    0    0 -0.56087894333E+03 -0.11674724360E+04  0.26276665250E+03  0.13247293534E+04  0.91019054026E+02 0.  0.
         11    1    3    3    0    0 -0.30609974646E+03 -0.66504531085E+03  0.10406476650E+03  0.73946723788E+03  0.00000000000E+00 0.  1.
        -11    1    3    3    0    0 -0.25477919687E+03 -0.50242712518E+03  0.15870188600E+03  0.58526211555E+03  0.00000000000E+00 0. -1.
         22    1    1    2    0    0  0.56087894333E+03  0.11674724360E+04 -0.26955162360E+04  0.29905492566E+04  0.00000000000E+00 0. -1.
<mgrwt>
<rscale>  0 0.35641772E+04</rscale>
<asrwt>0</asrwt>
<pdfrwt beam="1">  1        2 0.51907910E+00 0.35641772E+04</pdfrwt>
<pdfrwt beam="2">  1       -2 0.14480992E+00 0.35641772E+04</pdfrwt>
<totfact> 0.26654311E-01</totfact>
</mgrwt>
</event>
<event>
 6    1  0.1885829E-005  0.3246577E+04  0.7818608E-02  0.8176623E-01
         -2   -1    0    0    0  501 -0.00000000000E+00  0.00000000000E+00  0.96674821812E+03  0.96674821812E+03  0.00000000000E+00 0.  1.
          2   -1    0    0  501    0  0.00000000000E+00 -0.00000000000E+00 -0.27256998796E+04  0.27256998796E+04  0.00000000000E+00 0. -1.
         23    2    1    2    0    0  0.10597258258E+04 -0.32933337120E+02  0.51534538281E+03  0.11831592590E+04  0.10090360737E+03 0.  0.
         13    1    3    3    0    0  0.17885736813E+03 -0.34285523029E+02  0.61288326490E+02  0.19215023858E+03  0.00000000000E+00 0.  1.
        -13    1    3    3    0    0  0.88086845765E+03  0.13521859090E+01  0.45405705632E+03  0.99100902039E+03  0.00000000000E+00 0. -1.
         22    1    1    2    0    0 -0.10597258258E+04  0.32933337120E+02 -0.22742970443E+04  0.25092888387E+04  0.00000000000E+00 0. -1.
<mgrwt>
<rscale>  0 0.32465770E+04</rscale>
<asrwt>0</asrwt>
<pdfrwt beam="1">  1        2 0.41933844E+00 0.32465770E+04</pdfrwt>
<pdfrwt beam="2">  1       -2 0.14873050E+00 0.32465770E+04</pdfrwt>
<totfact> 0.65864905E-01</totfact>
</mgrwt>
</event>
<event>
 6    1  0.1885829E-005  0.1800489E+04  0.7818608E-02  0.8706039E-01
         -2   -1    0    0    0  501 -0.00000000000E+00  0.00000000000E+00  0.55883937797E+03  0.55883937797E+03  0.00000000000E+00 0.  1.
          2   -1    0    0  501    0  0.00000000000E+00 -0.00000000000E+00 -0.14502208326E+04  0.14502208326E+04  0.00000000000E+00 0. -1.
         23    2    1    2    0    0 -0.72830776941E+03  0.21686910971E+02 -0.10327612757E+04  0.12668400391E+04  0.85937785599E+02 0.  0.
         11    1    3    3    0    0 -0.62154136033E+03 -0.11525105068E+02 -0.86395236959E+03  0.10643590501E+04  0.00000000000E+00 0. -1.
        -11    1    3    3    0    0 -0.10676640908E+03  0.33212016039E+02 -0.16880890614E+03  0.20248098900E+03  0.00000000000E+00 0.  1.
         22    1    1    2    0    0  0.72830776941E+03 -0.21686910971E+02  0.14137982109E+03  0.74222017145E+03  0.00000000000E+00 0. -1.
<mgrwt>
<rscale>  0 0.18004894E+04</rscale>
<asrwt>0</asrwt>
<pdfrwt beam="1">  1        2 0.22311089E+00 0.18004894E+04</pdfrwt>
<pdfrwt beam="2">  1       -2 0.85975290E-01 0.18004894E+04</pdfrwt>
<totfact> 0.15013013E+01</totfact>
</mgrwt>
</event>
<event>
 6    1  0.1885829E-005  0.2601769E+04  0.7818608E-02  0.8367600E-01
         -2   -1    0    0    0  501 -0.00000000000E+00  0.00000000000E+00  0.21659165909E+04  0.21659165909E+04  0.00000000000E+00 0.  1.
          2   -1    0    0  501    0  0.00000000000E+00 -0.00000000000E+00 -0.78133239226E+03  0.78133239226E+03  0.00000000000E+00 0. -1.
         23    2    1    2    0    0  0.94160310958E+03  0.82188498875E+03  0.10957521064E+04  0.16644647736E+04  0.87515445419E+02 0.  0.
         13    1    3    3    0    0  0.24749185177E+03  0.19049551878E+03  0.31800896786E+03  0.44572464932E+03  0.00000000000E+00 0.  1.
        -13    1    3    3    0    0  0.69411125781E+03  0.63138946997E+03  0.77774313857E+03  0.12187401243E+04  0.00000000000E+00 0. -1.
         22    1    1    2    0    0 -0.94160310958E+03 -0.82188498875E+03  0.28883209218E+03  0.12827842095E+04  0.00000000000E+00 0. -1.
<mgrwt>
<rscale>  0 0.26017692E+04</rscale>
<asrwt>0</asrwt>
<pdfrwt beam="1">  1        2 0.12020498E+00 0.26017692E+04</pdfrwt>
<pdfrwt beam="2">  1       -2 0.33321794E+00 0.26017692E+04</pdfrwt>
<totfact> 0.62327993E-01</totfact>
</mgrwt>
</event>
<event>
 6    1  0.1885829E-005  0.5925152E+03  0.7818608E-02  0.9921058E-01
         -2   -1    0    0    0  501 -0.00000000000E+00  0.00000000000E+00  0.66840849514E+03  0.66840849514E+03  0.00000000000E+00 0.  1.
          2   -1    0    0  501    0  0.00000000000E+00 -0.00000000000E+00 -0.13130974762E+03  0.13130974762E+03  0.00000000000E+00 0. -1.
         23    2    1    2    0    0  0.17011180018E+03 -0.20120026465E+03  0.11247605490E+03  0.29999431683E+03  0.89028962402E+02 0.  0.
         11    1    3    3    0    0  0.12857635105E+03 -0.14979673944E+03  0.12369416507E+03  0.23296177297E+03  0.00000000000E+00 0. -1.
        -11    1    3    3    0    0  0.41535449136E+02 -0.51403525214E+02 -0.11218110176E+02  0.67032543852E+02  0.00000000000E+00 0.  1.
         22    1    1    2    0    0 -0.17011180018E+03  0.20120026465E+03  0.42462269263E+03  0.49972392594E+03  0.00000000000E+00 0.  1.
<mgrwt>
<rscale>  0 0.59251515E+03</rscale>
<asrwt>0</asrwt>
<pdfrwt beam="1">  1        2 0.20201500E-01 0.59251515E+03</pdfrwt>
<pdfrwt beam="2">  1       -2 0.10283207E+00 0.59251515E+03</pdfrwt>
<totfact> 0.21970395E+02</totfact>
</mgrwt>
</event>
<event>
 6    1  0.1885829E-005  0.2432436E+04  0.7818608E-02  0.8427459E-01
         -2   -1    0    0    0  501 -0.00000000000E+00  0.00000000000E+00  0.14650540658E+04  0.14650540658E+04  0.00000000000E+00 0.  1.
          2   -1    0    0  501    0  0.00000000000E+00 -0.00000000000E+00 -0.10096465217E+04  0.10096465217E+04  0.00000000000E+00 0. -1.
         23    2    1    2    0    0 -0.62149116738E+03  0.12575733440E+03 -0.82581096106E+03  0.10451597394E+04  0.91263131491E+02 0.  0.
         11    1    3    3    0    0 -0.59246545188E+03  0.12433987939E+03 -0.74913107009E+03  0.96315786736E+03  0.00000000000E+00 0. -1.
        -11    1    3    3    0    0 -0.29025715492E+02  0.14174550091E+01 -0.76679890971E+02  0.82001872038E+02  0.00000000000E+00 0.  1.
         22    1    1    2    0    0  0.62149116738E+03 -0.12575733440E+03  0.12812185052E+04  0.14295408481E+04  0.00000000000E+00 0.  1.
<mgrwt>
<rscale>  0 0.24324364E+04</rscale>
<asrwt>0</asrwt>
<pdfrwt beam="1">  1        2 0.15533023E+00 0.24324364E+04</pdfrwt>
<pdfrwt beam="2">  1       -2 0.22539293E+00 0.24324364E+04</pdfrwt>
<totfact> 0.20347324E+00</totfact>
</mgrwt>
</event>
<event>
 6    1  0.1885829E-005  0.1059229E+04  0.7818608E-02  0.9245868E-01
          2   -1    0    0  501    0  0.00000000000E+00  0.00000000000E+00  0.86288700127E+03  0.86288700127E+03  0.00000000000E+00 0. -1.
         -2   -1    0    0    0  501 -0.00000000000E+00 -0.00000000000E+00 -0.32506144140E+03  0.32506144140E+03  0.00000000000E+00 0.  1.
         23    2    1    2    0    0  0.19370497170E+03 -0.48083900739E+03  0.17285221730E+03  0.55396633892E+03  0.90956300197E+02 0.  0.
         11    1    3    3    0    0  0.96931167657E+02 -0.15830179127E+03  0.94222345586E+02  0.20816570032E+03  0.00000000000E+00 0. -1.
        -11    1    3    3    0    0  0.96773804038E+02 -0.32253721612E+03  0.78629871712E+02  0.34580063860E+03  0.00000000000E+00 0.  1.
         22    1    1    2    0    0 -0.19370497170E+03  0.48083900739E+03  0.36497334257E+03  0.63398210375E+03  0.00000000000E+00 0.  1.
<mgrwt>
<rscale>  0 0.10592286E+04</rscale>
<asrwt>0</asrwt>
<pdfrwt beam="1">  1        2 0.13275185E+00 0.10592286E+04</pdfrwt>
<pdfrwt beam="2">  1       -2 0.50009453E-01 0.10592286E+04</pdfrwt>
<totfact> 0.11703271E+02</totfact>
</mgrwt>
</event>
<event>
 6    1  0.1887578E-005  0.2891024E+04  0.7818608E-02  0.8275553E-01
          2   -1    0    0  501    0  0.00000000000E+00  0.00000000000E+00  0.20519190034E+04  0.20519190034E+04  0.00000000000E+00 0. -1.
         -2   -1    0    0    0  501 -0.00000000000E+00 -0.00000000000E+00 -0.10183177376E+04  0.10183177376E+04  0.00000000000E+00 0.  1.
         23    2    1    2    0    0  0.10231788126E+02 -0.12328588769E+04  0.13156916166E+04  0.18054756307E+04  0.93016790651E+02 0.  0.
         13    1    3    3    0    0  0.42998586792E+02 -0.38980039192E+03  0.39275039281E+03  0.55501900423E+03  0.00000000000E+00 0. -1.
        -13    1    3    3    0    0 -0.32766798666E+02 -0.84305848503E+03  0.92294122376E+03  0.12504566265E+04  0.00000000000E+00 0.  1.
         22    1    1    2    0    0 -0.10231788126E+02  0.12328588769E+04 -0.28209035085E+03  0.12647611103E+04  0.00000000000E+00 0.  1.
<mgrwt>
<rscale>  0 0.28910244E+04</rscale>
<asrwt>0</asrwt>
<pdfrwt beam="1">  1        2 0.31567985E+00 0.28910244E+04</pdfrwt>
<pdfrwt beam="2">  1       -2 0.15666427E+00 0.28910244E+04</pdfrwt>
<totfact> 0.14400348E+00</totfact>
</mgrwt>
</event>
<event>
 6    1  0.1885829E-005  0.1359927E+04  0.7818608E-02  0.8983347E-01
         -2   -1    0    0    0  501 -0.00000000000E+00  0.00000000000E+00  0.47026287169E+03  0.47026287169E+03  0.00000000000E+00 0.  1.
          2   -1    0    0  501    0  0.00000000000E+00 -0.00000000000E+00 -0.98317445502E+03  0.98317445502E+03  0.00000000000E+00 0. -1.
         23    2    1    2    0    0  0.39390752262E+03 -0.15499792742E+03  0.30709308175E+03  0.53061819783E+03  0.89788736119E+02 0.  0.
         13    1    3    3    0    0  0.20452179431E+03 -0.11124481540E+03  0.20912832214E+03  0.31295243795E+03  0.00000000000E+00 0.  1.
        -13    1    3    3    0    0  0.18938572831E+03 -0.43753112019E+02  0.97964759613E+02  0.21766575988E+03  0.00000000000E+00 0. -1.
         22    1    1    2    0    0 -0.39390752262E+03  0.15499792742E+03 -0.82000466507E+03  0.92281912888E+03  0.00000000000E+00 0. -1.
<mgrwt>
<rscale>  0 0.13599271E+04</rscale>
<asrwt>0</asrwt>
<pdfrwt beam="1">  1        2 0.15125761E+00 0.13599271E+04</pdfrwt>
<pdfrwt beam="2">  1       -2 0.72348135E-01 0.13599271E+04</pdfrwt>
<totfact> 0.43600830E+01</totfact>
</mgrwt>
</event>
<event>
 6    1  0.1885829E-005  0.2447280E+04  0.7818608E-02  0.8422012E-01
         -2   -1    0    0    0  501 -0.00000000000E+00  0.00000000000E+00  0.11057242267E+04  0.11057242267E+04  0.00000000000E+00 0.  1.
          2   -1    0    0  501    0  0.00000000000E+00 -0.00000000000E+00 -0.13541300453E+04  0.13541300453E+04  0.00000000000E+00 0. -1.
         23    2    1    2    0    0 -0.11903014687E+04 -0.25279138790E+03 -0.23192617970E+03  0.12428938574E+04  0.10136230019E+03 0.  0.
         13    1    3    3    0    0 -0.67359942231E+03 -0.19176067030E+03 -0.11720336844E+03  0.71010208138E+03  0.00000000000E+00 0. -1.
        -13    1    3    3    0    0 -0.51670204636E+03 -0.61030717598E+02 -0.11472281126E+03  0.53279177605E+03  0.00000000000E+00 0.  1.
         22    1    1    2    0    0  0.11903014687E+04  0.25279138790E+03 -0.16479638846E+02  0.12169604146E+04  0.00000000000E+00 0.  1.
<mgrwt>
<rscale>  0 0.24472796E+04</rscale>
<asrwt>0</asrwt>
<pdfrwt beam="1">  1        2 0.20832770E+00 0.24472796E+04</pdfrwt>
<pdfrwt beam="2">  1       -2 0.17011142E+00 0.24472796E+04</pdfrwt>
<totfact> 0.29306880E+00</totfact>
</mgrwt>
</event>
<event>
 6    1  0.1885829E-005  0.5544959E+04  0.7818608E-02  0.7749533E-01
         -1   -1    0    0    0  501 -0.00000000000E+00  0.00000000000E+00  0.26479617181E+04  0.26479617181E+04  0.00000000000E+00 0.  1.
          1   -1    0    0  501    0  0.00000000000E+00 -0.00000000000E+00 -0.29028523549E+04  0.29028523549E+04  0.00000000000E+00 0. -1.
         23    2    1    2    0    0  0.24271899361E+04 -0.52253733662E+03  0.11061026282E+04  0.27194541663E+04  0.87588152382E+02 0.  0.
         13    1    3    3    0    0  0.17654452110E+04 -0.34194000420E+03  0.81375476329E+03  0.19738076336E+04  0.00000000000E+00 0.  1.
        -13    1    3    3    0    0  0.66174472511E+03 -0.18059733242E+03  0.29234786489E+03  0.74564653274E+03  0.00000000000E+00 0. -1.
         22    1    1    2    0    0 -0.24271899361E+04  0.52253733662E+03 -0.13609932650E+04  0.28313599067E+04  0.00000000000E+00 0. -1.
<mgrwt>
<rscale>  0 0.55449588E+04</rscale>
<asrwt>0</asrwt>
<pdfrwt beam="1">  1        1 0.44659267E+00 0.55449588E+04</pdfrwt>
<pdfrwt beam="2">  1       -1 0.40737873E+00 0.55449588E+04</pdfrwt>
<totfact> 0.31001650E-03</totfact>
</mgrwt>
</event>
<event>
 6    1  0.1885829E-005  0.1276434E+04  0.7818608E-02  0.9048465E-01
          2   -1    0    0  501    0  0.00000000000E+00  0.00000000000E+00  0.11225073977E+04  0.11225073977E+04  0.00000000000E+00 0.  1.
         -2   -1    0    0    0  501 -0.00000000000E+00 -0.00000000000E+00 -0.36286695389E+03  0.36286695389E+03  0.00000000000E+00 0. -1.
         23    2    1    2    0    0 -0.62455338389E+02 -0.29695558786E+03  0.10307976591E+04  0.10784228486E+04  0.91480795185E+02 0.  0.
         11    1    3    3    0    0  0.19258406180E+02 -0.12149439810E+03  0.42637602755E+03  0.44376603278E+03  0.00000000000E+00 0. -1.
        -11    1    3    3    0    0 -0.81713744569E+02 -0.17546118976E+03  0.60442163152E+03  0.63465681578E+03  0.00000000000E+00 0.  1.
         22    1    1    2    0    0  0.62455338389E+02  0.29695558786E+03 -0.27115721524E+03  0.40695150304E+03  0.00000000000E+00 0. -1.
<mgrwt>
<rscale>  0 0.12764338E+04</rscale>
<asrwt>0</asrwt>
<pdfrwt beam="1">  1        2 0.17269344E+00 0.12764338E+04</pdfrwt>
<pdfrwt beam="2">  1       -2 0.55825685E-01 0.12764338E+04</pdfrwt>
<totfact> 0.62435109E+01</totfact>
</mgrwt>
</event>
<event>
 6    1  0.1885829E-005  0.1538781E+04  0.7818608E-02  0.8859066E-01
          1   -1    0    0  501    0  0.00000000000E+00  0.00000000000E+00  0.12240219322E+04  0.12240219322E+04  0.00000000000E+00 0. -1.
         -1   -1    0    0    0  501 -0.00000000000E+00 -0.00000000000E+00 -0.48362017697E+03  0.48362017697E+03  0.00000000000E+00 0.  1.
         23    2    1    2    0    0 -0.53137900608E+03 -0.40780966827E+02  0.98308157729E+03  0.11220481957E+04  0.92282341821E+02 0.  0.
         13    1    3    3    0    0 -0.20722529723E+03 -0.59097886194E+02  0.42066827326E+03  0.47264857991E+03  0.00000000000E+00 0.  1.
        -13    1    3    3    0    0 -0.32415370885E+03  0.18316919367E+02  0.56241330403E+03  0.64939961583E+03  0.00000000000E+00 0. -1.
         22    1    1    2    0    0  0.53137900608E+03  0.40780966827E+02 -0.24267982209E+03  0.58559391339E+03  0.00000000000E+00 0.  1.
<mgrwt>
<rscale>  0 0.15387810E+04</rscale>
<asrwt>0</asrwt>
<pdfrwt beam="1">  1        1 0.18831106E+00 0.15387810E+04</pdfrwt>
<pdfrwt beam="2">  1       -1 0.74403105E-01 0.15387810E+04</pdfrwt>
<totfact> 0.17993565E+01</totfact>
</mgrwt>
</event>
<event>
 6    1  0.1885829E-005  0.4735287E+04  0.7818608E-02  0.7870692E-01
         -2   -1    0    0    0  501 -0.00000000000E+00  0.00000000000E+00  0.26830714348E+04  0.26830714348E+04  0.00000000000E+00 0.  1.
          2   -1    0    0  501    0  0.00000000000E+00 -0.00000000000E+00 -0.20892977265E+04  0.20892977265E+04  0.00000000000E+00 0. -1.
         23    2    1    2    0    0 -0.55693145626E+03  0.13058235773E+04  0.22055496236E+04  0.26245401498E+04  0.91727825622E+02 0.  0.
         11    1    3    3    0    0 -0.35237429330E+03  0.74520434364E+03  0.12194865008E+04  0.14719526086E+04  0.00000000000E+00 0.  1.
        -11    1    3    3    0    0 -0.20455716296E+03  0.56061923362E+03  0.98606312281E+03  0.11525875412E+04  0.00000000000E+00 0. -1.
         22    1    1    2    0    0  0.55693145626E+03 -0.13058235773E+04 -0.16117759153E+04  0.21478290116E+04  0.00000000000E+00 0. -1.
<mgrwt>
<rscale>  0 0.47352867E+04</rscale>
<asrwt>0</asrwt>
<pdfrwt beam="1">  1        2 0.32143042E+00 0.47352867E+04</pdfrwt>
<pdfrwt beam="2">  1       -2 0.41278022E+00 0.47352867E+04</pdfrwt>
<totfact> 0.27118041E-02</totfact>
</mgrwt>
</event>
<event>
 6    1  0.1885829E-005  0.3410501E+04  0.7818608E-02  0.8135334E-01
         -2   -1    0    0    0  501 -0.00000000000E+00  0.00000000000E+00  0.13723223721E+04  0.13723223721E+04  0.00000000000E+00 0.  1.
          2   -1    0    0  501    0  0.00000000000E+00 -0.00000000000E+00 -0.21189478753E+04  0.21189478753E+04  0.00000000000E+00 0. -1.
         23    2    1    2    0    0  0.16290985660E+02  0.62006234167E+03  0.12511763875E+04  0.13993918814E+04  0.90069869895E+02 0.  0.
         13    1    3    3    0    0  0.53364053459E+02  0.32270542160E+03  0.66031938888E+03  0.73689090554E+03  0.00000000000E+00 0. -1.
        -13    1    3    3    0    0 -0.37073067799E+02  0.29735692008E+03  0.59085699861E+03  0.66250097591E+03  0.00000000000E+00 0.  1.
         22    1    1    2    0    0 -0.16290985660E+02 -0.62006234167E+03 -0.19978018907E+04  0.20918783660E+04  0.00000000000E+00 0. -1.
<mgrwt>
<rscale>  0 0.34105012E+04</rscale>
<asrwt>0</asrwt>
<pdfrwt beam="1">  1        2 0.32599198E+00 0.34105012E+04</pdfrwt>
<pdfrwt beam="2">  1       -2 0.21112652E+00 0.34105012E+04</pdfrwt>
<totfact> 0.53452203E-01</totfact>
</mgrwt>
</event>
<event>
 6    1  0.1885829E-005  0.1192365E+04  0.7818608E-02  0.9119566E-01
          2   -1    0    0  501    0  0.00000000000E+00  0.00000000000E+00  0.44904350176E+03  0.44904350176E+03  0.00000000000E+00 0. -1.
         -2   -1    0    0    0  501 -0.00000000000E+00 -0.00000000000E+00 -0.79153449815E+03  0.79153449815E+03  0.00000000000E+00 0.  1.
         23    2    1    2    0    0 -0.58262305542E+03 -0.10369457038E+03 -0.13766435811E+03  0.61435428559E+03  0.90980899573E+02 0.  0.
         11    1    3    3    0    0 -0.30024332954E+03 -0.99238613593E+02 -0.67168368086E+02  0.32327379886E+03  0.00000000000E+00 0. -1.
        -11    1    3    3    0    0 -0.28237972589E+03 -0.44559567913E+01 -0.70495990021E+02  0.29108048673E+03  0.00000000000E+00 0.  1.
         22    1    1    2    0    0  0.58262305542E+03  0.10369457038E+03 -0.20482663828E+03  0.62622371433E+03  0.00000000000E+00 0. -1.
<mgrwt>
<rscale>  0 0.11923647E+04</rscale>
<asrwt>0</asrwt>
<pdfrwt beam="1">  1        2 0.69083617E-01 0.11923647E+04</pdfrwt>
<pdfrwt beam="2">  1       -2 0.12177454E+00 0.11923647E+04</pdfrwt>
<totfact> 0.35220578E+01</totfact>
</mgrwt>
</event>
<event>
 6    1  0.1885829E-005  0.1671481E+04  0.7818608E-02  0.8777799E-01
         -2   -1    0    0    0  501 -0.00000000000E+00  0.00000000000E+00  0.33129246334E+03  0.33129246334E+03  0.00000000000E+00 0. -1.
          2   -1    0    0  501    0  0.00000000000E+00 -0.00000000000E+00 -0.21082938341E+04  0.21082938341E+04  0.00000000000E+00 0.  1.
         23    2    1    2    0    0  0.12618333472E+03  0.32081709694E+03  0.21501373283E+03  0.41796070981E+03  0.98053077422E+02 0.  0.
         13    1    3    3    0    0  0.82252556489E+02  0.98018161524E+02  0.10551696702E+03  0.16585196220E+03  0.00000000000E+00 0. -1.
        -13    1    3    3    0    0  0.43930778230E+02  0.22279893541E+03  0.10949676581E+03  0.25210874761E+03  0.00000000000E+00 0.  1.
         22    1    1    2    0    0 -0.12618333472E+03 -0.32081709694E+03 -0.19920151036E+04  0.20216255877E+04  0.00000000000E+00 0.  1.
<mgrwt>
<rscale>  0 0.16714806E+04</rscale>
<asrwt>0</asrwt>
<pdfrwt beam="1">  1        2 0.32435288E+00 0.16714806E+04</pdfrwt>
<pdfrwt beam="2">  1       -2 0.50968074E-01 0.16714806E+04</pdfrwt>
<totfact> 0.20179629E+01</totfact>
</mgrwt>
</event>
<event>
 6    1  0.1885829E-005  0.2510915E+04  0.7818608E-02  0.8399107E-01
         -2   -1    0    0    0  501 -0.00000000000E+00  0.00000000000E+00  0.85217805599E+03  0.85217805599E+03  0.00000000000E+00 0.  1.
          2   -1    0    0  501    0  0.00000000000E+00 -0.00000000000E+00 -0.18495816666E+04  0.18495816666E+04  0.00000000000E+00 0. -1.
         23    2    1    2    0    0  0.63451406503E+03  0.69313531633E+03  0.39378597138E+03  0.10229348007E+04  0.91014008122E+02 0.  0.
         11    1    3    3    0    0  0.22785620056E+03  0.25700538179E+03  0.19154002229E+03  0.39326555220E+03  0.00000000000E+00 0. -1.
        -11    1    3    3    0    0  0.40665786448E+03  0.43612993454E+03  0.20224594908E+03  0.62966924846E+03  0.00000000000E+00 0.  1.
         22    1    1    2    0    0 -0.63451406503E+03 -0.69313531633E+03 -0.13911895820E+04  0.16788249219E+04  0.00000000000E+00 0. -1.
<mgrwt>
<rscale>  0 0.25109145E+04</rscale>
<asrwt>0</asrwt>
<pdfrwt beam="1">  1        2 0.28455103E+00 0.25109145E+04</pdfrwt>
<pdfrwt beam="2">  1       -2 0.13110432E+00 0.25109145E+04</pdfrwt>
<totfact> 0.30679888E+00</totfact>
</mgrwt>
</event>
<event>
 6    1  0.1885829E-005  0.3732124E+04  0.7818608E-02  0.8060880E-01
         -2   -1    0    0    0  501 -0.00000000000E+00  0.00000000000E+00  0.26756866174E+04  0.26756866174E+04  0.00000000000E+00 0.  1.
          2   -1    0    0  501    0  0.00000000000E+00 -0.00000000000E+00 -0.13014185523E+04  0.13014185523E+04  0.00000000000E+00 0. -1.
         23    2    1    2    0    0 -0.17848979219E+04  0.48084858592E+03  0.94957974963E+03  0.20804143358E+04  0.96675507100E+02 0.  0.
         13    1    3    3    0    0 -0.92904363012E+03  0.29881035161E+03  0.51368237922E+03  0.11028505246E+04  0.00000000000E+00 0.  1.
        -13    1    3    3    0    0 -0.85585429175E+03  0.18203823431E+03  0.43589737042E+03  0.97756381121E+03  0.00000000000E+00 0. -1.
         22    1    1    2    0    0  0.17848979219E+04 -0.48084858592E+03  0.42468831539E+03  0.18966908339E+04  0.00000000000E+00 0. -1.
<mgrwt>
<rscale>  0 0.37321244E+04</rscale>
<asrwt>0</asrwt>
<pdfrwt beam="1">  1        2 0.20021824E+00 0.37321244E+04</pdfrwt>
<pdfrwt beam="2">  1       -2 0.41164409E+00 0.37321244E+04</pdfrwt>
<totfact> 0.82749513E-02</totfact>
</mgrwt>
</event>
<event>
 6    1  0.1885829E-005  0.3792608E+04  0.7818608E-02  0.8047743E-01
          2   -1    0    0  501    0  0.00000000000E+00  0.00000000000E+00  0.29051319917E+04  0.29051319917E+04  0.00000000000E+00 0. -1.
         -2   -1    0    0    0  501 -0.00000000000E+00 -0.00000000000E+00 -0.12377986896E+04  0.12377986896E+04  0.00000000000E+00 0.  1.
         23    2    1    2    0    0  0.40305637727E+03 -0.13358214199E+04  0.22350496315E+04  0.26365525283E+04  0.95336614156E+02 0.  0.
         13    1    3    3    0    0  0.16578711572E+03 -0.62320251938E+03  0.95271931073E+03  0.11504524471E+04  0.00000000000E+00 0. -1.
        -13    1    3    3    0    0  0.23726926154E+03 -0.71261890056E+03  0.12823303208E+04  0.14861000813E+04  0.00000000000E+00 0.  1.
         22    1    1    2    0    0 -0.40305637727E+03  0.13358214199E+04 -0.56771632938E+03  0.15063781530E+04  0.00000000000E+00 0.  1.
<mgrwt>
<rscale>  0 0.37926078E+04</rscale>
<asrwt>0</asrwt>
<pdfrwt beam="1">  1        2 0.44694338E+00 0.37926078E+04</pdfrwt>
<pdfrwt beam="2">  1       -2 0.19043057E+00 0.37926078E+04</pdfrwt>
<totfact> 0.24626270E-01</totfact>
</mgrwt>
</event>
<event>
 6    1  0.1885829E-005  0.9246269E+03  0.7818608E-02  0.9395310E-01
         -2   -1    0    0    0  501 -0.00000000000E+00  0.00000000000E+00  0.22427769759E+03  0.22427769759E+03  0.00000000000E+00 0.  1.
          2   -1    0    0  501    0  0.00000000000E+00 -0.00000000000E+00 -0.95298705346E+03  0.95298705346E+03  0.00000000000E+00 0. -1.
         23    2    1    2    0    0  0.33427557724E+03  0.17269010820E+03 -0.35839123262E+02  0.38882883467E+03  0.91331182524E+02 0.  0.
         11    1    3    3    0    0  0.13095914456E+03  0.19416233635E+02 -0.17645359629E+02  0.13356139558E+03  0.00000000000E+00 0. -1.
        -11    1    3    3    0    0  0.20331643268E+03  0.15327387457E+03 -0.18193763634E+02  0.25526743909E+03  0.00000000000E+00 0.  1.
         22    1    1    2    0    0 -0.33427557724E+03 -0.17269010820E+03 -0.69287023261E+03  0.78843591639E+03  0.00000000000E+00 0. -1.
<mgrwt>
<rscale>  0 0.92462693E+03</rscale>
<asrwt>0</asrwt>
<pdfrwt beam="1">  1        2 0.14661339E+00 0.92462693E+03</pdfrwt>
<pdfrwt beam="2">  1       -2 0.34504261E-01 0.92462693E+03</pdfrwt>
<totfact> 0.21289416E+02</totfact>
</mgrwt>
</event>
<event>
 6    1  0.1885829E-005  0.5489886E+04  0.7818608E-02  0.7757082E-01
          2   -1    0    0  501    0  0.00000000000E+00  0.00000000000E+00  0.25143608487E+04  0.25143608487E+04  0.00000000000E+00 0. -1.
         -2   -1    0    0    0  501 -0.00000000000E+00 -0.00000000000E+00 -0.29966704604E+04  0.29966704604E+04  0.00000000000E+00 0.  1.
         23    2    1    2    0    0  0.20685849569E+03 -0.16836498361E+04  0.19242181867E+04  0.25667413690E+04  0.89880016691E+02 0.  0.
         11    1    3    3    0    0  0.18808885995E+03 -0.12707551281E+04  0.14885034945E+04  0.19661736108E+04  0.00000000000E+00 0.  1.
        -11    1    3    3    0    0  0.18769635743E+02 -0.41289470805E+03  0.43571469213E+03  0.60056775813E+03  0.00000000000E+00 0. -1.
         22    1    1    2    0    0 -0.20685849569E+03  0.16836498361E+04 -0.24065277984E+04  0.29442899402E+04  0.00000000000E+00 0.  1.
<mgrwt>
<rscale>  0 0.54898856E+04</rscale>
<asrwt>0</asrwt>
<pdfrwt beam="1">  1        2 0.38682475E+00 0.54898856E+04</pdfrwt>
<pdfrwt beam="2">  1       -2 0.46102622E+00 0.54898856E+04</pdfrwt>
<totfact> 0.70556475E-03</totfact>
</mgrwt>
</event>
<event>
 6    1  0.1885829E-005  0.2505132E+04  0.7818608E-02  0.8401159E-01
          2   -1    0    0  501    0  0.00000000000E+00  0.00000000000E+00  0.10266799167E+04  0.10266799167E+04  0.00000000000E+00 0.  1.
         -2   -1    0    0    0  501 -0.00000000000E+00 -0.00000000000E+00 -0.15281510737E+04  0.15281510737E+04  0.00000000000E+00 0. -1.
         23    2    1    2    0    0  0.20470454541E+03  0.11142276135E+04  0.29002133569E+03  0.11728514349E+04  0.89783002805E+02 0.  0.
         13    1    3    3    0    0  0.19621497422E+02  0.31384957494E+03  0.95372331681E+02  0.32860681749E+03  0.00000000000E+00 0.  1.
        -13    1    3    3    0    0  0.18508304799E+03  0.80037803857E+03  0.19464900401E+03  0.84424461742E+03  0.00000000000E+00 0. -1.
         22    1    1    2    0    0 -0.20470454541E+03 -0.11142276135E+04 -0.79149249271E+03  0.13819795554E+04  0.00000000000E+00 0. -1.
<mgrwt>
<rscale>  0 0.25051323E+04</rscale>
<asrwt>0</asrwt>
<pdfrwt beam="1">  1        2 0.15795076E+00 0.25051323E+04</pdfrwt>
<pdfrwt beam="2">  1       -2 0.23510016E+00 0.25051323E+04</pdfrwt>
<totfact> 0.17151554E+00</totfact>
</mgrwt>
</event>
<event>
 6    1  0.1885829E-005  0.2973399E+04  0.7818608E-02  0.8251368E-01
          2   -1    0    0  501    0  0.00000000000E+00  0.00000000000E+00  0.20574285327E+04  0.20574285327E+04  0.00000000000E+00 0. -1.
         -2   -1    0    0    0  501 -0.00000000000E+00 -0.00000000000E+00 -0.10742899713E+04  0.10742899713E+04  0.00000000000E+00 0.  1.
         23    2    1    2    0    0 -0.58367337079E+02  0.86777108924E+03 -0.77618917020E+03  0.11691519505E+04  0.89516736698E+02 0.  0.
         11    1    3    3    0    0  0.22300225612E+02  0.11677250415E+03 -0.11241376403E+03  0.16361531753E+03  0.00000000000E+00 0. -1.
        -11    1    3    3    0    0 -0.80667562691E+02  0.75099858509E+03 -0.66377540617E+03  0.10055366330E+04  0.00000000000E+00 0.  1.
         22    1    1    2    0    0  0.58367337079E+02 -0.86777108924E+03  0.17593277316E+04  0.19625665534E+04  0.00000000000E+00 0. -1.
<mgrwt>
<rscale>  0 0.29733986E+04</rscale>
<asrwt>0</asrwt>
<pdfrwt beam="1">  1        2 0.31652746E+00 0.29733986E+04</pdfrwt>
<pdfrwt beam="2">  1       -2 0.16527538E+00 0.29733986E+04</pdfrwt>
<totfact> 0.12271424E+00</totfact>
</mgrwt>
</event>
<event>
 6    1  0.1885829E-005  0.2663920E+04  0.7818608E-02  0.8346807E-01
          2   -1    0    0  501    0  0.00000000000E+00  0.00000000000E+00  0.10106721312E+04  0.10106721312E+04  0.00000000000E+00 0.  1.
         -2   -1    0    0    0  501 -0.00000000000E+00 -0.00000000000E+00 -0.17553841702E+04  0.17553841702E+04  0.00000000000E+00 0. -1.
         23    2    1    2    0    0  0.23382959940E+03 -0.50365544079E+03 -0.16281929226E+04  0.17225604671E+04  0.88641327856E+02 0.  0.
         13    1    3    3    0    0  0.16912676763E+03 -0.28094745444E+03 -0.10320372695E+04  0.10828833092E+04  0.00000000000E+00 0. -1.
        -13    1    3    3    0    0  0.64702831770E+02 -0.22270798635E+03 -0.59615565307E+03  0.63967715788E+03  0.00000000000E+00 0.  1.
         22    1    1    2    0    0 -0.23382959940E+03  0.50365544079E+03  0.88348088358E+03  0.10434958343E+04  0.00000000000E+00 0.  1.
<mgrwt>
<rscale>  0 0.26639203E+04</rscale>
<asrwt>0</asrwt>
<pdfrwt beam="1">  1        2 0.15548802E+00 0.26639203E+04</pdfrwt>
<pdfrwt beam="2">  1       -2 0.27005910E+00 0.26639203E+04</pdfrwt>
<totfact> 0.10564522E+00</totfact>
</mgrwt>
</event>
<event>
 6    1  0.1885829E-005  0.2772017E+04  0.7818608E-02  0.8312009E-01
          2   -1    0    0  501    0  0.00000000000E+00  0.00000000000E+00  0.25157485350E+04  0.25157485350E+04  0.00000000000E+00 0. -1.
         -2   -1    0    0    0  501 -0.00000000000E+00 -0.00000000000E+00 -0.76359749664E+03  0.76359749664E+03  0.00000000000E+00 0.  1.
         23    2    1    2    0    0  0.59046663984E+03 -0.11176290363E+02  0.23584339037E+04  0.24329686483E+04  0.91379447614E+02 0.  0.
         11    1    3    3    0    0  0.53398441478E+03  0.35755358740E+01  0.20123262517E+04  0.20819724021E+04  0.00000000000E+00 0. -1.
        -11    1    3    3    0    0  0.56482225060E+02 -0.14751826237E+02  0.34610765193E+03  0.35099624621E+03  0.00000000000E+00 0.  1.
         22    1    1    2    0    0 -0.59046663984E+03  0.11176290363E+02 -0.60628286532E+03  0.84637738333E+03  0.00000000000E+00 0.  1.
<mgrwt>
<rscale>  0 0.27720168E+04</rscale>
<asrwt>0</asrwt>
<pdfrwt beam="1">  1        2 0.38703823E+00 0.27720168E+04</pdfrwt>
<pdfrwt beam="2">  1       -2 0.11747654E+00 0.27720168E+04</pdfrwt>
<totfact> 0.16633882E+00</totfact>
</mgrwt>
</event>
<event>
 6    1  0.1885829E-005  0.1022078E+04  0.7818608E-02  0.9284656E-01
          2   -1    0    0  501    0  0.00000000000E+00  0.00000000000E+00  0.13517812197E+04  0.13517812197E+04  0.00000000000E+00 0. -1.
         -2   -1    0    0    0  501 -0.00000000000E+00 -0.00000000000E+00 -0.19319769874E+03  0.19319769874E+03  0.00000000000E+00 0.  1.
         23    2    1    2    0    0  0.32034127609E+03  0.28101408807E+03  0.16781977234E+03  0.46646129854E+03  0.88516756537E+02 0.  0.
         13    1    3    3    0    0  0.17949547089E+03  0.13196641870E+03  0.12998118670E+03  0.25793190697E+03  0.00000000000E+00 0. -1.
        -13    1    3    3    0    0  0.14084580519E+03  0.14904766938E+03  0.37838585637E+02  0.20852939157E+03  0.00000000000E+00 0.  1.
         22    1    1    2    0    0 -0.32034127609E+03 -0.28101408807E+03  0.99076374867E+03  0.10785176199E+04  0.00000000000E+00 0. -1.
<mgrwt>
<rscale>  0 0.10220783E+04</rscale>
<asrwt>0</asrwt>
<pdfrwt beam="1">  1        2 0.20796634E+00 0.10220783E+04</pdfrwt>
<pdfrwt beam="2">  1       -2 0.29722724E-01 0.10220783E+04</pdfrwt>
<totfact> 0.16029793E+02</totfact>
</mgrwt>
</event>
<event>
 6    1  0.1885829E-005  0.2506551E+04  0.7818608E-02  0.8400655E-01
          2   -1    0    0  501    0  0.00000000000E+00  0.00000000000E+00  0.25145872081E+04  0.25145872081E+04  0.00000000000E+00 0. -1.
         -2   -1    0    0    0  501 -0.00000000000E+00 -0.00000000000E+00 -0.62463525999E+03  0.62463525999E+03  0.00000000000E+00 0.  1.
         23    2    1    2    0    0  0.59266264385E+03 -0.31218544593E+03  0.22703539292E+04  0.23688884956E+04  0.91744093596E+02 0.  0.
         11    1    3    3    0    0  0.11318406533E+03 -0.85167160217E+02  0.38143948531E+03  0.40689084381E+03  0.00000000000E+00 0.  1.
        -11    1    3    3    0    0  0.47947857852E+03 -0.22701828572E+03  0.18889144439E+04  0.19619976518E+04  0.00000000000E+00 0. -1.
         22    1    1    2    0    0 -0.59266264385E+03  0.31218544593E+03 -0.38040198104E+03  0.77033397254E+03  0.00000000000E+00 0.  1.
<mgrwt>
<rscale>  0 0.25065513E+04</rscale>
<asrwt>0</asrwt>
<pdfrwt beam="1">  1        2 0.38685957E+00 0.25065513E+04</pdfrwt>
<pdfrwt beam="2">  1       -2 0.96097734E-01 0.25065513E+04</pdfrwt>
<totfact> 0.27604335E+00</totfact>
</mgrwt>
</event>
<event>
 6    1  0.1885829E-005  0.2202358E+04  0.7818608E-02  0.8517447E-01
         -2   -1    0    0    0  501 -0.00000000000E+00  0.00000000000E+00  0.58400694675E+03  0.58400694675E+03  0.00000000000E+00 0.  1.
          2   -1    0    0  501    0  0.00000000000E+00 -0.00000000000E+00 -0.20763374873E+04  0.20763374873E+04  0.00000000000E+00 0. -1.
         23    2    1    2    0    0  0.54968668521E+03  0.55206837453E+03  0.18955471598E+03  0.80678759430E+03  0.89667663751E+02 0.  0.
         13    1    3    3    0    0  0.25243099056E+03  0.20439115255E+03  0.10696889818E+03  0.34196416978E+03  0.00000000000E+00 0. -1.
        -13    1    3    3    0    0  0.29725569465E+03  0.34767722198E+03  0.82585817797E+02  0.46482342453E+03  0.00000000000E+00 0.  1.
         22    1    1    2    0    0 -0.54968668521E+03 -0.55206837453E+03 -0.16818852565E+04  0.18535568398E+04  0.00000000000E+00 0. -1.
<mgrwt>
<rscale>  0 0.22023583E+04</rscale>
<asrwt>0</asrwt>
<pdfrwt beam="1">  1        2 0.31943654E+00 0.22023583E+04</pdfrwt>
<pdfrwt beam="2">  1       -2 0.89847222E-01 0.22023583E+04</pdfrwt>
<totfact> 0.58725965E+00</totfact>
</mgrwt>
</event>
<event>
 6    1  0.1885829E-005  0.2666379E+04  0.7818608E-02  0.8345997E-01
          2   -1    0    0  501    0  0.00000000000E+00  0.00000000000E+00  0.70628989612E+03  0.70628989612E+03  0.00000000000E+00 0. -1.
         -2   -1    0    0    0  501 -0.00000000000E+00 -0.00000000000E+00 -0.25165218229E+04  0.25165218229E+04  0.00000000000E+00 0.  1.
         23    2    1    2    0    0  0.11245376998E+04 -0.49284257776E+03 -0.28302970082E+03  0.12632644540E+04  0.90842856145E+02 0.  0.
         13    1    3    3    0    0  0.47524504236E+03 -0.22101232539E+03 -0.76375783972E+02  0.52965796382E+03  0.00000000000E+00 0.  1.
        -13    1    3    3    0    0  0.64929265745E+03 -0.27183025237E+03 -0.20665391685E+03  0.73360649021E+03  0.00000000000E+00 0. -1.
         22    1    1    2    0    0 -0.11245376998E+04  0.49284257776E+03 -0.15272022259E+04  0.19595472650E+04  0.00000000000E+00 0.  1.
<mgrwt>
<rscale>  0 0.26663788E+04</rscale>
<asrwt>0</asrwt>
<pdfrwt beam="1">  1        2 0.10865998E+00 0.26663788E+04</pdfrwt>
<pdfrwt beam="2">  1       -2 0.38715720E+00 0.26663788E+04</pdfrwt>
<totfact> 0.32070687E-01</totfact>
</mgrwt>
</event>
<event>
 6    1  0.1885829E-005  0.2217719E+04  0.7818608E-02  0.8511089E-01
         -2   -1    0    0    0  501 -0.00000000000E+00  0.00000000000E+00  0.68373277529E+03  0.68373277529E+03  0.00000000000E+00 0.  1.
          2   -1    0    0  501    0  0.00000000000E+00 -0.00000000000E+00 -0.17983187053E+04  0.17983187053E+04  0.00000000000E+00 0. -1.
         23    2    1    2    0    0 -0.86255796381E+01  0.10978869133E+04 -0.40336970221E+03  0.11739006492E+04  0.99526592280E+02 0.  0.
         13    1    3    3    0    0 -0.52453315165E+02  0.65254964127E+03 -0.22659507927E+03  0.69276093607E+03  0.00000000000E+00 0. -1.
        -13    1    3    3    0    0  0.43827735527E+02  0.44533727201E+03 -0.17677462294E+03  0.48113971313E+03  0.00000000000E+00 0.  1.
         22    1    1    2    0    0  0.86255796381E+01 -0.10978869133E+04 -0.71121622782E+03  0.13081508314E+04  0.00000000000E+00 0.  1.
<mgrwt>
<rscale>  0 0.22177190E+04</rscale>
<asrwt>0</asrwt>
<pdfrwt beam="1">  1        2 0.27666442E+00 0.22177190E+04</pdfrwt>
<pdfrwt beam="2">  1       -2 0.10518966E+00 0.22177190E+04</pdfrwt>
<totfact> 0.57767146E+00</totfact>
</mgrwt>
</event>
<event>
 6    1  0.1885829E-005  0.3711137E+04  0.7818608E-02  0.8065498E-01
          2   -1    0    0  501    0  0.00000000000E+00  0.00000000000E+00  0.32488350654E+04  0.32488350654E+04  0.00000000000E+00 0. -1.
         -2   -1    0    0    0  501 -0.00000000000E+00 -0.00000000000E+00 -0.10598056486E+04  0.10598056486E+04  0.00000000000E+00 0.  1.
         23    2    1    2    0    0 -0.15957784509E+04 -0.79398621913E+03  0.50065739474E+03  0.18535392772E+04  0.89593775031E+02 0.  0.
         13    1    3    3    0    0 -0.12371471264E+04 -0.65229098227E+03  0.37510086254E+03  0.14480045562E+04  0.00000000000E+00 0.  1.
        -13    1    3    3    0    0 -0.35863132454E+03 -0.14169523686E+03  0.12555653220E+03  0.40553472092E+03  0.00000000000E+00 0. -1.
         22    1    1    2    0    0  0.15957784509E+04  0.79398621913E+03  0.16883720221E+04  0.24551014369E+04  0.00000000000E+00 0. -1.
<mgrwt>
<rscale>  0 0.37111366E+04</rscale>
<asrwt>0</asrwt>
<pdfrwt beam="1">  1        2 0.49982077E+00 0.37111366E+04</pdfrwt>
<pdfrwt beam="2">  1       -2 0.16304702E+00 0.37111366E+04</pdfrwt>
<totfact> 0.23245207E-01</totfact>
</mgrwt>
</event>
<event>
 6    1  0.1885829E-005  0.4182914E+04  0.7818608E-02  0.7968630E-01
         -1   -1    0    0    0  501 -0.00000000000E+00  0.00000000000E+00  0.10853373353E+04  0.10853373353E+04  0.00000000000E+00 0.  1.
          1   -1    0    0  501    0  0.00000000000E+00 -0.00000000000E+00 -0.40302599818E+04  0.40302599818E+04  0.00000000000E+00 0. -1.
         23    2    1    2    0    0  0.63557469438E+03 -0.15877208160E+03  0.95455147842E+03  0.11614776657E+04  0.93263481825E+02 0.  0.
         13    1    3    3    0    0  0.72487208926E+02 -0.50156476529E+02  0.12055688011E+03  0.14934533451E+03  0.00000000000E+00 0. -1.
        -13    1    3    3    0    0  0.56308748546E+03 -0.10861560507E+03  0.83399459831E+03  0.10121323312E+04  0.00000000000E+00 0.  1.
         22    1    1    2    0    0 -0.63557469438E+03  0.15877208160E+03 -0.38994741249E+04  0.39541196513E+04  0.00000000000E+00 0. -1.
<mgrwt>
<rscale>  0 0.41829136E+04</rscale>
<asrwt>0</asrwt>
<pdfrwt beam="1">  1        1 0.62003999E+00 0.41829136E+04</pdfrwt>
<pdfrwt beam="2">  1       -1 0.16697498E+00 0.41829136E+04</pdfrwt>
<totfact> 0.17957776E-02</totfact>
</mgrwt>
</event>
<event>
 6    1  0.1885829E-005  0.1991089E+04  0.7818608E-02  0.8610798E-01
          1   -1    0    0  501    0  0.00000000000E+00  0.00000000000E+00  0.21212653228E+04  0.21212653228E+04  0.00000000000E+00 0. -1.
         -1   -1    0    0    0  501 -0.00000000000E+00 -0.00000000000E+00 -0.46722546960E+03  0.46722546960E+03  0.00000000000E+00 0.  1.
         23    2    1    2    0    0 -0.66842931578E+03 -0.37282135013E+02  0.17830854612E+04  0.19066986857E+04  0.88985438798E+02 0.  0.
         11    1    3    3    0    0 -0.51800533928E+03 -0.52740716401E+02  0.12961426135E+04  0.13968166627E+04  0.00000000000E+00 0. -1.
        -11    1    3    3    0    0 -0.15042397650E+03  0.15458581388E+02  0.48694284764E+03  0.50988202293E+03  0.00000000000E+00 0.  1.
         22    1    1    2    0    0  0.66842931578E+03  0.37282135013E+02 -0.12904560801E+03  0.68179210668E+03  0.00000000000E+00 0.  1.
<mgrwt>
<rscale>  0 0.19910893E+04</rscale>
<asrwt>0</asrwt>
<pdfrwt beam="1">  1        1 0.32634851E+00 0.19910893E+04</pdfrwt>
<pdfrwt beam="2">  1       -1 0.71880842E-01 0.19910893E+04</pdfrwt>
<totfact> 0.44699873E+00</totfact>
</mgrwt>
</event>
<event>
 6    1  0.1885829E-005  0.1088449E+04  0.7818608E-02  0.9216523E-01
         -2   -1    0    0    0  501 -0.00000000000E+00  0.00000000000E+00  0.27366608676E+03  0.27366608676E+03  0.00000000000E+00 0.  1.
          2   -1    0    0  501    0  0.00000000000E+00 -0.00000000000E+00 -0.10822698176E+04  0.10822698176E+04  0.00000000000E+00 0. -1.
         23    2    1    2    0    0  0.15448780636E+03 -0.47056900214E+03 -0.67650215386E+03  0.84334201563E+03  0.90933618974E+02 0.  0.
         13    1    3    3    0    0  0.11163115725E+03 -0.41475671755E+03 -0.54210659047E+03  0.69163878250E+03  0.00000000000E+00 0. -1.
        -13    1    3    3    0    0  0.42856649112E+02 -0.55812284587E+02 -0.13439556338E+03  0.15170323313E+03  0.00000000000E+00 0.  1.
         22    1    1    2    0    0 -0.15448780636E+03  0.47056900214E+03 -0.13210157693E+03  0.51259388868E+03  0.00000000000E+00 0. -1.
<mgrwt>
<rscale>  0 0.10884494E+04</rscale>
<asrwt>0</asrwt>
<pdfrwt beam="1">  1        2 0.16650305E+00 0.10884494E+04</pdfrwt>
<pdfrwt beam="2">  1       -2 0.42102474E-01 0.10884494E+04</pdfrwt>
<totfact> 0.11861705E+02</totfact>
</mgrwt>
</event>
<event>
 6    1  0.1885829E-005  0.1638920E+04  0.7818608E-02  0.8796989E-01
          2   -1    0    0  501    0  0.00000000000E+00  0.00000000000E+00  0.13762188617E+04  0.13762188617E+04  0.00000000000E+00 0. -1.
         -2   -1    0    0    0  501 -0.00000000000E+00 -0.00000000000E+00 -0.48794162488E+03  0.48794162488E+03  0.00000000000E+00 0.  1.
         23    2    1    2    0    0 -0.64971714606E+03 -0.44705705521E+03  0.20334891319E+03  0.81959397889E+03  0.91603107127E+02 0.  0.
         13    1    3    3    0    0 -0.28518352613E+03 -0.24406235706E+03  0.72353558384E+02  0.38227099697E+03  0.00000000000E+00 0.  1.
        -13    1    3    3    0    0 -0.36453361993E+03 -0.20299469815E+03  0.13099535481E+03  0.43732298192E+03  0.00000000000E+00 0. -1.
         22    1    1    2    0    0  0.64971714606E+03  0.44705705521E+03  0.68492832361E+03  0.10445665077E+04  0.00000000000E+00 0. -1.
<mgrwt>
<rscale>  0 0.16389197E+04</rscale>
<asrwt>0</asrwt>
<pdfrwt beam="1">  1        2 0.21172598E+00 0.16389197E+04</pdfrwt>
<pdfrwt beam="2">  1       -2 0.75067943E-01 0.16389197E+04</pdfrwt>
<totfact> 0.22751990E+01</totfact>
</mgrwt>
</event>
<event>
 6    1  0.1885829E-005  0.1820610E+04  0.7818608E-02  0.8695415E-01
         -2   -1    0    0    0  501 -0.00000000000E+00  0.00000000000E+00  0.56036507507E+03  0.56036507507E+03  0.00000000000E+00 0.  1.
          2   -1    0    0  501    0  0.00000000000E+00 -0.00000000000E+00 -0.14787773871E+04  0.14787773871E+04  0.00000000000E+00 0. -1.
         23    2    1    2    0    0  0.30264097431E+03  0.69729796491E+02 -0.14162413691E+04  0.14523822268E+04  0.84974780077E+02 0.  0.
         11    1    3    3    0    0  0.91450306719E+02 -0.72433678653E+01 -0.29914133426E+03  0.31289161516E+03  0.00000000000E+00 0.  1.
        -11    1    3    3    0    0  0.21119066760E+03  0.76973164356E+02 -0.11171000348E+04  0.11394906116E+04  0.00000000000E+00 0. -1.
         22    1    1    2    0    0 -0.30264097431E+03 -0.69729796491E+02  0.49782905703E+03  0.58676023543E+03  0.00000000000E+00 0.  1.
<mgrwt>
<rscale>  0 0.18206100E+04</rscale>
<asrwt>0</asrwt>
<pdfrwt beam="1">  1        2 0.22750421E+00 0.18206100E+04</pdfrwt>
<pdfrwt beam="2">  1       -2 0.86210014E-01 0.18206100E+04</pdfrwt>
<totfact> 0.14349805E+01</totfact>
</mgrwt>
</event>
<event>
 6    1  0.1885829E-005  0.2086116E+04  0.7818608E-02  0.8567384E-01
         -2   -1    0    0    0  501 -0.00000000000E+00  0.00000000000E+00  0.75249579847E+03  0.75249579847E+03  0.00000000000E+00 0. -1.
          2   -1    0    0  501    0  0.00000000000E+00 -0.00000000000E+00 -0.14458158622E+04  0.14458158622E+04  0.00000000000E+00 0.  1.
         23    2    1    2    0    0  0.87653077607E+03 -0.54429224382E+03 -0.49288463969E+03  0.11472481006E+04  0.93180943973E+02 0.  0.
         13    1    3    3    0    0  0.52283173073E+03 -0.27474234277E+03 -0.30122168419E+03  0.66300141523E+03  0.00000000000E+00 0. -1.
        -13    1    3    3    0    0  0.35369904534E+03 -0.26954990104E+03 -0.19166295550E+03  0.48424668542E+03  0.00000000000E+00 0.  1.
         22    1    1    2    0    0 -0.87653077607E+03  0.54429224382E+03 -0.20043542409E+03  0.10510635601E+04  0.00000000000E+00 0. -1.
<mgrwt>
<rscale>  0 0.20861164E+04</rscale>
<asrwt>0</asrwt>
<pdfrwt beam="1">  1        2 0.22243321E+00 0.20861164E+04</pdfrwt>
<pdfrwt beam="2">  1       -2 0.11576858E+00 0.20861164E+04</pdfrwt>
<totfact> 0.72933200E+00</totfact>
</mgrwt>
</event>
<event>
 6    1  0.1885829E-005  0.3121844E+04  0.7818608E-02  0.8209768E-01
         -2   -1    0    0    0  501 -0.00000000000E+00  0.00000000000E+00  0.13648577960E+04  0.13648577960E+04  0.00000000000E+00 0.  1.
          2   -1    0    0  501    0  0.00000000000E+00 -0.00000000000E+00 -0.17851514476E+04  0.17851514476E+04  0.00000000000E+00 0. -1.
         23    2    1    2    0    0 -0.14660249520E+04 -0.52589186969E+03 -0.29193502740E+03  0.15872337144E+04  0.91068025395E+02 0.  0.
         11    1    3    3    0    0 -0.75471639949E+03 -0.31333288868E+03 -0.17479606702E+03  0.83566022272E+03  0.00000000000E+00 0. -1.
        -11    1    3    3    0    0 -0.71130855252E+03 -0.21255898101E+03 -0.11713896038E+03  0.75157349164E+03  0.00000000000E+00 0.  1.
         22    1    1    2    0    0  0.14660249520E+04  0.52589186969E+03 -0.12835862420E+03  0.15627755293E+04  0.00000000000E+00 0. -1.
<mgrwt>
<rscale>  0 0.31218442E+04</rscale>
<asrwt>0</asrwt>
<pdfrwt beam="1">  1        2 0.27463868E+00 0.31218442E+04</pdfrwt>
<pdfrwt beam="2">  1       -2 0.20997812E+00 0.31218442E+04</pdfrwt>
<totfact> 0.85380098E-01</totfact>
</mgrwt>
</event>
<event>
 6    1  0.1885829E-005  0.6400740E+04  0.7818608E-02  0.7642608E-01
         -2   -1    0    0    0  501 -0.00000000000E+00  0.00000000000E+00  0.27472438537E+04  0.27472438537E+04  0.00000000000E+00 0.  1.
          2   -1    0    0  501    0  0.00000000000E+00 -0.00000000000E+00 -0.37282340528E+04  0.37282340528E+04  0.00000000000E+00 0. -1.
         23    2    1    2    0    0 -0.13839357092E+04 -0.18096121750E+04  0.17824997010E+04  0.28940186092E+04  0.89801198306E+02 0.  0.
         13    1    3    3    0    0 -0.15345492572E+03 -0.18720188548E+03  0.22397404333E+03  0.32978376588E+03  0.00000000000E+00 0. -1.
        -13    1    3    3    0    0 -0.12304807835E+04 -0.16224102895E+04  0.15585256576E+04  0.25642348433E+04  0.00000000000E+00 0.  1.
         22    1    1    2    0    0  0.13839357092E+04  0.18096121750E+04 -0.27634899000E+04  0.35814592973E+04  0.00000000000E+00 0. -1.
<mgrwt>
<rscale>  0 0.64007400E+04</rscale>
<asrwt>0</asrwt>
<pdfrwt beam="1">  1        2 0.57357447E+00 0.64007400E+04</pdfrwt>
<pdfrwt beam="2">  1       -2 0.42265290E+00 0.64007400E+04</pdfrwt>
<totfact> 0.19104535E-03</totfact>
</mgrwt>
</event>
<event>
 6    1  0.2125198E-005  0.3101517E+04  0.7818608E-02  0.8215322E-01
         -1   -1    0    0    0  501 -0.00000000000E+00  0.00000000000E+00  0.11354741420E+04  0.11354741420E+04  0.00000000000E+00 0.  1.
          1   -1    0    0  501    0  0.00000000000E+00 -0.00000000000E+00 -0.21179276095E+04  0.21179276095E+04  0.00000000000E+00 0. -1.
         23    2    1    2    0    0  0.13914286780E+04  0.31734288876E+02 -0.12058868793E+04  0.18437906985E+04  0.91214819857E+02 0.  0.
         13    1    3    3    0    0  0.43522213590E+03  0.44283074044E+02 -0.41152103606E+03  0.60060707733E+03  0.00000000000E+00 0. -1.
        -13    1    3    3    0    0  0.95620654212E+03 -0.12548785168E+02 -0.79436584319E+03  0.12431836212E+04  0.00000000000E+00 0.  1.
         22    1    1    2    0    0 -0.13914286780E+04 -0.31734288876E+02  0.22343341180E+03  0.14096110530E+04  0.00000000000E+00 0.  1.
<mgrwt>
<rscale>  0 0.31015171E+04</rscale>
<asrwt>0</asrwt>
<pdfrwt beam="1">  1        1 0.32583502E+00 0.31015171E+04</pdfrwt>
<pdfrwt beam="2">  1       -1 0.17468833E+00 0.31015171E+04</pdfrwt>
<totfact> 0.47532924E-01</totfact>
</mgrwt>
</event>
<event>
 6    1  0.1885829E-005  0.2046583E+04  0.7818608E-02  0.8585146E-01
          2   -1    0    0  501    0  0.00000000000E+00  0.00000000000E+00  0.31480517066E+04  0.31480517066E+04  0.00000000000E+00 0. -1.
         -2   -1    0    0    0  501 -0.00000000000E+00 -0.00000000000E+00 -0.33262638574E+03  0.33262638574E+03  0.00000000000E+00 0.  1.
         23    2    1    2    0    0  0.80431972867E+03  0.75557581957E+02  0.34848709544E+03  0.88483075821E+03  0.94037443925E+02 0.  0.
         11    1    3    3    0    0  0.44746150033E+03 -0.39448303231E+01  0.18131708816E+03  0.48281802206E+03  0.00000000000E+00 0. -1.
        -11    1    3    3    0    0  0.35685822834E+03  0.79502412280E+02  0.16717000727E+03  0.40201273615E+03  0.00000000000E+00 0.  1.
         22    1    1    2    0    0 -0.80431972867E+03 -0.75557581957E+02  0.24669382254E+04  0.25958473341E+04  0.00000000000E+00 0. -1.
<mgrwt>
<rscale>  0 0.20465826E+04</rscale>
<asrwt>0</asrwt>
<pdfrwt beam="1">  1        2 0.48431563E+00 0.20465826E+04</pdfrwt>
<pdfrwt beam="2">  1       -2 0.51173292E-01 0.20465826E+04</pdfrwt>
<totfact> 0.46945987E+00</totfact>
</mgrwt>
</event>
<event>
 6    1  0.1885829E-005  0.2516798E+04  0.7818608E-02  0.8397026E-01
         -2   -1    0    0    0  501 -0.00000000000E+00  0.00000000000E+00  0.69512153306E+03  0.69512153306E+03  0.00000000000E+00 0.  1.
          2   -1    0    0  501    0  0.00000000000E+00 -0.00000000000E+00 -0.22781160718E+04  0.22781160718E+04  0.00000000000E+00 0. -1.
         23    2    1    2    0    0 -0.11805112978E+04  0.32973250284E+03 -0.46512501453E+03  0.13143335327E+04  0.93813156106E+02 0.  0.
         13    1    3    3    0    0 -0.39618669941E+03  0.68520385166E+02 -0.17044836634E+03  0.43670538073E+03  0.00000000000E+00 0. -1.
        -13    1    3    3    0    0 -0.78432459840E+03  0.26121211767E+03 -0.29467664818E+03  0.87762815193E+03  0.00000000000E+00 0.  1.
         22    1    1    2    0    0  0.11805112978E+04 -0.32973250284E+03 -0.11178695243E+04  0.16589040723E+04  0.00000000000E+00 0.  1.
<mgrwt>
<rscale>  0 0.25167976E+04</rscale>
<asrwt>0</asrwt>
<pdfrwt beam="1">  1        2 0.35047939E+00 0.25167976E+04</pdfrwt>
<pdfrwt beam="2">  1       -2 0.10694178E+00 0.25167976E+04</pdfrwt>
<totfact> 0.29219854E+00</totfact>
</mgrwt>
</event>
<event>
 6    1  0.1885829E-005  0.1118410E+04  0.7818608E-02  0.9187432E-01
          1   -1    0    0  501    0  0.00000000000E+00  0.00000000000E+00  0.10722382110E+04  0.10722382110E+04  0.00000000000E+00 0. -1.
         -1   -1    0    0    0  501 -0.00000000000E+00 -0.00000000000E+00 -0.29164237436E+03  0.29164237436E+03  0.00000000000E+00 0.  1.
         23    2    1    2    0    0 -0.26837284677E+03  0.26488598128E+03  0.89031608711E+03  0.97116300065E+03  0.91138745383E+02 0.  0.
         13    1    3    3    0    0 -0.15869048919E+03  0.14283187399E+03  0.61078687101E+03  0.64702721534E+03  0.00000000000E+00 0.  1.
        -13    1    3    3    0    0 -0.10968235758E+03  0.12205410728E+03  0.27952921609E+03  0.32413578531E+03  0.00000000000E+00 0. -1.
         22    1    1    2    0    0  0.26837284677E+03 -0.26488598128E+03 -0.10972025049E+03  0.39271758469E+03  0.00000000000E+00 0.  1.
<mgrwt>
<rscale>  0 0.11184098E+04</rscale>
<asrwt>0</asrwt>
<pdfrwt beam="1">  1        1 0.16495972E+00 0.11184098E+04</pdfrwt>
<pdfrwt beam="2">  1       -1 0.44868058E-01 0.11184098E+04</pdfrwt>
<totfact> 0.65188905E+01</totfact>
</mgrwt>
</event>
<event>
 6    1  0.1885829E-005  0.1030270E+04  0.7818608E-02  0.9275954E-01
         -2   -1    0    0    0  501 -0.00000000000E+00  0.00000000000E+00  0.15753438882E+03  0.15753438882E+03  0.00000000000E+00 0.  1.
          2   -1    0    0  501    0  0.00000000000E+00 -0.00000000000E+00 -0.16844832058E+04  0.16844832058E+04  0.00000000000E+00 0. -1.
         23    2    1    2    0    0  0.40301989422E+03 -0.40153670561E+02 -0.13266622189E+04  0.13901856859E+04  0.92445907288E+02 0.  0.
         13    1    3    3    0    0  0.10549855440E+03  0.29952382579E+02 -0.36349846030E+03  0.37968173625E+03  0.00000000000E+00 0. -1.
        -13    1    3    3    0    0  0.29752133982E+03 -0.70106053140E+02 -0.96316375861E+03  0.10105039496E+04  0.00000000000E+00 0.  1.
         22    1    1    2    0    0 -0.40301989422E+03  0.40153670561E+02 -0.20028659812E+03  0.45183190877E+03  0.00000000000E+00 0.  1.
<mgrwt>
<rscale>  0 0.10302699E+04</rscale>
<asrwt>0</asrwt>
<pdfrwt beam="1">  1        2 0.25915127E+00 0.10302699E+04</pdfrwt>
<pdfrwt beam="2">  1       -2 0.24236059E-01 0.10302699E+04</pdfrwt>
<totfact> 0.15134984E+02</totfact>
</mgrwt>
</event>
<event>
 6    1  0.1885829E-005  0.1826510E+04  0.7818608E-02  0.8692327E-01
         -2   -1    0    0    0  501 -0.00000000000E+00  0.00000000000E+00  0.49933988199E+03  0.49933988199E+03  0.00000000000E+00 0.  1.
          2   -1    0    0  501    0  0.00000000000E+00 -0.00000000000E+00 -0.16702744206E+04  0.16702744206E+04  0.00000000000E+00 0. -1.
         23    2    1    2    0    0 -0.12586684686E+03 -0.86316725647E+03 -0.27519490619E+03  0.91931447261E+03  0.92231704881E+02 0.  0.
         11    1    3    3    0    0 -0.31488206548E+02 -0.22081179545E+03 -0.28873442449E+02  0.22490671809E+03  0.00000000000E+00 0. -1.
        -11    1    3    3    0    0 -0.94378640313E+02 -0.64235546102E+03 -0.24632146374E+03  0.69440775453E+03  0.00000000000E+00 0.  1.
         22    1    1    2    0    0  0.12586684686E+03  0.86316725647E+03 -0.89573963246E+03  0.12502998300E+04  0.00000000000E+00 0. -1.
<mgrwt>
<rscale>  0 0.18265099E+04</rscale>
<asrwt>0</asrwt>
<pdfrwt beam="1">  1        2 0.25696529E+00 0.18265099E+04</pdfrwt>
<pdfrwt beam="2">  1       -2 0.76821522E-01 0.18265099E+04</pdfrwt>
<totfact> 0.14527912E+01</totfact>
</mgrwt>
</event>
<event>
 6    1  0.1885829E-005  0.2756848E+04  0.7818608E-02  0.8316792E-01
         -2   -1    0    0    0  501 -0.00000000000E+00  0.00000000000E+00  0.16569218213E+04  0.16569218213E+04  0.00000000000E+00 0.  1.
          2   -1    0    0  501    0  0.00000000000E+00 -0.00000000000E+00 -0.11467360998E+04  0.11467360998E+04  0.00000000000E+00 0. -1.
         23    2    1    2    0    0 -0.53153233718E+03 -0.12513955866E+04  0.32806039500E+02  0.13626829386E+04  0.85504475104E+02 0.  0.
         13    1    3    3    0    0 -0.13626121705E+03 -0.25531245227E+03  0.30838996875E+02  0.29103713042E+03  0.00000000000E+00 0.  1.
        -13    1    3    3    0    0 -0.39527112013E+03 -0.99608313429E+03  0.19670426254E+01  0.10716458081E+04  0.00000000000E+00 0. -1.
         22    1    1    2    0    0  0.53153233718E+03  0.12513955866E+04  0.47737968206E+03  0.14409749826E+04  0.00000000000E+00 0. -1.
<mgrwt>
<rscale>  0 0.27568475E+04</rscale>
<asrwt>0</asrwt>
<pdfrwt beam="1">  1        2 0.17642094E+00 0.27568475E+04</pdfrwt>
<pdfrwt beam="2">  1       -2 0.25491105E+00 0.27568475E+04</pdfrwt>
<totfact> 0.10676140E+00</totfact>
</mgrwt>
</event>
<event>
 6    1  0.1885829E-005  0.4545426E+04  0.7818608E-02  0.7902732E-01
          2   -1    0    0  501    0  0.00000000000E+00  0.00000000000E+00  0.23865748850E+04  0.23865748850E+04  0.00000000000E+00 0. -1.
         -2   -1    0    0    0  501 -0.00000000000E+00 -0.00000000000E+00 -0.21642832182E+04  0.21642832182E+04  0.00000000000E+00 0.  1.
         23    2    1    2    0    0 -0.31191296388E+03 -0.82978683957E+03  0.22053810801E+04  0.23786519627E+04  0.91888818313E+02 0.  0.
         11    1    3    3    0    0 -0.23177822791E+03 -0.62529744301E+03  0.17588708886E+04  0.18810488675E+04  0.00000000000E+00 0. -1.
        -11    1    3    3    0    0 -0.80134735970E+02 -0.20448939656E+03  0.44651019147E+03  0.49760309515E+03  0.00000000000E+00 0.  1.
         22    1    1    2    0    0  0.31191296388E+03  0.82978683957E+03 -0.19830894132E+04  0.21722061406E+04  0.00000000000E+00 0.  1.
<mgrwt>
<rscale>  0 0.45454258E+04</rscale>
<asrwt>0</asrwt>
<pdfrwt beam="1">  1        2 0.36716537E+00 0.45454258E+04</pdfrwt>
<pdfrwt beam="2">  1       -2 0.33296665E+00 0.45454258E+04</pdfrwt>
<totfact> 0.60776002E-02</totfact>
</mgrwt>
</event>
<event>
 6    1  0.1885829E-005  0.2532420E+04  0.7818608E-02  0.8391526E-01
         -2   -1    0    0    0  501 -0.00000000000E+00  0.00000000000E+00  0.67475763348E+03  0.67475763348E+03  0.00000000000E+00 0.  1.
          2   -1    0    0  501    0  0.00000000000E+00 -0.00000000000E+00 -0.23760941066E+04  0.23760941066E+04  0.00000000000E+00 0. -1.
         23    2    1    2    0    0 -0.14782416156E+03 -0.12510204745E+04 -0.98547702216E+03  0.16019352608E+04  0.90152139738E+02 0.  0.
         13    1    3    3    0    0 -0.40869123093E+02 -0.65514288561E+03 -0.47879301425E+03  0.81248091441E+03  0.00000000000E+00 0. -1.
        -13    1    3    3    0    0 -0.10695503847E+03 -0.59587758890E+03 -0.50668400791E+03  0.78945434642E+03  0.00000000000E+00 0.  1.
         22    1    1    2    0    0  0.14782416156E+03  0.12510204745E+04 -0.71585945101E+03  0.14489164793E+04  0.00000000000E+00 0.  1.
<mgrwt>
<rscale>  0 0.25324199E+04</rscale>
<asrwt>0</asrwt>
<pdfrwt beam="1">  1        2 0.36555294E+00 0.25324199E+04</pdfrwt>
<pdfrwt beam="2">  1       -2 0.10380887E+00 0.25324199E+04</pdfrwt>
<totfact> 0.27566481E+00</totfact>
</mgrwt>
</event>
<event>
 6    1  0.1885829E-005  0.4992411E+04  0.7818608E-02  0.7829679E-01
          2   -1    0    0  501    0  0.00000000000E+00  0.00000000000E+00  0.37879949349E+04  0.37879949349E+04  0.00000000000E+00 0. -1.
         -2   -1    0    0    0  501 -0.00000000000E+00 -0.00000000000E+00 -0.16449445200E+04  0.16449445200E+04  0.00000000000E+00 0.  1.
         23    2    1    2    0    0 -0.13203297084E+04  0.14776101874E+04 -0.57876830519E+03  0.20662051990E+04  0.87342821769E+02 0.  0.
         13    1    3    3    0    0 -0.60397095892E+03  0.61914323982E+03 -0.27443418005E+03  0.90743230591E+03  0.00000000000E+00 0. -1.
        -13    1    3    3    0    0 -0.71635874948E+03  0.85846694757E+03 -0.30433412513E+03  0.11587728931E+04  0.00000000000E+00 0.  1.
         22    1    1    2    0    0  0.13203297084E+04 -0.14776101874E+04  0.27218187201E+04  0.33667342559E+04  0.00000000000E+00 0.  1.
<mgrwt>
<rscale>  0 0.49924108E+04</rscale>
<asrwt>0</asrwt>
<pdfrwt beam="1">  1        2 0.58276845E+00 0.49924108E+04</pdfrwt>
<pdfrwt beam="2">  1       -2 0.25306839E+00 0.49924108E+04</pdfrwt>
<totfact> 0.22405082E-02</totfact>
</mgrwt>
</event>
<event>
 6    1  0.1885829E-005  0.2457996E+04  0.7818608E-02  0.8418104E-01
         -2   -1    0    0    0  501 -0.00000000000E+00  0.00000000000E+00  0.81246228664E+03  0.81246228664E+03  0.00000000000E+00 0.  1.
          2   -1    0    0  501    0  0.00000000000E+00 -0.00000000000E+00 -0.18590845656E+04  0.18590845656E+04  0.00000000000E+00 0. -1.
         23    2    1    2    0    0  0.41986747758E+02 -0.93884764910E+03 -0.13819425036E+04  0.16737305123E+04  0.91711227790E+02 0.  0.
         11    1    3    3    0    0  0.53203592264E+02 -0.34256234527E+03 -0.54897459213E+03  0.64927088756E+03  0.00000000000E+00 0. -1.
        -11    1    3    3    0    0 -0.11216844506E+02 -0.59628530383E+03 -0.83296791147E+03  0.10244596247E+04  0.00000000000E+00 0.  1.
         22    1    1    2    0    0 -0.41986747758E+02  0.93884764910E+03  0.33532022464E+03  0.99781633995E+03  0.00000000000E+00 0.  1.
<mgrwt>
<rscale>  0 0.24579960E+04</rscale>
<asrwt>0</asrwt>
<pdfrwt beam="1">  1        2 0.28601301E+00 0.24579960E+04</pdfrwt>
<pdfrwt beam="2">  1       -2 0.12499420E+00 0.24579960E+04</pdfrwt>
<totfact> 0.34340873E+00</totfact>
</mgrwt>
</event>
<event>
 6    1  0.1885829E-005  0.3016407E+04  0.7818608E-02  0.8239061E-01
          1   -1    0    0  501    0  0.00000000000E+00  0.00000000000E+00  0.23840826833E+04  0.23840826833E+04  0.00000000000E+00 0. -1.
         -1   -1    0    0    0  501 -0.00000000000E+00 -0.00000000000E+00 -0.95411008639E+03  0.95411008639E+03  0.00000000000E+00 0.  1.
         23    2    1    2    0    0 -0.58143981790E+03 -0.13125690471E+04  0.12222998704E+04  0.18876626161E+04  0.91342288358E+02 0.  0.
         11    1    3    3    0    0 -0.55558133673E+03 -0.11912331199E+04  0.11184692692E+04  0.17258854174E+04  0.00000000000E+00 0. -1.
        -11    1    3    3    0    0 -0.25858481163E+02 -0.12133592715E+03  0.10383060120E+03  0.16177719867E+03  0.00000000000E+00 0.  1.
         22    1    1    2    0    0  0.58143981790E+03  0.13125690471E+04  0.20767272643E+03  0.14505301536E+04  0.00000000000E+00 0.  1.
<mgrwt>
<rscale>  0 0.30164067E+04</rscale>
<asrwt>0</asrwt>
<pdfrwt beam="1">  1        1 0.36678195E+00 0.30164067E+04</pdfrwt>
<pdfrwt beam="2">  1       -1 0.14678617E+00 0.30164067E+04</pdfrwt>
<totfact> 0.51192796E-01</totfact>
</mgrwt>
</event>
<event>
 6    1  0.1885829E-005  0.4138825E+04  0.7818608E-02  0.7977112E-01
         -2   -1    0    0    0  501 -0.00000000000E+00  0.00000000000E+00  0.14213755454E+04  0.14213755454E+04  0.00000000000E+00 0.  1.
          2   -1    0    0  501    0  0.00000000000E+00 -0.00000000000E+00 -0.30129046844E+04  0.30129046844E+04  0.00000000000E+00 0. -1.
         23    2    1    2    0    0 -0.12166497246E+04  0.13044874138E+04 -0.19178805405E+04  0.26208775711E+04  0.93858991384E+02 0.  0.
         11    1    3    3    0    0 -0.10235378183E+04  0.11031907952E+04 -0.16659202840E+04  0.22449832937E+04  0.00000000000E+00 0. -1.
        -11    1    3    3    0    0 -0.19311190625E+03  0.20129661863E+03 -0.25196025648E+03  0.37589427749E+03  0.00000000000E+00 0.  1.
         22    1    1    2    0    0  0.12166497246E+04 -0.13044874138E+04  0.32635140142E+03  0.18134026586E+04  0.00000000000E+00 0.  1.
<mgrwt>
<rscale>  0 0.41388255E+04</rscale>
<asrwt>0</asrwt>
<pdfrwt beam="1">  1        2 0.46352379E+00 0.41388255E+04</pdfrwt>
<pdfrwt beam="2">  1       -2 0.21867316E+00 0.41388255E+04</pdfrwt>
<totfact> 0.13426268E-01</totfact>
</mgrwt>
</event>
<event>
 6    1  0.1885829E-005  0.2476998E+04  0.7818608E-02  0.8411226E-01
          2   -1    0    0  501    0  0.00000000000E+00  0.00000000000E+00  0.11756756510E+04  0.11756756510E+04  0.00000000000E+00 0. -1.
         -2   -1    0    0    0  501 -0.00000000000E+00 -0.00000000000E+00 -0.13046789500E+04  0.13046789500E+04  0.00000000000E+00 0.  1.
         23    2    1    2    0    0  0.11198605871E+03  0.54450747621E+03 -0.11709269552E+04  0.12994082963E+04  0.91447893261E+02 0.  0.
         13    1    3    3    0    0  0.54836042039E+02  0.35790839091E+03 -0.84838380658E+03  0.92242099448E+03  0.00000000000E+00 0. -1.
        -13    1    3    3    0    0  0.57150016669E+02  0.18659908530E+03 -0.32254314862E+03  0.37698730186E+03  0.00000000000E+00 0.  1.
         22    1    1    2    0    0 -0.11198605871E+03 -0.54450747621E+03  0.10419236563E+04  0.11809463046E+04  0.00000000000E+00 0. -1.
<mgrwt>
<rscale>  0 0.24769976E+04</rscale>
<asrwt>0</asrwt>
<pdfrwt beam="1">  1        2 0.18087318E+00 0.24769976E+04</pdfrwt>
<pdfrwt beam="2">  1       -2 0.20071984E+00 0.24769976E+04</pdfrwt>
<totfact> 0.23027123E+00</totfact>
</mgrwt>
</event>
<event>
 6    1  0.1885829E-005  0.3594248E+04  0.7818608E-02  0.8091811E-01
         -2   -1    0    0    0  501 -0.00000000000E+00  0.00000000000E+00  0.18936182813E+04  0.18936182813E+04  0.00000000000E+00 0.  1.
          2   -1    0    0  501    0  0.00000000000E+00 -0.00000000000E+00 -0.17055465020E+04  0.17055465020E+04  0.00000000000E+00 0. -1.
         23    2    1    2    0    0  0.72850539973E+03  0.12090766121E+04  0.12058825335E+04  0.18588989695E+04  0.93628642635E+02 0.  0.
         13    1    3    3    0    0  0.20219915978E+03  0.26616385514E+03  0.30794809468E+03  0.45448842341E+03  0.00000000000E+00 0.  1.
        -13    1    3    3    0    0  0.52630623995E+03  0.94291275699E+03  0.89793443878E+03  0.14044105460E+04  0.00000000000E+00 0. -1.
         22    1    1    2    0    0 -0.72850539973E+03 -0.12090766121E+04 -0.10178107542E+04  0.17402658138E+04  0.00000000000E+00 0. -1.
<mgrwt>
<rscale>  0 0.35942476E+04</rscale>
<asrwt>0</asrwt>
<pdfrwt beam="1">  1        2 0.26239177E+00 0.35942476E+04</pdfrwt>
<pdfrwt beam="2">  1       -2 0.29132589E+00 0.35942476E+04</pdfrwt>
<totfact> 0.28514463E-01</totfact>
</mgrwt>
</event>
<event>
 6    1  0.1885829E-005  0.2539127E+04  0.7818608E-02  0.8389177E-01
          2   -1    0    0  501    0  0.00000000000E+00  0.00000000000E+00  0.23229437679E+04  0.23229437679E+04  0.00000000000E+00 0. -1.
         -2   -1    0    0    0  501 -0.00000000000E+00 -0.00000000000E+00 -0.69385731060E+03  0.69385731060E+03  0.00000000000E+00 0.  1.
         23    2    1    2    0    0 -0.65474946161E+03 -0.10721124560E+04  0.10196874958E+04  0.16205600284E+04  0.91270151462E+02 0.  0.
         11    1    3    3    0    0 -0.45973831114E+03 -0.71597024038E+03  0.73858951653E+03  0.11267152141E+04  0.00000000000E+00 0. -1.
        -11    1    3    3    0    0 -0.19501115047E+03 -0.35614221566E+03  0.28109797926E+03  0.49384481422E+03  0.00000000000E+00 0.  1.
         22    1    1    2    0    0  0.65474946161E+03  0.10721124560E+04  0.60939896154E+03  0.13962410502E+04  0.00000000000E+00 0. -1.
<mgrwt>
<rscale>  0 0.25391270E+04</rscale>
<asrwt>0</asrwt>
<pdfrwt beam="1">  1        2 0.35737596E+00 0.25391270E+04</pdfrwt>
<pdfrwt beam="2">  1       -2 0.10674728E+00 0.25391270E+04</pdfrwt>
<totfact> 0.27626525E+00</totfact>
</mgrwt>
</event>
<event>
 6    1  0.1885829E-005  0.5133684E+04  0.7818608E-02  0.7808210E-01
          2   -1    0    0  501    0  0.00000000000E+00  0.00000000000E+00  0.39633299676E+04  0.39633299676E+04  0.00000000000E+00 0. -1.
         -2   -1    0    0    0  501 -0.00000000000E+00 -0.00000000000E+00 -0.16624099115E+04  0.16624099115E+04  0.00000000000E+00 0.  1.
         23    2    1    2    0    0 -0.39196921629E+03  0.13220019099E+02  0.39297529496E+04  0.39503559737E+04  0.92409083888E+02 0.  0.
         11    1    3    3    0    0 -0.12674284407E+03 -0.19524576127E+02  0.16545277991E+04  0.16594900408E+04  0.00000000000E+00 0. -1.
        -11    1    3    3    0    0 -0.26522637222E+03  0.32744595226E+02  0.22752251505E+04  0.22908659329E+04  0.00000000000E+00 0.  1.
         22    1    1    2    0    0  0.39196921629E+03 -0.13220019099E+02 -0.16288328935E+04  0.16753839054E+04  0.00000000000E+00 0.  1.
<mgrwt>
<rscale>  0 0.51336845E+04</rscale>
<asrwt>0</asrwt>
<pdfrwt beam="1">  1        2 0.60974307E+00 0.51336845E+04</pdfrwt>
<pdfrwt beam="2">  1       -2 0.25575537E+00 0.51336845E+04</pdfrwt>
<totfact> 0.15555917E-02</totfact>
</mgrwt>
</event>
<event>
 6    1  0.2191836E-005  0.1528302E+04  0.7818608E-02  0.8865847E-01
          2   -1    0    0  501    0  0.00000000000E+00  0.00000000000E+00  0.20634432634E+04  0.20634432634E+04  0.00000000000E+00 0.  1.
         -2   -1    0    0    0  501 -0.00000000000E+00 -0.00000000000E+00 -0.28298675322E+03  0.28298675322E+03  0.00000000000E+00 0. -1.
         23    2    1    2    0    0 -0.56534125859E+03  0.46657363969E+03  0.12098070666E+04  0.14174830390E+04  0.91232271338E+02 0.  0.
         13    1    3    3    0    0 -0.26461990791E+03  0.21059429323E+03  0.47228847148E+03  0.58088729742E+03  0.00000000000E+00 0. -1.
        -13    1    3    3    0    0 -0.30072135068E+03  0.25597934646E+03  0.73751859516E+03  0.83659574155E+03  0.00000000000E+00 0.  1.
         22    1    1    2    0    0  0.56534125859E+03 -0.46657363969E+03  0.57064944357E+03  0.92894697769E+03  0.00000000000E+00 0.  1.
<mgrwt>
<rscale>  0 0.15283025E+04</rscale>
<asrwt>0</asrwt>
<pdfrwt beam="1">  1        2 0.31745280E+00 0.15283025E+04</pdfrwt>
<pdfrwt beam="2">  1       -2 0.43536425E-01 0.15283025E+04</pdfrwt>
<totfact> 0.29721205E+01</totfact>
</mgrwt>
</event>
<event>
 6    1  0.1885829E-005  0.6517968E+04  0.7818608E-02  0.7629299E-01
         -2   -1    0    0    0  501 -0.00000000000E+00  0.00000000000E+00  0.45151312168E+04  0.45151312168E+04  0.00000000000E+00 0.  1.
          2   -1    0    0  501    0  0.00000000000E+00 -0.00000000000E+00 -0.23523076148E+04  0.23523076148E+04  0.00000000000E+00 0. -1.
         23    2    1    2    0    0 -0.26699499232E+04 -0.44478397158E+03 -0.82975895259E+03  0.28323408502E+04  0.84790320865E+02 0.  0.
         11    1    3    3    0    0 -0.18047499758E+04 -0.27886381864E+03 -0.52468851688E+03  0.19000488268E+04  0.00000000000E+00 0. -1.
        -11    1    3    3    0    0 -0.86519994737E+03 -0.16592015294E+03 -0.30507043571E+03  0.93229202336E+03  0.00000000000E+00 0.  1.
         22    1    1    2    0    0  0.26699499232E+04  0.44478397158E+03  0.29925825545E+04  0.40350979814E+04  0.00000000000E+00 0.  1.
<mgrwt>
<rscale>  0 0.65179683E+04</rscale>
<asrwt>0</asrwt>
<pdfrwt beam="1">  1        2 0.36189348E+00 0.65179683E+04</pdfrwt>
<pdfrwt beam="2">  1       -2 0.69463557E+00 0.65179683E+04</pdfrwt>
<totfact> 0.66574071E-04</totfact>
</mgrwt>
</event>
<event>
 6    1  0.1885829E-005  0.6295100E+04  0.7818608E-02  0.7654852E-01
          2   -1    0    0  501    0  0.00000000000E+00  0.00000000000E+00  0.24269739472E+04  0.24269739472E+04  0.00000000000E+00 0. -1.
         -2   -1    0    0    0  501 -0.00000000000E+00 -0.00000000000E+00 -0.40820676806E+04  0.40820676806E+04  0.00000000000E+00 0.  1.
         23    2    1    2    0    0 -0.20601767102E+04  0.76879688802E+03 -0.31553491465E+04  0.38470605916E+04  0.90940788155E+02 0.  0.
         13    1    3    3    0    0 -0.54095508291E+03  0.16399239688E+03 -0.77961076086E+03  0.96297395936E+03  0.00000000000E+00 0. -1.
        -13    1    3    3    0    0 -0.15192216272E+04  0.60480449113E+03 -0.23757383857E+04  0.28840866323E+04  0.00000000000E+00 0.  1.
         22    1    1    2    0    0  0.20601767102E+04 -0.76879688802E+03  0.15002554131E+04  0.26619810361E+04  0.00000000000E+00 0. -1.
<mgrwt>
<rscale>  0 0.62951003E+04</rscale>
<asrwt>0</asrwt>
<pdfrwt beam="1">  1        2 0.37338061E+00 0.62951003E+04</pdfrwt>
<pdfrwt beam="2">  1       -2 0.62801041E+00 0.62951003E+04</pdfrwt>
<totfact> 0.10332178E-03</totfact>
</mgrwt>
</event>
<event>
 6    1  0.1885829E-005  0.2030821E+04  0.7818608E-02  0.8592345E-01
         -2   -1    0    0    0  501 -0.00000000000E+00  0.00000000000E+00  0.86373091105E+03  0.86373091105E+03  0.00000000000E+00 0.  1.
          2   -1    0    0  501    0  0.00000000000E+00 -0.00000000000E+00 -0.11937261354E+04  0.11937261354E+04  0.00000000000E+00 0. -1.
         23    2    1    2    0    0 -0.73210136414E+03 -0.46722777989E+03  0.36394030147E+03  0.94578230999E+03  0.88189734017E+02 0.  0.
         13    1    3    3    0    0 -0.29527165931E+03 -0.18060551663E+03  0.99157325261E+02  0.36004983069E+03  0.00000000000E+00 0. -1.
        -13    1    3    3    0    0 -0.43682970483E+03 -0.28662226325E+03  0.26478297621E+03  0.58573247930E+03  0.00000000000E+00 0.  1.
         22    1    1    2    0    0  0.73210136414E+03  0.46722777989E+03 -0.69393552581E+03  0.11116747364E+04  0.00000000000E+00 0. -1.
<mgrwt>
<rscale>  0 0.20308207E+04</rscale>
<asrwt>0</asrwt>
<pdfrwt beam="1">  1        2 0.18365017E+00 0.20308207E+04</pdfrwt>
<pdfrwt beam="2">  1       -2 0.13288168E+00 0.20308207E+04</pdfrwt>
<totfact> 0.72739377E+00</totfact>
</mgrwt>
</event>
<event>
 6    1  0.1885829E-005  0.1843757E+04  0.7818608E-02  0.8683370E-01
         -2   -1    0    0    0  501 -0.00000000000E+00  0.00000000000E+00  0.59494689625E+03  0.59494689625E+03  0.00000000000E+00 0.  1.
          2   -1    0    0  501    0  0.00000000000E+00 -0.00000000000E+00 -0.14284633539E+04  0.14284633539E+04  0.00000000000E+00 0. -1.
         23    2    1    2    0    0 -0.58897927740E+03 -0.27188045443E+02  0.35664874252E+03  0.69520507673E+03  0.92065162499E+02 0.  0.
         13    1    3    3    0    0 -0.26356424462E+03 -0.12943218847E+02  0.21339553806E+03  0.33936896384E+03  0.00000000000E+00 0.  1.
        -13    1    3    3    0    0 -0.32541503278E+03 -0.14244826595E+02  0.14325320445E+03  0.35583611288E+03  0.00000000000E+00 0. -1.
         22    1    1    2    0    0  0.58897927740E+03  0.27188045443E+02 -0.11901652002E+04  0.13282051735E+04  0.00000000000E+00 0. -1.
<mgrwt>
<rscale>  0 0.18437569E+04</rscale>
<asrwt>0</asrwt>
<pdfrwt beam="1">  1        2 0.21976359E+00 0.18437569E+04</pdfrwt>
<pdfrwt beam="2">  1       -2 0.91530291E-01 0.18437569E+04</pdfrwt>
<totfact> 0.13328622E+01</totfact>
</mgrwt>
</event>
<event>
 6    1  0.1885829E-005  0.1743612E+04  0.7818608E-02  0.8736874E-01
          2   -1    0    0  501    0  0.00000000000E+00  0.00000000000E+00  0.65957082402E+03  0.65957082402E+03  0.00000000000E+00 0. -1.
         -2   -1    0    0    0  501 -0.00000000000E+00 -0.00000000000E+00 -0.11523337167E+04  0.11523337167E+04  0.00000000000E+00 0.  1.
         23    2    1    2    0    0  0.20081419393E+03  0.81636477291E+03 -0.16854793130E+02  0.84584745018E+03  0.91629918712E+02 0.  0.
         11    1    3    3    0    0  0.16819362425E+03  0.76268026075E+03 -0.78487931127E+00  0.78100633250E+03  0.00000000000E+00 0. -1.
        -11    1    3    3    0    0  0.32620569680E+02  0.53684512158E+02 -0.16069913819E+02  0.64841117680E+02  0.00000000000E+00 0.  1.
         22    1    1    2    0    0 -0.20081419393E+03 -0.81636477291E+03 -0.47590809952E+03  0.96605709050E+03  0.00000000000E+00 0.  1.
<mgrwt>
<rscale>  0 0.17436120E+04</rscale>
<asrwt>0</asrwt>
<pdfrwt beam="1">  1        2 0.10147243E+00 0.17436120E+04</pdfrwt>
<pdfrwt beam="2">  1       -2 0.17728211E+00 0.17436120E+04</pdfrwt>
<totfact> 0.79232293E+00</totfact>
</mgrwt>
</event>
<event>
 6    1  0.1885829E-005  0.1124102E+04  0.7818608E-02  0.9182013E-01
          2   -1    0    0  501    0  0.00000000000E+00  0.00000000000E+00  0.22030185941E+04  0.22030185941E+04  0.00000000000E+00 0. -1.
         -2   -1    0    0    0  501 -0.00000000000E+00 -0.00000000000E+00 -0.14339486782E+03  0.14339486782E+03  0.00000000000E+00 0.  1.
         23    2    1    2    0    0 -0.15560942072E+03 -0.36373327726E+03  0.21411970908E+03  0.45898100849E+03  0.91105035700E+02 0.  0.
         11    1    3    3    0    0 -0.51807900883E+02 -0.23477559617E+03  0.12820550255E+03  0.27247071408E+03  0.00000000000E+00 0.  1.
        -11    1    3    3    0    0 -0.10380151984E+03 -0.12895768110E+03  0.85914206530E+02  0.18651029440E+03  0.00000000000E+00 0. -1.
         22    1    1    2    0    0  0.15560942072E+03  0.36373327726E+03  0.18455040172E+04  0.18874324534E+04  0.00000000000E+00 0. -1.
<mgrwt>
<rscale>  0 0.11241024E+04</rscale>
<asrwt>0</asrwt>
<pdfrwt beam="1">  1        2 0.33892591E+00 0.11241024E+04</pdfrwt>
<pdfrwt beam="2">  1       -2 0.22060751E-01 0.11241024E+04</pdfrwt>
<totfact> 0.91994534E+01</totfact>
</mgrwt>
</event>
<event>
 6    1  0.1885829E-005  0.3962897E+04  0.7818608E-02  0.8012074E-01
         -2   -1    0    0    0  501 -0.00000000000E+00  0.00000000000E+00  0.17866212190E+04  0.17866212190E+04  0.00000000000E+00 0.  1.
          2   -1    0    0  501    0  0.00000000000E+00 -0.00000000000E+00 -0.21975212195E+04  0.21975212195E+04  0.00000000000E+00 0. -1.
         23    2    1    2    0    0 -0.14530914532E+04  0.55046656889E+02  0.11459347511E+04  0.18538280605E+04  0.94905839581E+02 0.  0.
         13    1    3    3    0    0 -0.88682227284E+03  0.56882769607E+02  0.64863495707E+03  0.11001893931E+04  0.00000000000E+00 0. -1.
        -13    1    3    3    0    0 -0.56626918034E+03 -0.18361127185E+01  0.49729979400E+03  0.75363866742E+03  0.00000000000E+00 0.  1.
         22    1    1    2    0    0  0.14530914532E+04 -0.55046656889E+02 -0.15568347515E+04  0.21303143781E+04  0.00000000000E+00 0. -1.
<mgrwt>
<rscale>  0 0.39628969E+04</rscale>
<asrwt>0</asrwt>
<pdfrwt beam="1">  1        2 0.33808019E+00 0.39628969E+04</pdfrwt>
<pdfrwt beam="2">  1       -2 0.27486480E+00 0.39628969E+04</pdfrwt>
<totfact> 0.18554522E-01</totfact>
</mgrwt>
</event>
<event>
 6    1  0.1885829E-005  0.1548159E+04  0.7818608E-02  0.8853045E-01
         -2   -1    0    0    0  501 -0.00000000000E+00  0.00000000000E+00  0.42973044516E+03  0.42973044516E+03  0.00000000000E+00 0.  1.
          2   -1    0    0  501    0  0.00000000000E+00 -0.00000000000E+00 -0.13943599821E+04  0.13943599821E+04  0.00000000000E+00 0. -1.
         23    2    1    2    0    0 -0.56073639331E+03 -0.49040294972E+03 -0.72030542228E+03  0.10401168123E+04  0.89903982300E+02 0.  0.
         11    1    3    3    0    0 -0.38043789310E+03 -0.35446597040E+03 -0.44786970791E+03  0.68626991042E+03  0.00000000000E+00 0.  1.
        -11    1    3    3    0    0 -0.18029850020E+03 -0.13593697932E+03 -0.27243571437E+03  0.35384690191E+03  0.00000000000E+00 0. -1.
         22    1    1    2    0    0  0.56073639331E+03  0.49040294972E+03 -0.24432411462E+03  0.78397361490E+03  0.00000000000E+00 0.  1.
<mgrwt>
<rscale>  0 0.15481588E+04</rscale>
<asrwt>0</asrwt>
<pdfrwt beam="1">  1        2 0.21451692E+00 0.15481588E+04</pdfrwt>
<pdfrwt beam="2">  1       -2 0.66112376E-01 0.15481588E+04</pdfrwt>
<totfact> 0.29538253E+01</totfact>
</mgrwt>
</event>
<event>
 6    1  0.1885829E-005  0.2058564E+04  0.7818608E-02  0.8579719E-01
          1   -1    0    0  501    0  0.00000000000E+00  0.00000000000E+00  0.12315891304E+04  0.12315891304E+04  0.00000000000E+00 0. -1.
         -1   -1    0    0    0  501 -0.00000000000E+00 -0.00000000000E+00 -0.86020695417E+03  0.86020695417E+03  0.00000000000E+00 0.  1.
         23    2    1    2    0    0  0.78466843644E+03 -0.66302384324E+03  0.19329876242E+03  0.10491941116E+04  0.90214746083E+02 0.  0.
         13    1    3    3    0    0  0.42521203959E+03 -0.37188316828E+03  0.15080991435E+03  0.58467597841E+03  0.00000000000E+00 0.  1.
        -13    1    3    3    0    0  0.35945639684E+03 -0.29114067496E+03  0.42488848075E+02  0.46451813319E+03  0.00000000000E+00 0. -1.
         22    1    1    2    0    0 -0.78466843644E+03  0.66302384324E+03  0.17808341384E+03  0.10426019730E+04  0.00000000000E+00 0.  1.
<mgrwt>
<rscale>  0 0.20585641E+04</rscale>
<asrwt>0</asrwt>
<pdfrwt beam="1">  1        1 0.18947525E+00 0.20585641E+04</pdfrwt>
<pdfrwt beam="2">  1       -1 0.13233953E+00 0.20585641E+04</pdfrwt>
<totfact> 0.45337579E+00</totfact>
</mgrwt>
</event>
<event>
 6    1  0.1885829E-005  0.1756991E+04  0.7818608E-02  0.8729512E-01
          2   -1    0    0  501    0  0.00000000000E+00  0.00000000000E+00  0.24819275107E+04  0.24819275107E+04  0.00000000000E+00 0. -1.
         -2   -1    0    0    0  501 -0.00000000000E+00 -0.00000000000E+00 -0.31094955868E+03  0.31094955868E+03  0.00000000000E+00 0.  1.
         23    2    1    2    0    0 -0.67923701040E+02 -0.67650668384E+03  0.20803977380E+03  0.71552269086E+03  0.80107747492E+02 0.  0.
         13    1    3    3    0    0 -0.36459828328E+02 -0.60929084988E+03  0.18694070538E+03  0.63836626333E+03  0.00000000000E+00 0.  1.
        -13    1    3    3    0    0 -0.31463872712E+02 -0.67215833964E+02  0.21099068415E+02  0.77156427532E+02  0.00000000000E+00 0. -1.
         22    1    1    2    0    0  0.67923701040E+02  0.67650668384E+03  0.19629381783E+04  0.20773543786E+04  0.00000000000E+00 0. -1.
<mgrwt>
<rscale>  0 0.17569909E+04</rscale>
<asrwt>0</asrwt>
<pdfrwt beam="1">  1        2 0.38183499E+00 0.17569909E+04</pdfrwt>
<pdfrwt beam="2">  1       -2 0.47838395E-01 0.17569909E+04</pdfrwt>
<totfact> 0.14004569E+01</totfact>
</mgrwt>
</event>
<event>
 6    1  0.1885829E-005  0.1289892E+04  0.7818608E-02  0.9037619E-01
          2   -1    0    0  501    0  0.00000000000E+00  0.00000000000E+00  0.74154925824E+03  0.74154925824E+03  0.00000000000E+00 0. -1.
         -2   -1    0    0    0  501 -0.00000000000E+00 -0.00000000000E+00 -0.56092755026E+03  0.56092755026E+03  0.00000000000E+00 0.  1.
         23    2    1    2    0    0  0.36123121038E+02  0.60101941715E+03 -0.13223721101E+03  0.62394167835E+03  0.96370733894E+02 0.  0.
         11    1    3    3    0    0 -0.22975301526E+02  0.24017853126E+03 -0.23231026025E+02  0.24239074225E+03  0.00000000000E+00 0.  1.
        -11    1    3    3    0    0  0.59098422565E+02  0.36084088589E+03 -0.10900618499E+03  0.38155093611E+03  0.00000000000E+00 0. -1.
         22    1    1    2    0    0 -0.36123121038E+02 -0.60101941715E+03  0.31285891899E+03  0.67853513015E+03  0.00000000000E+00 0. -1.
<mgrwt>
<rscale>  0 0.12898921E+04</rscale>
<asrwt>0</asrwt>
<pdfrwt beam="1">  1        2 0.11408450E+00 0.12898921E+04</pdfrwt>
<pdfrwt beam="2">  1       -2 0.86296546E-01 0.12898921E+04</pdfrwt>
<totfact> 0.43464976E+01</totfact>
</mgrwt>
</event>
<event>
 6    1  0.1885829E-005  0.1422007E+04  0.7818608E-02  0.8938041E-01
         -2   -1    0    0    0  501 -0.00000000000E+00  0.00000000000E+00  0.36785592768E+03  0.36785592768E+03  0.00000000000E+00 0.  1.
          2   -1    0    0  501    0  0.00000000000E+00 -0.00000000000E+00 -0.13742494982E+04  0.13742494982E+04  0.00000000000E+00 0. -1.
         23    2    1    2    0    0  0.51251598668E+03  0.33341308446E+03 -0.94258899488E+03  0.11273632480E+04  0.92935236055E+02 0.  0.
         13    1    3    3    0    0  0.34110622303E+03  0.19367036717E+03 -0.66962067641E+03  0.77604994477E+03  0.00000000000E+00 0.  1.
        -13    1    3    3    0    0  0.17140976365E+03  0.13974271729E+03 -0.27296831848E+03  0.35131330319E+03  0.00000000000E+00 0. -1.
         22    1    1    2    0    0 -0.51251598668E+03 -0.33341308446E+03 -0.63804575685E+02  0.61474217796E+03  0.00000000000E+00 0.  1.
<mgrwt>
<rscale>  0 0.14220068E+04</rscale>
<asrwt>0</asrwt>
<pdfrwt beam="1">  1        2 0.21142300E+00 0.14220068E+04</pdfrwt>
<pdfrwt beam="2">  1       -2 0.56593220E-01 0.14220068E+04</pdfrwt>
<totfact> 0.42609191E+01</totfact>
</mgrwt>
</event>
<event>
 6    1  0.1885829E-005  0.8867175E+03  0.7818608E-02  0.9442339E-01
         -2   -1    0    0    0  501 -0.00000000000E+00  0.00000000000E+00  0.31009782765E+03  0.31009782765E+03  0.00000000000E+00 0. -1.
          2   -1    0    0  501    0  0.00000000000E+00 -0.00000000000E+00 -0.63388698398E+03  0.63388698398E+03  0.00000000000E+00 0.  1.
         23    2    1    2    0    0  0.31620329895E+03 -0.11516250587E+03 -0.46365587686E+03  0.57955425784E+03  0.87518207285E+02 0.  0.
         11    1    3    3    0    0  0.13858311452E+03 -0.95477067551E+02 -0.24351720052E+03  0.29600975829E+03  0.00000000000E+00 0.  1.
        -11    1    3    3    0    0  0.17762018443E+03 -0.19685438318E+02 -0.22013867634E+03  0.28354449954E+03  0.00000000000E+00 0. -1.
         22    1    1    2    0    0 -0.31620329895E+03  0.11516250587E+03  0.13986672053E+03  0.36443055379E+03  0.00000000000E+00 0.  1.
<mgrwt>
<rscale>  0 0.88671749E+03</rscale>
<asrwt>0</asrwt>
<pdfrwt beam="1">  1        2 0.97521073E-01 0.88671749E+03</pdfrwt>
<pdfrwt beam="2">  1       -2 0.47707359E-01 0.88671749E+03</pdfrwt>
<totfact> 0.19380213E+02</totfact>
</mgrwt>
</event>
<event>
 6    1  0.1885829E-005  0.1716250E+04  0.7818608E-02  0.8752150E-01
         -2   -1    0    0    0  501 -0.00000000000E+00  0.00000000000E+00  0.57845224388E+03  0.57845224388E+03  0.00000000000E+00 0.  1.
          2   -1    0    0  501    0  0.00000000000E+00 -0.00000000000E+00 -0.12730158741E+04  0.12730158741E+04  0.00000000000E+00 0. -1.
         23    2    1    2    0    0 -0.37947943305E+03 -0.69879714998E+03 -0.81493976257E+01  0.80099841559E+03  0.95968495680E+02 0.  0.
         11    1    3    3    0    0 -0.13125633732E+03 -0.16333179856E+03  0.17292770999E+02  0.21024876322E+03  0.00000000000E+00 0.  1.
        -11    1    3    3    0    0 -0.24822309573E+03 -0.53546535143E+03 -0.25442168624E+02  0.59074965237E+03  0.00000000000E+00 0. -1.
         22    1    1    2    0    0  0.37947943305E+03  0.69879714998E+03 -0.68641423256E+03  0.10504697024E+04  0.00000000000E+00 0. -1.
<mgrwt>
<rscale>  0 0.17162504E+04</rscale>
<asrwt>0</asrwt>
<pdfrwt beam="1">  1        2 0.19584859E+00 0.17162504E+04</pdfrwt>
<pdfrwt beam="2">  1       -2 0.88992654E-01 0.17162504E+04</pdfrwt>
<totfact> 0.17673450E+01</totfact>
</mgrwt>
</event>
<event>
 6    1  0.1885829E-005  0.3833580E+04  0.7818608E-02  0.8038987E-01
         -2   -1    0    0    0  501 -0.00000000000E+00  0.00000000000E+00  0.10579560294E+04  0.10579560294E+04  0.00000000000E+00 0.  1.
          2   -1    0    0  501    0  0.00000000000E+00 -0.00000000000E+00 -0.34728127038E+04  0.34728127038E+04  0.00000000000E+00 0. -1.
         23    2    1    2    0    0  0.99945760748E+03  0.30139103076E+03 -0.31065273965E+04  0.32785066000E+04  0.91329069217E+02 0.  0.
         11    1    3    3    0    0  0.11815838915E+03  0.57412011195E+02 -0.46350532721E+03  0.48176211174E+03  0.00000000000E+00 0.  1.
        -11    1    3    3    0    0  0.88129921832E+03  0.24397901957E+03 -0.26430220692E+04  0.27967444883E+04  0.00000000000E+00 0. -1.
         22    1    1    2    0    0 -0.99945760748E+03 -0.30139103076E+03  0.69167072197E+03  0.12522621332E+04  0.00000000000E+00 0.  1.
<mgrwt>
<rscale>  0 0.38335796E+04</rscale>
<asrwt>0</asrwt>
<pdfrwt beam="1">  1        2 0.53427888E+00 0.38335796E+04</pdfrwt>
<pdfrwt beam="2">  1       -2 0.16276247E+00 0.38335796E+04</pdfrwt>
<totfact> 0.16296125E-01</totfact>
</mgrwt>
</event>
<event>
 6    1  0.1885829E-005  0.1074281E+04  0.7818608E-02  0.9230628E-01
          1   -1    0    0  501    0  0.00000000000E+00  0.00000000000E+00  0.12344431523E+04  0.12344431523E+04  0.00000000000E+00 0. -1.
         -1   -1    0    0    0  501 -0.00000000000E+00 -0.00000000000E+00 -0.23372470603E+03  0.23372470603E+03  0.00000000000E+00 0.  1.
         23    2    1    2    0    0  0.18438688181E+03  0.37631649329E+03  0.53933199956E+02  0.43278632096E+03  0.93715442940E+02 0.  0.
         13    1    3    3    0    0  0.69846072611E+02  0.23970713189E+03  0.49031782369E+02  0.25444468676E+03  0.00000000000E+00 0. -1.
        -13    1    3    3    0    0  0.11454080920E+03  0.13660936139E+03  0.49014175874E+01  0.17834163419E+03  0.00000000000E+00 0.  1.
         22    1    1    2    0    0 -0.18438688181E+03 -0.37631649329E+03  0.94678524628E+03  0.10353815373E+04  0.00000000000E+00 0. -1.
<mgrwt>
<rscale>  0 0.10742809E+04</rscale>
<asrwt>0</asrwt>
<pdfrwt beam="1">  1        1 0.18991433E+00 0.10742809E+04</pdfrwt>
<pdfrwt beam="2">  1       -1 0.35957648E-01 0.10742809E+04</pdfrwt>
<totfact> 0.74350494E+01</totfact>
</mgrwt>
</event>
<event>
 6    1  0.1885829E-005  0.2359322E+04  0.7818608E-02  0.8454892E-01
         -2   -1    0    0    0  501 -0.00000000000E+00  0.00000000000E+00  0.50552779305E+03  0.50552779305E+03  0.00000000000E+00 0.  1.
          2   -1    0    0  501    0  0.00000000000E+00 -0.00000000000E+00 -0.27527670613E+04  0.27527670613E+04  0.00000000000E+00 0. -1.
         23    2    1    2    0    0  0.45533017386E+03 -0.10660433760E+04 -0.14138980291E+04  0.18306283430E+04  0.91205519024E+02 0.  0.
         13    1    3    3    0    0  0.38743129434E+03 -0.88405845972E+03 -0.11225322238E+04  0.14804529582E+04  0.00000000000E+00 0. -1.
        -13    1    3    3    0    0  0.67898879529E+02 -0.18198491630E+03 -0.29136580537E+03  0.35017538483E+03  0.00000000000E+00 0.  1.
         22    1    1    2    0    0 -0.45533017386E+03  0.10660433760E+04 -0.83334123916E+03  0.14276665114E+04  0.00000000000E+00 0.  1.
<mgrwt>
<rscale>  0 0.23593222E+04</rscale>
<asrwt>0</asrwt>
<pdfrwt beam="1">  1        2 0.42350262E+00 0.23593222E+04</pdfrwt>
<pdfrwt beam="2">  1       -2 0.77773507E-01 0.23593222E+04</pdfrwt>
<totfact> 0.32814017E+00</totfact>
</mgrwt>
</event>
<event>
 6    1  0.1885829E-005  0.9969332E+03  0.7818608E-02  0.9311915E-01
          2   -1    0    0  501    0  0.00000000000E+00  0.00000000000E+00  0.70797872032E+03  0.70797872032E+03  0.00000000000E+00 0. -1.
         -2   -1    0    0    0  501 -0.00000000000E+00 -0.00000000000E+00 -0.35095537603E+03  0.35095537603E+03  0.00000000000E+00 0.  1.
         23    2    1    2    0    0  0.60808626094E+02  0.12601048429E+03  0.68360839165E+03  0.70363967714E+03  0.90620256825E+02 0.  0.
         11    1    3    3    0    0 -0.88440022928E+01 -0.74051715964E+01  0.11044819770E+03  0.11104889607E+03  0.00000000000E+00 0. -1.
        -11    1    3    3    0    0  0.69652628387E+02  0.13341565589E+03  0.57316019395E+03  0.59259078107E+03  0.00000000000E+00 0.  1.
         22    1    1    2    0    0 -0.60808626094E+02 -0.12601048429E+03 -0.32658504737E+03  0.35529441921E+03  0.00000000000E+00 0.  1.
<mgrwt>
<rscale>  0 0.99693317E+03</rscale>
<asrwt>0</asrwt>
<pdfrwt beam="1">  1        2 0.10891980E+00 0.99693317E+03</pdfrwt>
<pdfrwt beam="2">  1       -2 0.53993135E-01 0.99693317E+03</pdfrwt>
<totfact> 0.13032561E+02</totfact>
</mgrwt>
</event>
<event>
 6    1  0.1885829E-005  0.2761810E+04  0.7818608E-02  0.8315224E-01
          1   -1    0    0  501    0  0.00000000000E+00  0.00000000000E+00  0.15627576488E+04  0.15627576488E+04  0.00000000000E+00 0. -1.
         -1   -1    0    0    0  501 -0.00000000000E+00 -0.00000000000E+00 -0.12202134757E+04  0.12202134757E+04  0.00000000000E+00 0.  1.
         23    2    1    2    0    0 -0.45169341386E+03 -0.11145058890E+04  0.85233204418E+03  0.14768187634E+04  0.91506445870E+02 0.  0.
         13    1    3    3    0    0 -0.18843373525E+03 -0.38605015286E+03  0.34401049948E+03  0.55035008572E+03  0.00000000000E+00 0. -1.
        -13    1    3    3    0    0 -0.26325967860E+03 -0.72845573614E+03  0.50832154470E+03  0.92646867767E+03  0.00000000000E+00 0.  1.
         22    1    1    2    0    0  0.45169341386E+03  0.11145058890E+04 -0.50978787107E+03  0.13061523610E+04  0.00000000000E+00 0.  1.
<mgrwt>
<rscale>  0 0.27618095E+04</rscale>
<asrwt>0</asrwt>
<pdfrwt beam="1">  1        1 0.24042425E+00 0.27618095E+04</pdfrwt>
<pdfrwt beam="2">  1       -1 0.18772515E+00 0.27618095E+04</pdfrwt>
<totfact> 0.94266822E-01</totfact>
</mgrwt>
</event>
<event>
 6    1  0.1885829E-005  0.1206891E+04  0.7818608E-02  0.9106846E-01
          2   -1    0    0  501    0  0.00000000000E+00  0.00000000000E+00  0.17386670097E+04  0.17386670097E+04  0.00000000000E+00 0. -1.
         -2   -1    0    0    0  501 -0.00000000000E+00 -0.00000000000E+00 -0.20944010610E+03  0.20944010610E+03  0.00000000000E+00 0.  1.
         23    2    1    2    0    0  0.33507766494E+03  0.30455433344E+03  0.14042308402E+04  0.14783684656E+04  0.93159455760E+02 0.  0.
         13    1    3    3    0    0  0.22403229021E+03  0.25677012334E+03  0.10695624669E+04  0.11225351816E+04  0.00000000000E+00 0.  1.
        -13    1    3    3    0    0  0.11104537473E+03  0.47784210103E+02  0.33466837326E+03  0.35583328406E+03  0.00000000000E+00 0. -1.
         22    1    1    2    0    0 -0.33507766494E+03 -0.30455433344E+03  0.12499606341E+03  0.46973865013E+03  0.00000000000E+00 0.  1.
<mgrwt>
<rscale>  0 0.12068912E+04</rscale>
<asrwt>0</asrwt>
<pdfrwt beam="1">  1        2 0.26748722E+00 0.12068912E+04</pdfrwt>
<pdfrwt beam="2">  1       -2 0.32221556E-01 0.12068912E+04</pdfrwt>
<totfact> 0.82535461E+01</totfact>
</mgrwt>
</event>
<event>
 6    1  0.1885829E-005  0.3010407E+04  0.7818608E-02  0.8240765E-01
          2   -1    0    0  501    0  0.00000000000E+00  0.00000000000E+00  0.27101620403E+04  0.27101620403E+04  0.00000000000E+00 0. -1.
         -2   -1    0    0    0  501 -0.00000000000E+00 -0.00000000000E+00 -0.83597888422E+03  0.83597888422E+03  0.00000000000E+00 0.  1.
         23    2    1    2    0    0  0.13088240580E+04  0.58357540869E+03  0.40067682166E+03  0.14907087096E+04  0.89943698969E+02 0.  0.
         11    1    3    3    0    0  0.44985917564E+03  0.21713213649E+03  0.98197728829E+02  0.50907999033E+03  0.00000000000E+00 0.  1.
        -11    1    3    3    0    0  0.85896488240E+03  0.36644327219E+03  0.30247909283E+03  0.98162871929E+03  0.00000000000E+00 0. -1.
         22    1    1    2    0    0 -0.13088240580E+04 -0.58357540869E+03  0.14735063344E+04  0.20554322149E+04  0.00000000000E+00 0. -1.
<mgrwt>
<rscale>  0 0.30104074E+04</rscale>
<asrwt>0</asrwt>
<pdfrwt beam="1">  1        2 0.41694800E+00 0.30104074E+04</pdfrwt>
<pdfrwt beam="2">  1       -2 0.12861214E+00 0.30104074E+04</pdfrwt>
<totfact> 0.99913149E-01</totfact>
</mgrwt>
</event>
<event>
 6    1  0.1885829E-005  0.3678794E+04  0.7818608E-02  0.8072678E-01
         -2   -1    0    0    0  501 -0.00000000000E+00  0.00000000000E+00  0.16067831290E+04  0.16067831290E+04  0.00000000000E+00 0.  1.
          2   -1    0    0  501    0  0.00000000000E+00 -0.00000000000E+00 -0.21056868434E+04  0.21056868434E+04  0.00000000000E+00 0. -1.
         23    2    1    2    0    0  0.91252729318E+03  0.39157911573E+03 -0.18107202182E+04  0.20672031843E+04  0.92633858834E+02 0.  0.
         11    1    3    3    0    0  0.75965878654E+03  0.36183664403E+03 -0.15403424494E+04  0.17551814979E+04  0.00000000000E+00 0.  1.
        -11    1    3    3    0    0  0.15286850664E+03  0.29742471702E+02 -0.27037776877E+03  0.31202168641E+03  0.00000000000E+00 0. -1.
         22    1    1    2    0    0 -0.91252729318E+03 -0.39157911573E+03  0.13118165037E+04  0.16452667881E+04  0.00000000000E+00 0.  1.
<mgrwt>
<rscale>  0 0.36787944E+04</rscale>
<asrwt>0</asrwt>
<pdfrwt beam="1">  1        2 0.32395182E+00 0.36787944E+04</pdfrwt>
<pdfrwt beam="2">  1       -2 0.24719741E+00 0.36787944E+04</pdfrwt>
<totfact> 0.31587867E-01</totfact>
</mgrwt>
</event>
<event>
 6    1  0.1885829E-005  0.1150342E+04  0.7818608E-02  0.9157468E-01
          2   -1    0    0  501    0  0.00000000000E+00  0.00000000000E+00  0.16312330437E+04  0.16312330437E+04  0.00000000000E+00 0. -1.
         -2   -1    0    0    0  501 -0.00000000000E+00 -0.00000000000E+00 -0.20280468659E+03  0.20280468659E+03  0.00000000000E+00 0.  1.
         23    2    1    2    0    0  0.39849393062E+03 -0.13778952120E+02  0.66888741890E+02  0.41531386849E+03  0.94995964654E+02 0.  0.
         13    1    3    3    0    0  0.12764719947E+03 -0.30613854554E+02 -0.14340569403E+02  0.13204797444E+03  0.00000000000E+00 0. -1.
        -13    1    3    3    0    0  0.27084673115E+03  0.16834902434E+02  0.81229311293E+02  0.28326589405E+03  0.00000000000E+00 0.  1.
         22    1    1    2    0    0 -0.39849393062E+03  0.13778952120E+02  0.13615396153E+04  0.14187238619E+04  0.00000000000E+00 0. -1.
<mgrwt>
<rscale>  0 0.11503420E+04</rscale>
<asrwt>0</asrwt>
<pdfrwt beam="1">  1        2 0.25095892E+00 0.11503420E+04</pdfrwt>
<pdfrwt beam="2">  1       -2 0.31200722E-01 0.11503420E+04</pdfrwt>
<totfact> 0.10098696E+02</totfact>
</mgrwt>
</event>
<event>
 6    1  0.1885829E-005  0.3042113E+04  0.7818608E-02  0.8231807E-01
          2   -1    0    0  501    0  0.00000000000E+00  0.00000000000E+00  0.29898448601E+04  0.29898448601E+04  0.00000000000E+00 0. -1.
         -2   -1    0    0    0  501 -0.00000000000E+00 -0.00000000000E+00 -0.77382361377E+03  0.77382361377E+03  0.00000000000E+00 0.  1.
         23    2    1    2    0    0  0.14930045282E+04  0.53792769755E+02  0.14516295069E+04  0.20854995567E+04  0.10061805147E+03 0.  0.
         11    1    3    3    0    0  0.10023905038E+04 -0.10613419744E+02  0.96125195506E+03  0.13888501315E+04  0.00000000000E+00 0.  1.
        -11    1    3    3    0    0  0.49061402442E+03  0.64406189499E+02  0.49037755187E+03  0.69664942516E+03  0.00000000000E+00 0. -1.
         22    1    1    2    0    0 -0.14930045282E+04 -0.53792769755E+02  0.76439173935E+03  0.16781689171E+04  0.00000000000E+00 0.  1.
<mgrwt>
<rscale>  0 0.30421128E+04</rscale>
<asrwt>0</asrwt>
<pdfrwt beam="1">  1        2 0.45997613E+00 0.30421128E+04</pdfrwt>
<pdfrwt beam="2">  1       -2 0.11904979E+00 0.30421128E+04</pdfrwt>
<totfact> 0.81581894E-01</totfact>
</mgrwt>
</event>
<event>
 6    1  0.1885829E-005  0.9365244E+03  0.7818608E-02  0.9381042E-01
          2   -1    0    0  501    0  0.00000000000E+00  0.00000000000E+00  0.66439041738E+03  0.66439041738E+03  0.00000000000E+00 0. -1.
         -2   -1    0    0    0  501 -0.00000000000E+00 -0.00000000000E+00 -0.33003111203E+03  0.33003111203E+03  0.00000000000E+00 0.  1.
         23    2    1    2    0    0  0.15534571203E+03 -0.20402666809E+02 -0.29490687823E+03  0.34594293388E+03  0.90321025321E+02 0.  0.
         11    1    3    3    0    0  0.52817045126E+02 -0.14181387434E+00 -0.19252893691E+03  0.19964230993E+03  0.00000000000E+00 0. -1.
        -11    1    3    3    0    0  0.10252866690E+03 -0.20260852934E+02 -0.10237794132E+03  0.14630062394E+03  0.00000000000E+00 0.  1.
         22    1    1    2    0    0 -0.15534571203E+03  0.20402666809E+02  0.62926618358E+03  0.64847859553E+03  0.00000000000E+00 0. -1.
<mgrwt>
<rscale>  0 0.93652444E+03</rscale>
<asrwt>0</asrwt>
<pdfrwt beam="1">  1        2 0.10221391E+00 0.93652444E+03</pdfrwt>
<pdfrwt beam="2">  1       -2 0.50774017E-01 0.93652444E+03</pdfrwt>
<totfact> 0.16072663E+02</totfact>
</mgrwt>
</event>
<event>
 6    1  0.1885829E-005  0.1175795E+04  0.7818608E-02  0.9134311E-01
          2   -1    0    0  501    0  0.00000000000E+00  0.00000000000E+00  0.12192543577E+04  0.12192543577E+04  0.00000000000E+00 0. -1.
         -2   -1    0    0    0  501 -0.00000000000E+00 -0.00000000000E+00 -0.28347120798E+03  0.28347120798E+03  0.00000000000E+00 0.  1.
         23    2    1    2    0    0  0.26663367745E+03 -0.22606053333E+03 -0.12744249597E+03  0.38350902884E+03  0.92955380352E+02 0.  0.
         13    1    3    3    0    0  0.25712690302E+03 -0.17820446615E+03 -0.10747064813E+03  0.33078847656E+03  0.00000000000E+00 0.  1.
        -13    1    3    3    0    0  0.95067744276E+01 -0.47856067180E+02 -0.19971847845E+02  0.52720552276E+02  0.00000000000E+00 0. -1.
         22    1    1    2    0    0 -0.26663367745E+03  0.22606053333E+03  0.10632256457E+04  0.11192165368E+04  0.00000000000E+00 0. -1.
<mgrwt>
<rscale>  0 0.11757951E+04</rscale>
<asrwt>0</asrwt>
<pdfrwt beam="1">  1        2 0.18757759E+00 0.11757951E+04</pdfrwt>
<pdfrwt beam="2">  1       -2 0.43610956E-01 0.11757951E+04</pdfrwt>
<totfact> 0.90840918E+01</totfact>
</mgrwt>
</event>
<event>
 6    1  0.1885829E-005  0.4322766E+03  0.7818608E-02  0.1033143E+00
          2   -1    0    0  501    0  0.00000000000E+00  0.00000000000E+00  0.20900528859E+03  0.20900528859E+03  0.00000000000E+00 0. -1.
         -2   -1    0    0    0  501 -0.00000000000E+00 -0.00000000000E+00 -0.22351477772E+03  0.22351477772E+03  0.00000000000E+00 0.  1.
         23    2    1    2    0    0  0.20321966281E+03 -0.14875224169E+01 -0.44505548041E+02  0.22709317512E+03  0.91050108755E+02 0.  0.
         11    1    3    3    0    0  0.18518141219E+03 -0.31057505914E+02 -0.41697895781E+02  0.19234198348E+03  0.00000000000E+00 0. -1.
        -11    1    3    3    0    0  0.18038250615E+02  0.29569983497E+02 -0.28076522595E+01  0.34751191641E+02  0.00000000000E+00 0.  1.
         22    1    1    2    0    0 -0.20321966281E+03  0.14875224169E+01  0.29996058915E+02  0.20542689119E+03  0.00000000000E+00 0.  1.
<mgrwt>
<rscale>  0 0.43227663E+03</rscale>
<asrwt>0</asrwt>
<pdfrwt beam="1">  1        2 0.32154660E-01 0.43227663E+03</pdfrwt>
<pdfrwt beam="2">  1       -2 0.34386889E-01 0.43227663E+03</pdfrwt>
<totfact> 0.12991167E+03</totfact>
</mgrwt>
</event>
<event>
 6    1  0.1885829E-005  0.8231813E+03  0.7818608E-02  0.9527056E-01
         -2   -1    0    0    0  501 -0.00000000000E+00  0.00000000000E+00  0.20223326845E+03  0.20223326845E+03  0.00000000000E+00 0.  1.
          2   -1    0    0  501    0  0.00000000000E+00 -0.00000000000E+00 -0.83768050279E+03  0.83768050279E+03  0.00000000000E+00 0. -1.
         23    2    1    2    0    0 -0.11805857466E+03  0.18448750315E+03  0.11083834153E+03  0.26215055109E+03  0.92001671791E+02 0.  0.
         13    1    3    3    0    0 -0.43774622978E+02  0.12457280976E+02  0.43719067736E+02  0.63109098788E+02  0.00000000000E+00 0. -1.
        -13    1    3    3    0    0 -0.74283951686E+02  0.17203022217E+03  0.67119273799E+02  0.19904145230E+03  0.00000000000E+00 0.  1.
         22    1    1    2    0    0  0.11805857466E+03 -0.18448750315E+03 -0.74628557587E+03  0.77776322015E+03  0.00000000000E+00 0. -1.
<mgrwt>
<rscale>  0 0.82318131E+03</rscale>
<asrwt>0</asrwt>
<pdfrwt beam="1">  1        2 0.12887392E+00 0.82318131E+03</pdfrwt>
<pdfrwt beam="2">  1       -2 0.31112810E-01 0.82318131E+03</pdfrwt>
<totfact> 0.31129279E+02</totfact>
</mgrwt>
</event>
<event>
 6    1  0.1885829E-005  0.1306732E+04  0.7818608E-02  0.9024244E-01
         -2   -1    0    0    0  501 -0.00000000000E+00  0.00000000000E+00  0.28097930114E+03  0.28097930114E+03  0.00000000000E+00 0.  1.
          2   -1    0    0  501    0  0.00000000000E+00 -0.00000000000E+00 -0.15192830963E+04  0.15192830963E+04  0.00000000000E+00 0. -1.
         23    2    1    2    0    0 -0.11549002531E+03 -0.80762871772E+02 -0.14965574171E+04  0.15060592013E+04  0.93110835125E+02 0.  0.
         11    1    3    3    0    0 -0.34317024556E+01 -0.53437394739E+02 -0.48521732909E+03  0.48816307541E+03  0.00000000000E+00 0. -1.
        -11    1    3    3    0    0 -0.11205832285E+03 -0.27325477033E+02 -0.10113400880E+04  0.10178961258E+04  0.00000000000E+00 0.  1.
         22    1    1    2    0    0  0.11549002531E+03  0.80762871772E+02  0.25825362193E+03  0.29420319618E+03  0.00000000000E+00 0.  1.
<mgrwt>
<rscale>  0 0.13067320E+04</rscale>
<asrwt>0</asrwt>
<pdfrwt beam="1">  1        2 0.23373587E+00 0.13067320E+04</pdfrwt>
<pdfrwt beam="2">  1       -2 0.43227584E-01 0.13067320E+04</pdfrwt>
<totfact> 0.61520169E+01</totfact>
</mgrwt>
</event>
<event>
 6    1  0.1885829E-005  0.2030140E+04  0.7818608E-02  0.8592657E-01
          2   -1    0    0  501    0  0.00000000000E+00  0.00000000000E+00  0.23243297969E+04  0.23243297969E+04  0.00000000000E+00 0. -1.
         -2   -1    0    0    0  501 -0.00000000000E+00 -0.00000000000E+00 -0.44329646198E+03  0.44329646198E+03  0.00000000000E+00 0.  1.
         23    2    1    2    0    0 -0.48661965048E+03 -0.87291207451E+03  0.11683663902E+04  0.15401620646E+04  0.90801924769E+02 0.  0.
         13    1    3    3    0    0 -0.14155170730E+03 -0.32812350807E+03  0.37987524779E+03  0.52154302437E+03  0.00000000000E+00 0.  1.
        -13    1    3    3    0    0 -0.34506794318E+03 -0.54478856644E+03  0.78849114237E+03  0.10186190402E+04  0.00000000000E+00 0. -1.
         22    1    1    2    0    0  0.48661965048E+03  0.87291207451E+03  0.71266694477E+03  0.12274641943E+04  0.00000000000E+00 0. -1.
<mgrwt>
<rscale>  0 0.20301401E+04</rscale>
<asrwt>0</asrwt>
<pdfrwt beam="1">  1        2 0.35758919E+00 0.20301401E+04</pdfrwt>
<pdfrwt beam="2">  1       -2 0.68199457E-01 0.20301401E+04</pdfrwt>
<totfact> 0.80093947E+00</totfact>
</mgrwt>
</event>
<event>
 6    1  0.1885829E-005  0.2057080E+04  0.7818608E-02  0.8580389E-01
          1   -1    0    0  501    0  0.00000000000E+00  0.00000000000E+00  0.22919711999E+04  0.22919711999E+04  0.00000000000E+00 0. -1.
         -1   -1    0    0    0  501 -0.00000000000E+00 -0.00000000000E+00 -0.46156545280E+03  0.46156545280E+03  0.00000000000E+00 0.  1.
         23    2    1    2    0    0  0.35909364878E+03 -0.90406095641E+03  0.47791226196E+03  0.10875495312E+04  0.89941043401E+02 0.  0.
         13    1    3    3    0    0  0.12604363120E+03 -0.23523285476E+03  0.16040811352E+03  0.31137157193E+03  0.00000000000E+00 0.  1.
        -13    1    3    3    0    0  0.23305001758E+03 -0.66882810165E+03  0.31750414843E+03  0.77617795932E+03  0.00000000000E+00 0. -1.
         22    1    1    2    0    0 -0.35909364878E+03  0.90406095641E+03  0.13524934851E+04  0.16659871215E+04  0.00000000000E+00 0. -1.
<mgrwt>
<rscale>  0 0.20570802E+04</rscale>
<asrwt>0</asrwt>
<pdfrwt beam="1">  1        1 0.35261095E+00 0.20570802E+04</pdfrwt>
<pdfrwt beam="2">  1       -1 0.71010071E-01 0.20570802E+04</pdfrwt>
<totfact> 0.34856886E+00</totfact>
</mgrwt>
</event>
<event>
 6    1  0.1885829E-005  0.3701450E+04  0.7818608E-02  0.8067641E-01
         -2   -1    0    0    0  501 -0.00000000000E+00  0.00000000000E+00  0.11116962079E+04  0.11116962079E+04  0.00000000000E+00 0.  1.
          2   -1    0    0  501    0  0.00000000000E+00 -0.00000000000E+00 -0.30810420176E+04  0.30810420176E+04  0.00000000000E+00 0. -1.
         23    2    1    2    0    0 -0.22275325086E+03 -0.94799191912E+03  0.79598253954E+03  0.12609557356E+04  0.90074826615E+02 0.  0.
         13    1    3    3    0    0 -0.15281147499E+03 -0.48097159521E+03  0.44072735928E+03  0.67001912473E+03  0.00000000000E+00 0.  1.
        -13    1    3    3    0    0 -0.69941775870E+02 -0.46702032391E+03  0.35525518026E+03  0.59093661086E+03  0.00000000000E+00 0. -1.
         22    1    1    2    0    0  0.22275325086E+03  0.94799191912E+03 -0.27653283492E+04  0.29317824900E+04  0.00000000000E+00 0. -1.
<mgrwt>
<rscale>  0 0.37014498E+04</rscale>
<asrwt>0</asrwt>
<pdfrwt beam="1">  1        2 0.47400646E+00 0.37014498E+04</pdfrwt>
<pdfrwt beam="2">  1       -2 0.17103019E+00 0.37014498E+04</pdfrwt>
<totfact> 0.26190770E-01</totfact>
</mgrwt>
</event>
<event>
 6    1  0.1885829E-005  0.2161733E+04  0.7818608E-02  0.8534527E-01
         -2   -1    0    0    0  501 -0.00000000000E+00  0.00000000000E+00  0.13455201485E+04  0.13455201485E+04  0.00000000000E+00 0.  1.
          2   -1    0    0  501    0  0.00000000000E+00 -0.00000000000E+00 -0.86826782951E+03  0.86826782951E+03  0.00000000000E+00 0. -1.
         23    2    1    2    0    0  0.41045346059E+03  0.14120060525E+03  0.12506751723E+04  0.13268874400E+04  0.89622750982E+02 0.  0.
         11    1    3    3    0    0  0.80535059372E+02  0.50739716924E+02  0.19176809208E+03  0.21409207318E+03  0.00000000000E+00 0. -1.
        -11    1    3    3    0    0  0.32991840122E+03  0.90460888327E+02  0.10589070803E+04  0.11127953668E+04  0.00000000000E+00 0.  1.
         22    1    1    2    0    0 -0.41045346059E+03 -0.14120060525E+03 -0.77342285335E+03  0.88690053801E+03  0.00000000000E+00 0. -1.
<mgrwt>
<rscale>  0 0.21617325E+04</rscale>
<asrwt>0</asrwt>
<pdfrwt beam="1">  1        2 0.13357967E+00 0.21617325E+04</pdfrwt>
<pdfrwt beam="2">  1       -2 0.20700310E+00 0.21617325E+04</pdfrwt>
<totfact> 0.33825142E+00</totfact>
</mgrwt>
</event>
<event>
 6    1  0.1885829E-005  0.3042917E+04  0.7818608E-02  0.8231581E-01
          2   -1    0    0  501    0  0.00000000000E+00  0.00000000000E+00  0.14109138143E+04  0.14109138143E+04  0.00000000000E+00 0. -1.
         -2   -1    0    0    0  501 -0.00000000000E+00 -0.00000000000E+00 -0.16406641880E+04  0.16406641880E+04  0.00000000000E+00 0.  1.
         23    2    1    2    0    0  0.68949620682E+03 -0.41234644228E+03 -0.14092106225E+04  0.16244966850E+04  0.87637283362E+02 0.  0.
         13    1    3    3    0    0  0.36992200906E+03 -0.23504558888E+03 -0.85216659567E+03  0.95826751402E+03  0.00000000000E+00 0.  1.
        -13    1    3    3    0    0  0.31957419775E+03 -0.17730085340E+03 -0.55704402684E+03  0.66622917103E+03  0.00000000000E+00 0. -1.
         22    1    1    2    0    0 -0.68949620682E+03  0.41234644228E+03  0.11794602488E+04  0.14270813173E+04  0.00000000000E+00 0. -1.
<mgrwt>
<rscale>  0 0.30429169E+04</rscale>
<asrwt>0</asrwt>
<pdfrwt beam="1">  1        2 0.21706366E+00 0.30429169E+04</pdfrwt>
<pdfrwt beam="2">  1       -2 0.25240988E+00 0.30429169E+04</pdfrwt>
<totfact> 0.75566013E-01</totfact>
</mgrwt>
</event>
<event>
 6    1  0.1885829E-005  0.1339780E+04  0.7818608E-02  0.8998601E-01
         -2   -1    0    0    0  501 -0.00000000000E+00  0.00000000000E+00  0.24739706609E+03  0.24739706609E+03  0.00000000000E+00 0.  1.
          2   -1    0    0  501    0  0.00000000000E+00 -0.00000000000E+00 -0.18138969435E+04  0.18138969435E+04  0.00000000000E+00 0. -1.
         23    2    1    2    0    0 -0.41662790364E+03  0.52040819527E+03 -0.76647907025E+03  0.10199310605E+04  0.91464218711E+02 0.  0.
         13    1    3    3    0    0 -0.13111535031E+03  0.22746626419E+03 -0.33050568890E+03  0.42209731914E+03  0.00000000000E+00 0. -1.
        -13    1    3    3    0    0 -0.28551255333E+03  0.29294193108E+03 -0.43597338134E+03  0.59783374138E+03  0.00000000000E+00 0.  1.
         22    1    1    2    0    0  0.41662790364E+03 -0.52040819527E+03 -0.80002080720E+03  0.10413629491E+04  0.00000000000E+00 0. -1.
<mgrwt>
<rscale>  0 0.13397803E+04</rscale>
<asrwt>0</asrwt>
<pdfrwt beam="1">  1        2 0.27906107E+00 0.13397803E+04</pdfrwt>
<pdfrwt beam="2">  1       -2 0.38061086E-01 0.13397803E+04</pdfrwt>
<totfact> 0.54001542E+01</totfact>
</mgrwt>
</event>
<event>
 6    1  0.1885829E-005  0.1789043E+04  0.7818608E-02  0.8712148E-01
         -2   -1    0    0    0  501 -0.00000000000E+00  0.00000000000E+00  0.62869802482E+03  0.62869802482E+03  0.00000000000E+00 0.  1.
          2   -1    0    0  501    0  0.00000000000E+00 -0.00000000000E+00 -0.12727393444E+04  0.12727393444E+04  0.00000000000E+00 0. -1.
         23    2    1    2    0    0 -0.65373320648E+03 -0.49244993832E+03  0.54616521393E+02  0.82533475992E+03  0.91216525422E+02 0.  0.
         11    1    3    3    0    0 -0.33565054004E+03 -0.24735482241E+03  0.73304420913E+02  0.42334292402E+03  0.00000000000E+00 0.  1.
        -11    1    3    3    0    0 -0.31808266645E+03 -0.24509511591E+03 -0.18687899520E+02  0.40199183589E+03  0.00000000000E+00 0. -1.
         22    1    1    2    0    0  0.65373320648E+03  0.49244993832E+03 -0.69865784101E+03  0.10761026093E+04  0.00000000000E+00 0. -1.
<mgrwt>
<rscale>  0 0.17890430E+04</rscale>
<asrwt>0</asrwt>
<pdfrwt beam="1">  1        2 0.19580605E+00 0.17890430E+04</pdfrwt>
<pdfrwt beam="2">  1       -2 0.96722776E-01 0.17890430E+04</pdfrwt>
<totfact> 0.14482666E+01</totfact>
</mgrwt>
</event>
<event>
 6    1  0.1885829E-005  0.7252963E+03  0.7818608E-02  0.9674924E-01
          2   -1    0    0  501    0  0.00000000000E+00  0.00000000000E+00  0.15507041395E+04  0.15507041395E+04  0.00000000000E+00 0. -1.
         -2   -1    0    0    0  501 -0.00000000000E+00 -0.00000000000E+00 -0.84809005283E+02  0.84809005283E+02  0.00000000000E+00 0.  1.
         23    2    1    2    0    0  0.21747254300E+03  0.26186218976E+03  0.50187717920E+03  0.61316451003E+03  0.90685720865E+02 0.  0.
         13    1    3    3    0    0  0.91188883784E+02  0.16868317380E+03  0.31882007842E+03  0.37204256215E+03  0.00000000000E+00 0.  1.
        -13    1    3    3    0    0  0.12628365922E+03  0.93179015966E+02  0.18305710078E+03  0.24112194788E+03  0.00000000000E+00 0. -1.
         22    1    1    2    0    0 -0.21747254300E+03 -0.26186218976E+03  0.96401795503E+03  0.10223486348E+04  0.00000000000E+00 0. -1.
<mgrwt>
<rscale>  0 0.72529629E+03</rscale>
<asrwt>0</asrwt>
<pdfrwt beam="1">  1        2 0.23856985E+00 0.72529629E+03</pdfrwt>
<pdfrwt beam="2">  1       -2 0.13047540E-01 0.72529629E+03</pdfrwt>
<totfact> 0.53412620E+02</totfact>
</mgrwt>
</event>
<event>
 6    1  0.1885829E-005  0.4462557E+04  0.7818608E-02  0.7917225E-01
          2   -1    0    0  501    0  0.00000000000E+00  0.00000000000E+00  0.31694743816E+04  0.31694743816E+04  0.00000000000E+00 0. -1.
         -2   -1    0    0    0  501 -0.00000000000E+00 -0.00000000000E+00 -0.15707978110E+04  0.15707978110E+04  0.00000000000E+00 0.  1.
         23    2    1    2    0    0 -0.11868061250E+04 -0.14731392603E+04 -0.45527559532E+03  0.19478955063E+04  0.91503972225E+02 0.  0.
         11    1    3    3    0    0 -0.64829155759E+03 -0.73259726256E+03 -0.22828457614E+03  0.10045369781E+04  0.00000000000E+00 0.  1.
        -11    1    3    3    0    0 -0.53851456740E+03 -0.74054199777E+03 -0.22699101918E+03  0.94335852811E+03  0.00000000000E+00 0. -1.
         22    1    1    2    0    0  0.11868061250E+04  0.14731392603E+04  0.20539521659E+04  0.27923766864E+04  0.00000000000E+00 0. -1.
<mgrwt>
<rscale>  0 0.44625569E+04</rscale>
<asrwt>0</asrwt>
<pdfrwt beam="1">  1        2 0.48761144E+00 0.44625569E+04</pdfrwt>
<pdfrwt beam="2">  1       -2 0.24166120E+00 0.44625569E+04</pdfrwt>
<totfact> 0.74566538E-02</totfact>
</mgrwt>
</event>
<event>
 6    1  0.1885829E-005  0.2664704E+04  0.7818608E-02  0.8346549E-01
          2   -1    0    0  501    0  0.00000000000E+00  0.00000000000E+00  0.39195271001E+04  0.39195271001E+04  0.00000000000E+00 0. -1.
         -2   -1    0    0    0  501 -0.00000000000E+00 -0.00000000000E+00 -0.45290197168E+03  0.45290197168E+03  0.00000000000E+00 0.  1.
         23    2    1    2    0    0 -0.56938249748E+03 -0.42002836937E+03  0.35847849717E+04  0.36550853549E+04  0.91353154574E+02 0.  0.
         13    1    3    3    0    0 -0.46561544556E+02 -0.13047421892E+02  0.33265497974E+03  0.33615107942E+03  0.00000000000E+00 0.  1.
        -13    1    3    3    0    0 -0.52282095292E+03 -0.40698094748E+03  0.32521299920E+04  0.33189342755E+04  0.00000000000E+00 0. -1.
         22    1    1    2    0    0  0.56938249748E+03  0.42002836937E+03 -0.11815984332E+03  0.71734371684E+03  0.00000000000E+00 0.  1.
<mgrwt>
<rscale>  0 0.26647038E+04</rscale>
<asrwt>0</asrwt>
<pdfrwt beam="1">  1        2 0.60300415E+00 0.26647038E+04</pdfrwt>
<pdfrwt beam="2">  1       -2 0.69677229E-01 0.26647038E+04</pdfrwt>
<totfact> 0.65652237E-01</totfact>
</mgrwt>
</event>
<event>
 6    1  0.1885829E-005  0.3002121E+04  0.7818608E-02  0.8243125E-01
         -2   -1    0    0    0  501 -0.00000000000E+00  0.00000000000E+00  0.75035529828E+03  0.75035529828E+03  0.00000000000E+00 0.  1.
          2   -1    0    0  501    0  0.00000000000E+00 -0.00000000000E+00 -0.30028209378E+04  0.30028209378E+04  0.00000000000E+00 0. -1.
         23    2    1    2    0    0 -0.31354290288E+03 -0.78954630336E+03  0.41774440363E+03  0.95108519694E+03  0.91433844754E+02 0.  0.
         13    1    3    3    0    0 -0.75100601504E+02 -0.24578450007E+03  0.86359523644E+02  0.27112375061E+03  0.00000000000E+00 0. -1.
        -13    1    3    3    0    0 -0.23844230138E+03 -0.54376180329E+03  0.33138487999E+03  0.67996144633E+03  0.00000000000E+00 0.  1.
         22    1    1    2    0    0  0.31354290288E+03  0.78954630336E+03 -0.26702100432E+04  0.28020910392E+04  0.00000000000E+00 0. -1.
<mgrwt>
<rscale>  0 0.30021210E+04</rscale>
<asrwt>0</asrwt>
<pdfrwt beam="1">  1        2 0.46197245E+00 0.30021210E+04</pdfrwt>
<pdfrwt beam="2">  1       -2 0.11543928E+00 0.30021210E+04</pdfrwt>
<totfact> 0.86647710E-01</totfact>
</mgrwt>
</event>
<event>
 6    1  0.1885829E-005  0.2330633E+04  0.7818608E-02  0.8465940E-01
         -2   -1    0    0    0  501 -0.00000000000E+00  0.00000000000E+00  0.12894857488E+04  0.12894857488E+04  0.00000000000E+00 0.  1.
          2   -1    0    0  501    0  0.00000000000E+00 -0.00000000000E+00 -0.10531040048E+04  0.10531040048E+04  0.00000000000E+00 0. -1.
         23    2    1    2    0    0 -0.84766963038E+03 -0.78468227526E+03  0.25894106157E+03  0.11872633935E+04  0.90960523625E+02 0.  0.
         11    1    3    3    0    0 -0.21595603859E+03 -0.14951495990E+03  0.67872354837E+02  0.27129023276E+03  0.00000000000E+00 0. -1.
        -11    1    3    3    0    0 -0.63171359179E+03 -0.63516731537E+03  0.19106870673E+03  0.91597316077E+03  0.00000000000E+00 0.  1.
         22    1    1    2    0    0  0.84766963038E+03  0.78468227526E+03 -0.22559317517E+02  0.11553263600E+04  0.00000000000E+00 0. -1.
<mgrwt>
<rscale>  0 0.23306331E+04</rscale>
<asrwt>0</asrwt>
<pdfrwt beam="1">  1        2 0.16201600E+00 0.23306331E+04</pdfrwt>
<pdfrwt beam="2">  1       -2 0.19838242E+00 0.23306331E+04</pdfrwt>
<totfact> 0.28719925E+00</totfact>
</mgrwt>
</event>
<event>
 6    1  0.1885829E-005  0.4674644E+04  0.7818608E-02  0.7880755E-01
          2   -1    0    0  501    0  0.00000000000E+00  0.00000000000E+00  0.17520013010E+04  0.17520013010E+04  0.00000000000E+00 0. -1.
         -2   -1    0    0    0  501 -0.00000000000E+00 -0.00000000000E+00 -0.31181913382E+04  0.31181913382E+04  0.00000000000E+00 0.  1.
         23    2    1    2    0    0  0.20456192625E+04 -0.90221385261E+03 -0.13902350487E+04  0.26343200656E+04  0.91327513563E+02 0.  0.
         13    1    3    3    0    0  0.13485373238E+04 -0.63999071190E+03 -0.91352726159E+03  0.17500494515E+04  0.00000000000E+00 0. -1.
        -13    1    3    3    0    0  0.69708193864E+03 -0.26222314071E+03 -0.47670778708E+03  0.88427061410E+03  0.00000000000E+00 0.  1.
         22    1    1    2    0    0 -0.20456192625E+04  0.90221385261E+03  0.24045011482E+02  0.22358725736E+04  0.00000000000E+00 0. -1.
<mgrwt>
<rscale>  0 0.46746445E+04</rscale>
<asrwt>0</asrwt>
<pdfrwt beam="1">  1        2 0.26953867E+00 0.46746445E+04</pdfrwt>
<pdfrwt beam="2">  1       -2 0.47972173E+00 0.46746445E+04</pdfrwt>
<totfact> 0.15253470E-02</totfact>
</mgrwt>
</event>
<event>
 6    1  0.1885829E-005  0.4924562E+04  0.7818608E-02  0.7840251E-01
          2   -1    0    0  501    0  0.00000000000E+00  0.00000000000E+00  0.34994890713E+04  0.34994890713E+04  0.00000000000E+00 0. -1.
         -2   -1    0    0    0  501 -0.00000000000E+00 -0.00000000000E+00 -0.17324894927E+04  0.17324894927E+04  0.00000000000E+00 0.  1.
         23    2    1    2    0    0  0.68813688311E+03  0.55824956252E+03  0.33235280514E+04  0.34409018402E+04  0.93764711074E+02 0.  0.
         13    1    3    3    0    0  0.50605702697E+03  0.38402164134E+03  0.25162362552E+04  0.25951900176E+04  0.00000000000E+00 0.  1.
        -13    1    3    3    0    0  0.18207985614E+03  0.17422792118E+03  0.80729179622E+03  0.84571182253E+03  0.00000000000E+00 0. -1.
         22    1    1    2    0    0 -0.68813688311E+03 -0.55824956252E+03 -0.15565284728E+04  0.17910767238E+04  0.00000000000E+00 0.  1.
<mgrwt>
<rscale>  0 0.49245621E+04</rscale>
<asrwt>0</asrwt>
<pdfrwt beam="1">  1        2 0.53838293E+00 0.49245621E+04</pdfrwt>
<pdfrwt beam="2">  1       -2 0.26653685E+00 0.49245621E+04</pdfrwt>
<totfact> 0.30264455E-02</totfact>
</mgrwt>
</event>
<event>
 6    1  0.1885829E-005  0.2273207E+04  0.7818608E-02  0.8488561E-01
         -2   -1    0    0    0  501 -0.00000000000E+00  0.00000000000E+00  0.14156084754E+04  0.14156084754E+04  0.00000000000E+00 0.  1.
          2   -1    0    0  501    0  0.00000000000E+00 -0.00000000000E+00 -0.91258811566E+03  0.91258811566E+03  0.00000000000E+00 0. -1.
         23    2    1    2    0    0  0.57620758162E+03 -0.90051044295E+03 -0.13773214383E+03  0.10818025900E+04  0.91610399743E+02 0.  0.
         13    1    3    3    0    0  0.32737122863E+03 -0.59342354736E+03 -0.89822133753E+02  0.68366032766E+03  0.00000000000E+00 0.  1.
        -13    1    3    3    0    0  0.24883635299E+03 -0.30708689559E+03 -0.47910010079E+02  0.39814226236E+03  0.00000000000E+00 0. -1.
         22    1    1    2    0    0 -0.57620758162E+03  0.90051044295E+03  0.64075250354E+03  0.12463940010E+04  0.00000000000E+00 0.  1.
<mgrwt>
<rscale>  0 0.22732070E+04</rscale>
<asrwt>0</asrwt>
<pdfrwt beam="1">  1        2 0.14039817E+00 0.22732070E+04</pdfrwt>
<pdfrwt beam="2">  1       -2 0.21778592E+00 0.22732070E+04</pdfrwt>
<totfact> 0.26662583E+00</totfact>
</mgrwt>
</event>
<event>
 6    1  0.1885829E-005  0.6996385E+03  0.7818608E-02  0.9717851E-01
         -2   -1    0    0    0  501 -0.00000000000E+00  0.00000000000E+00  0.31726923432E+03  0.31726923432E+03  0.00000000000E+00 0.  1.
          2   -1    0    0  501    0  0.00000000000E+00 -0.00000000000E+00 -0.38570874821E+03  0.38570874821E+03  0.00000000000E+00 0. -1.
         23    2    1    2    0    0  0.27558189253E+03  0.73115660956E+02 -0.22807975001E+03  0.37621157613E+03  0.90683506149E+02 0.  0.
         13    1    3    3    0    0  0.10652566588E+03  0.70736763301E+02 -0.75674341357E+02  0.14858671917E+03  0.00000000000E+00 0.  1.
        -13    1    3    3    0    0  0.16905622665E+03  0.23788976546E+01 -0.15240540865E+03  0.22762485697E+03  0.00000000000E+00 0. -1.
         22    1    1    2    0    0 -0.27558189253E+03 -0.73115660956E+02  0.15964023612E+03  0.32676640640E+03  0.00000000000E+00 0.  1.
<mgrwt>
<rscale>  0 0.69963853E+03</rscale>
<asrwt>0</asrwt>
<pdfrwt beam="1">  1        2 0.59339808E-01 0.69963853E+03</pdfrwt>
<pdfrwt beam="2">  1       -2 0.48810651E-01 0.69963853E+03</pdfrwt>
<totfact> 0.33229466E+02</totfact>
</mgrwt>
</event>
<event>
 6    1  0.1885829E-005  0.4804552E+04  0.7818608E-02  0.7859385E-01
         -2   -1    0    0    0  501 -0.00000000000E+00  0.00000000000E+00  0.14345322529E+04  0.14345322529E+04  0.00000000000E+00 0.  1.
          2   -1    0    0  501    0  0.00000000000E+00 -0.00000000000E+00 -0.40228652926E+04  0.40228652926E+04  0.00000000000E+00 0. -1.
         23    2    1    2    0    0  0.88844463813E+03 -0.56171608812E+03  0.11578389503E+04  0.15665540100E+04  0.92960168587E+02 0.  0.
         13    1    3    3    0    0  0.21070006484E+03 -0.12886557154E+03  0.33275388744E+03  0.41439836204E+03  0.00000000000E+00 0. -1.
        -13    1    3    3    0    0  0.67774457329E+03 -0.43285051658E+03  0.82508506283E+03  0.11521556480E+04  0.00000000000E+00 0.  1.
         22    1    1    2    0    0 -0.88844463813E+03  0.56171608812E+03 -0.37461719899E+04  0.38908435354E+04  0.00000000000E+00 0. -1.
<mgrwt>
<rscale>  0 0.48045520E+04</rscale>
<asrwt>0</asrwt>
<pdfrwt beam="1">  1        2 0.61890234E+00 0.48045520E+04</pdfrwt>
<pdfrwt beam="2">  1       -2 0.22069727E+00 0.48045520E+04</pdfrwt>
<totfact> 0.23600891E-02</totfact>
</mgrwt>
</event>
<event>
 6    1  0.1885829E-005  0.2219579E+04  0.7818608E-02  0.8510323E-01
         -2   -1    0    0    0  501 -0.00000000000E+00  0.00000000000E+00  0.65182414268E+03  0.65182414268E+03  0.00000000000E+00 0.  1.
          2   -1    0    0  501    0  0.00000000000E+00 -0.00000000000E+00 -0.18895170355E+04  0.18895170355E+04  0.00000000000E+00 0. -1.
         23    2    1    2    0    0 -0.70631555384E+03 -0.79620172423E+03 -0.26706297195E+03  0.11008755276E+04  0.88235191186E+02 0.  0.
         11    1    3    3    0    0 -0.50162965470E+03 -0.54157690744E+03 -0.22348060116E+03  0.77128557373E+03  0.00000000000E+00 0.  1.
        -11    1    3    3    0    0 -0.20468589913E+03 -0.25462481680E+03 -0.43582370785E+02  0.32958995385E+03  0.00000000000E+00 0. -1.
         22    1    1    2    0    0  0.70631555384E+03  0.79620172423E+03 -0.97062992084E+03  0.14404656506E+04  0.00000000000E+00 0. -1.
<mgrwt>
<rscale>  0 0.22195791E+04</rscale>
<asrwt>0</asrwt>
<pdfrwt beam="1">  1        2 0.29069493E+00 0.22195791E+04</pdfrwt>
<pdfrwt beam="2">  1       -2 0.10028064E+00 0.22195791E+04</pdfrwt>
<totfact> 0.57624834E+00</totfact>
</mgrwt>
</event>
<event>
 6    1  0.1885829E-005  0.2068476E+04  0.7818608E-02  0.8575258E-01
         -2   -1    0    0    0  501 -0.00000000000E+00  0.00000000000E+00  0.47278509245E+03  0.47278509245E+03  0.00000000000E+00 0.  1.
          2   -1    0    0  501    0  0.00000000000E+00 -0.00000000000E+00 -0.22624406698E+04  0.22624406698E+04  0.00000000000E+00 0. -1.
         23    2    1    2    0    0  0.52221604702E+03 -0.20179159139E+03 -0.20433655509E+04  0.21205728547E+04  0.89760856397E+02 0.  0.
         13    1    3    3    0    0  0.45213283398E+03 -0.17153122271E+03 -0.16300799731E+04  0.17002963796E+04  0.00000000000E+00 0. -1.
        -13    1    3    3    0    0  0.70083213037E+02 -0.30260368676E+02 -0.41328557784E+03  0.42027647509E+03  0.00000000000E+00 0.  1.
         22    1    1    2    0    0 -0.52221604702E+03  0.20179159139E+03  0.25370997353E+03  0.61465290757E+03  0.00000000000E+00 0.  1.
<mgrwt>
<rscale>  0 0.20684760E+04</rscale>
<asrwt>0</asrwt>
<pdfrwt beam="1">  1        2 0.34806779E+00 0.20684760E+04</pdfrwt>
<pdfrwt beam="2">  1       -2 0.72736168E-01 0.20684760E+04</pdfrwt>
<totfact> 0.75174568E+00</totfact>
</mgrwt>
</event>
<event>
 6    1  0.1885829E-005  0.2338119E+04  0.7818608E-02  0.8463041E-01
          1   -1    0    0  501    0  0.00000000000E+00  0.00000000000E+00  0.27403121891E+04  0.27403121891E+04  0.00000000000E+00 0. -1.
         -1   -1    0    0    0  501 -0.00000000000E+00 -0.00000000000E+00 -0.49873903610E+03  0.49873903610E+03  0.00000000000E+00 0.  1.
         23    2    1    2    0    0  0.68989835288E+03  0.92379122491E+03  0.87013410259E+03  0.14473495108E+04  0.91308736278E+02 0.  0.
         11    1    3    3    0    0  0.23910459935E+03  0.30785471258E+03  0.24172519978E+03  0.45866829593E+03  0.00000000000E+00 0. -1.
        -11    1    3    3    0    0  0.45079375353E+03  0.61593651233E+03  0.62840890281E+03  0.98868121484E+03  0.00000000000E+00 0.  1.
         22    1    1    2    0    0 -0.68989835288E+03 -0.92379122491E+03  0.13714390505E+04  0.17917017145E+04  0.00000000000E+00 0. -1.
<mgrwt>
<rscale>  0 0.23381195E+04</rscale>
<asrwt>0</asrwt>
<pdfrwt beam="1">  1        1 0.42158648E+00 0.23381195E+04</pdfrwt>
<pdfrwt beam="2">  1       -1 0.76729084E-01 0.23381195E+04</pdfrwt>
<totfact> 0.14110868E+00</totfact>
</mgrwt>
</event>
<event>
 6    1  0.1885829E-005  0.3455931E+04  0.7818608E-02  0.8124314E-01
         -2   -1    0    0    0  501 -0.00000000000E+00  0.00000000000E+00  0.58573500090E+03  0.58573500090E+03  0.00000000000E+00 0.  1.
          2   -1    0    0  501    0  0.00000000000E+00 -0.00000000000E+00 -0.50976390308E+04  0.50976390308E+04  0.00000000000E+00 0. -1.
         23    2    1    2    0    0 -0.71023028692E+03  0.99853036327E+03 -0.25676594755E+03  0.12553168904E+04  0.91661315101E+02 0.  0.
         13    1    3    3    0    0 -0.55782230201E+03  0.76522563445E+03 -0.23566336320E+03  0.97584487138E+03  0.00000000000E+00 0. -1.
        -13    1    3    3    0    0 -0.15240798491E+03  0.23330472881E+03 -0.21102584357E+02  0.27947201902E+03  0.00000000000E+00 0.  1.
         22    1    1    2    0    0  0.71023028692E+03 -0.99853036327E+03 -0.42551380824E+04  0.44280571413E+04  0.00000000000E+00 0. -1.
<mgrwt>
<rscale>  0 0.34559315E+04</rscale>
<asrwt>0</asrwt>
<pdfrwt beam="1">  1        2 0.78425217E+00 0.34559315E+04</pdfrwt>
<pdfrwt beam="2">  1       -2 0.90113076E-01 0.34559315E+04</pdfrwt>
<totfact> 0.22086847E-02</totfact>
</mgrwt>
</event>
<event>
 6    1  0.1885829E-005  0.3206512E+04  0.7818608E-02  0.8187099E-01
          2   -1    0    0  501    0  0.00000000000E+00  0.00000000000E+00  0.44394414350E+04  0.44394414350E+04  0.00000000000E+00 0. -1.
         -2   -1    0    0    0  501 -0.00000000000E+00 -0.00000000000E+00 -0.57899851427E+03  0.57899851427E+03  0.00000000000E+00 0.  1.
         23    2    1    2    0    0 -0.13801757894E+04 -0.62610048555E+03  0.27441701265E+04  0.31361668610E+04  0.90475793632E+02 0.  0.
         11    1    3    3    0    0 -0.41792354620E+03 -0.21192791268E+03  0.77405904916E+03  0.90484304840E+03  0.00000000000E+00 0. -1.
        -11    1    3    3    0    0 -0.96225224320E+03 -0.41417257287E+03  0.19701110773E+04  0.22313238126E+04  0.00000000000E+00 0.  1.
         22    1    1    2    0    0  0.13801757894E+04  0.62610048555E+03  0.11162727942E+04  0.18822730882E+04  0.00000000000E+00 0.  1.
<mgrwt>
<rscale>  0 0.32065121E+04</rscale>
<asrwt>0</asrwt>
<pdfrwt beam="1">  1        2 0.68299097E+00 0.32065121E+04</pdfrwt>
<pdfrwt beam="2">  1       -2 0.89076697E-01 0.32065121E+04</pdfrwt>
<totfact> 0.12794185E-01</totfact>
</mgrwt>
</event>
<event>
 6    1  0.1971250E-005  0.3014667E+04  0.7818608E-02  0.8239555E-01
          2   -1    0    0  501    0  0.00000000000E+00  0.00000000000E+00  0.19252005153E+04  0.19252005153E+04  0.00000000000E+00 0. -1.
         -2   -1    0    0    0  501 -0.00000000000E+00 -0.00000000000E+00 -0.11801652764E+04  0.11801652764E+04  0.00000000000E+00 0.  1.
         23    2    1    2    0    0  0.89132064712E+03 -0.12128068466E+04  0.31623575841E+03  0.15403667701E+04  0.85859120770E+02 0.  0.
         13    1    3    3    0    0  0.25782147200E+03 -0.41771088913E+03  0.95851377358E+02  0.50014176477E+03  0.00000000000E+00 0. -1.
        -13    1    3    3    0    0  0.63349917512E+03 -0.79509595742E+03  0.22038438105E+03  0.10402250054E+04  0.00000000000E+00 0.  1.
         22    1    1    2    0    0 -0.89132064712E+03  0.12128068466E+04  0.42879948053E+03  0.15649990216E+04  0.00000000000E+00 0.  1.
<mgrwt>
<rscale>  0 0.30146673E+04</rscale>
<asrwt>0</asrwt>
<pdfrwt beam="1">  1        2 0.29618469E+00 0.30146673E+04</pdfrwt>
<pdfrwt beam="2">  1       -2 0.18156389E+00 0.30146673E+04</pdfrwt>
<totfact> 0.11120490E+00</totfact>
</mgrwt>
</event>
<event>
 6    1  0.1885829E-005  0.2720325E+04  0.7818608E-02  0.8328440E-01
         -2   -1    0    0    0  501 -0.00000000000E+00  0.00000000000E+00  0.86209202329E+03  0.86209202329E+03  0.00000000000E+00 0.  1.
          2   -1    0    0  501    0  0.00000000000E+00 -0.00000000000E+00 -0.21459908714E+04  0.21459908714E+04  0.00000000000E+00 0. -1.
         23    2    1    2    0    0  0.74893817384E+03 -0.87296547775E+03  0.15761050307E+03  0.11639228357E+04  0.83055302304E+02 0.  0.
         11    1    3    3    0    0  0.10110729705E+02 -0.27813064532E+02  0.12084050708E+02  0.31965883303E+02  0.00000000000E+00 0. -1.
        -11    1    3    3    0    0  0.73882744413E+03 -0.84515241322E+03  0.14552645236E+03  0.11319569524E+04  0.00000000000E+00 0.  1.
         22    1    1    2    0    0 -0.74893817384E+03  0.87296547775E+03 -0.14415093511E+04  0.18441600589E+04  0.00000000000E+00 0.  1.
<mgrwt>
<rscale>  0 0.27203247E+04</rscale>
<asrwt>0</asrwt>
<pdfrwt beam="1">  1        2 0.33015244E+00 0.27203247E+04</pdfrwt>
<pdfrwt beam="2">  1       -2 0.13262954E+00 0.27203247E+04</pdfrwt>
<totfact> 0.20018215E+00</totfact>
</mgrwt>
</event>
<event>
 6    1  0.1885829E-005  0.1973862E+04  0.7818608E-02  0.8618939E-01
         -2   -1    0    0    0  501 -0.00000000000E+00  0.00000000000E+00  0.67012188687E+03  0.67012188687E+03  0.00000000000E+00 0. -1.
          2   -1    0    0  501    0  0.00000000000E+00 -0.00000000000E+00 -0.14535157498E+04  0.14535157498E+04  0.00000000000E+00 0.  1.
         23    2    1    2    0    0  0.18063417781E+03  0.31360595054E+03 -0.13779483577E+04  0.14275970878E+04  0.91183168758E+02 0.  0.
         11    1    3    3    0    0  0.11026351154E+03  0.10718653111E+03 -0.63060390755E+03  0.64908264700E+03  0.00000000000E+00 0. -1.
        -11    1    3    3    0    0  0.70370666276E+02  0.20641941943E+03 -0.74734445015E+03  0.77851444081E+03  0.00000000000E+00 0.  1.
         22    1    1    2    0    0 -0.18063417781E+03 -0.31360595054E+03  0.59455449476E+03  0.69604054886E+03  0.00000000000E+00 0. -1.
<mgrwt>
<rscale>  0 0.19738619E+04</rscale>
<asrwt>0</asrwt>
<pdfrwt beam="1">  1        2 0.22361781E+00 0.19738619E+04</pdfrwt>
<pdfrwt beam="2">  1       -2 0.10309567E+00 0.19738619E+04</pdfrwt>
<totfact> 0.96463202E+00</totfact>
</mgrwt>
</event>
<event>
 6    1  0.1885829E-005  0.5026158E+03  0.7818608E-02  0.1013098E+00
          1   -1    0    0  501    0  0.00000000000E+00  0.00000000000E+00  0.18038490750E+04  0.18038490750E+04  0.00000000000E+00 0. -1.
         -1   -1    0    0    0  501 -0.00000000000E+00 -0.00000000000E+00 -0.35011605117E+02  0.35011605117E+02  0.00000000000E+00 0.  1.
         23    2    1    2    0    0 -0.10203131051E+03  0.19985920887E+03  0.57221133423E+03  0.62137630640E+03  0.91261226426E+02 0.  0.
         11    1    3    3    0    0  0.94799171282E+01  0.71080461616E+02  0.15856493209E+03  0.17402625820E+03  0.00000000000E+00 0. -1.
        -11    1    3    3    0    0 -0.11151122763E+03  0.12877874726E+03  0.41364640213E+03  0.44735004821E+03  0.00000000000E+00 0.  1.
         22    1    1    2    0    0  0.10203131051E+03 -0.19985920887E+03  0.11966261356E+04  0.12174843737E+04  0.00000000000E+00 0. -1.
<mgrwt>
<rscale>  0 0.50261576E+03</rscale>
<asrwt>0</asrwt>
<pdfrwt beam="1">  1        1 0.27751517E+00 0.50261576E+03</pdfrwt>
<pdfrwt beam="2">  1       -1 0.53864022E-02 0.50261576E+03</pdfrwt>
<totfact> 0.69745637E+02</totfact>
</mgrwt>
</event>
<event>
 6    1  0.1885829E-005  0.1771154E+04  0.7818608E-02  0.8721792E-01
          1   -1    0    0  501    0  0.00000000000E+00  0.00000000000E+00  0.95221717461E+03  0.95221717461E+03  0.00000000000E+00 0. -1.
         -1   -1    0    0    0  501 -0.00000000000E+00 -0.00000000000E+00 -0.82360052009E+03  0.82360052009E+03  0.00000000000E+00 0.  1.
         23    2    1    2    0    0  0.50285848878E+03 -0.69335690392E+03 -0.15064331357E+03  0.87493113928E+03  0.95919938581E+02 0.  0.
         13    1    3    3    0    0  0.30250982823E+03 -0.33967976512E+03 -0.94817323639E+02  0.46463411828E+03  0.00000000000E+00 0. -1.
        -13    1    3    3    0    0  0.20034866055E+03 -0.35367713880E+03 -0.55825989930E+02  0.41029702100E+03  0.00000000000E+00 0.  1.
         22    1    1    2    0    0 -0.50285848878E+03  0.69335690392E+03  0.27925996808E+03  0.90088655541E+03  0.00000000000E+00 0. -1.
<mgrwt>
<rscale>  0 0.17711539E+04</rscale>
<asrwt>0</asrwt>
<pdfrwt beam="1">  1        1 0.14649495E+00 0.17711539E+04</pdfrwt>
<pdfrwt beam="2">  1       -1 0.12670777E+00 0.17711539E+04</pdfrwt>
<totfact> 0.84484917E+00</totfact>
</mgrwt>
</event>
<event>
 6    1  0.1885829E-005  0.1137174E+04  0.7818608E-02  0.9169698E-01
         -4   -1    0    0    0  501 -0.00000000000E+00  0.00000000000E+00  0.72018183116E+03  0.72018183116E+03  0.00000000000E+00 0.  1.
          4   -1    0    0  501    0  0.00000000000E+00 -0.00000000000E+00 -0.44890228189E+03  0.44890228189E+03  0.00000000000E+00 0. -1.
         23    2    1    2    0    0  0.12918411508E+03 -0.48296196331E+03  0.40648817231E+03  0.65118241839E+03  0.94154735444E+02 0.  0.
         13    1    3    3    0    0  0.18033096493E+02 -0.22626285569E+03  0.15342961971E+03  0.27397211653E+03  0.00000000000E+00 0. -1.
        -13    1    3    3    0    0  0.11115101859E+03 -0.25669910762E+03  0.25305855260E+03  0.37721030186E+03  0.00000000000E+00 0.  1.
         22    1    1    2    0    0 -0.12918411508E+03  0.48296196331E+03 -0.13520862304E+03  0.51790169466E+03  0.00000000000E+00 0. -1.
<mgrwt>
<rscale>  0 0.11371742E+04</rscale>
<asrwt>0</asrwt>
<pdfrwt beam="1">  1        4 0.69061889E-01 0.11371742E+04</pdfrwt>
<pdfrwt beam="2">  1       -4 0.11079720E+00 0.11371742E+04</pdfrwt>
<totfact> 0.24531644E+00</totfact>
</mgrwt>
</event>
<event>
 6    1  0.1885829E-005  0.2017553E+04  0.7818608E-02  0.8598458E-01
         -2   -1    0    0    0  501 -0.00000000000E+00  0.00000000000E+00  0.46826570950E+03  0.46826570950E+03  0.00000000000E+00 0.  1.
          2   -1    0    0  501    0  0.00000000000E+00 -0.00000000000E+00 -0.21731893023E+04  0.21731893023E+04  0.00000000000E+00 0. -1.
         23    2    1    2    0    0  0.45787194639E+03  0.26156909224E+03 -0.19771919874E+04  0.20479946609E+04  0.83239813505E+02 0.  0.
         13    1    3    3    0    0  0.19915850600E+03  0.72529611212E+02 -0.71382264735E+03  0.74462569583E+03  0.00000000000E+00 0.  1.
        -13    1    3    3    0    0  0.25871344039E+03  0.18903948103E+03 -0.12633693401E+04  0.13033689651E+04  0.00000000000E+00 0. -1.
         22    1    1    2    0    0 -0.45787194639E+03 -0.26156909224E+03  0.27226839467E+03  0.59346035086E+03  0.00000000000E+00 0.  1.
<mgrwt>
<rscale>  0 0.20175530E+04</rscale>
<asrwt>0</asrwt>
<pdfrwt beam="1">  1        2 0.33433682E+00 0.20175530E+04</pdfrwt>
<pdfrwt beam="2">  1       -2 0.72040878E-01 0.20175530E+04</pdfrwt>
<totfact> 0.86567935E+00</totfact>
</mgrwt>
</event>
<event>
 6    1  0.1885829E-005  0.2097125E+04  0.7818608E-02  0.8562511E-01
          2   -1    0    0  501    0  0.00000000000E+00  0.00000000000E+00  0.13847636390E+04  0.13847636390E+04  0.00000000000E+00 0. -1.
         -2   -1    0    0    0  501 -0.00000000000E+00 -0.00000000000E+00 -0.79398590667E+03  0.79398590667E+03  0.00000000000E+00 0.  1.
         23    2    1    2    0    0 -0.13571773799E+03  0.32791785086E+03 -0.72707611748E+03  0.81394619324E+03  0.88990468939E+02 0.  0.
         13    1    3    3    0    0 -0.10351962428E+03  0.13943217713E+03 -0.37625328182E+03  0.41439615914E+03  0.00000000000E+00 0. -1.
        -13    1    3    3    0    0 -0.32198113704E+02  0.18848567372E+03 -0.35082283567E+03  0.39955003410E+03  0.00000000000E+00 0.  1.
         22    1    1    2    0    0  0.13571773799E+03 -0.32791785086E+03  0.13178538498E+04  0.13648033524E+04  0.00000000000E+00 0. -1.
<mgrwt>
<rscale>  0 0.20971245E+04</rscale>
<asrwt>0</asrwt>
<pdfrwt beam="1">  1        2 0.21304056E+00 0.20971245E+04</pdfrwt>
<pdfrwt beam="2">  1       -2 0.12215168E+00 0.20971245E+04</pdfrwt>
<totfact> 0.69148165E+00</totfact>
</mgrwt>
</event>
<event>
 6    1  0.1885829E-005  0.2162684E+04  0.7818608E-02  0.8534122E-01
         -3   -1    0    0    0  501 -0.00000000000E+00  0.00000000000E+00  0.13465633992E+04  0.13465633992E+04  0.00000000000E+00 0.  1.
          3   -1    0    0  501    0  0.00000000000E+00 -0.00000000000E+00 -0.86835900951E+03  0.86835900951E+03  0.00000000000E+00 0. -1.
         23    2    1    2    0    0 -0.53682878278E+03 -0.51427246040E+03 -0.56136377480E+03  0.93689139415E+03  0.99874377211E+02 0.  0.
         13    1    3    3    0    0 -0.60955828979E+02 -0.24002478592E+02 -0.34079719658E+02  0.73845510067E+02  0.00000000000E+00 0.  1.
        -13    1    3    3    0    0 -0.47587295380E+03 -0.49026998181E+03 -0.52728405515E+03  0.86304588408E+03  0.00000000000E+00 0. -1.
         22    1    1    2    0    0  0.53682878278E+03  0.51427246040E+03  0.10395681645E+04  0.12780310146E+04  0.00000000000E+00 0.  1.
<mgrwt>
<rscale>  0 0.21626839E+04</rscale>
<asrwt>0</asrwt>
<pdfrwt beam="1">  1        3 0.13359369E+00 0.21626839E+04</pdfrwt>
<pdfrwt beam="2">  1       -3 0.20716360E+00 0.21626839E+04</pdfrwt>
<totfact> 0.13730196E-01</totfact>
</mgrwt>
</event>
<event>
 6    1  0.1885829E-005  0.3275240E+03  0.7818608E-02  0.1072238E+00
         -3   -1    0    0    0  501 -0.00000000000E+00  0.00000000000E+00  0.54048447816E+02  0.54048447816E+02  0.00000000000E+00 0.  1.
          3   -1    0    0  501    0  0.00000000000E+00 -0.00000000000E+00 -0.49618445476E+03  0.49618445476E+03  0.00000000000E+00 0. -1.
         23    2    1    2    0    0 -0.72255954971E+02 -0.44705950480E+02 -0.44800317629E+03  0.46506266884E+03  0.91416054105E+02 0.  0.
         13    1    3    3    0    0  0.66253307907E+01 -0.11141954246E+02 -0.50846076715E+01  0.13924488776E+02  0.00000000000E+00 0. -1.
        -13    1    3    3    0    0 -0.78881285762E+02 -0.33563996234E+02 -0.44291856862E+03  0.45113818007E+03  0.00000000000E+00 0.  1.
         22    1    1    2    0    0  0.72255954971E+02  0.44705950480E+02  0.58671693508E+01  0.85170233728E+02  0.00000000000E+00 0.  1.
<mgrwt>
<rscale>  0 0.32752404E+03</rscale>
<asrwt>0</asrwt>
<pdfrwt beam="1">  1        3 0.76336068E-01 0.32752404E+03</pdfrwt>
<pdfrwt beam="2">  1       -3 0.83151460E-02 0.32752404E+03</pdfrwt>
<totfact> 0.42628556E+02</totfact>
</mgrwt>
</event>
<event>
 6    1  0.1885829E-005  0.2674716E+04  0.7818608E-02  0.8343256E-01
         -1   -1    0    0    0  501 -0.00000000000E+00  0.00000000000E+00  0.49518685238E+03  0.49518685238E+03  0.00000000000E+00 0.  1.
          1   -1    0    0  501    0  0.00000000000E+00 -0.00000000000E+00 -0.36118204219E+04  0.36118204219E+04  0.00000000000E+00 0. -1.
         23    2    1    2    0    0 -0.12571197534E+04  0.42618277940E+03 -0.13310905313E+04  0.18821149674E+04  0.92590022924E+02 0.  0.
         13    1    3    3    0    0 -0.86049575570E+03  0.27243918097E+03 -0.95915809972E+03  0.13170650376E+04  0.00000000000E+00 0.  1.
        -13    1    3    3    0    0 -0.39662399767E+03  0.15374359843E+03 -0.37193243155E+03  0.56504992985E+03  0.00000000000E+00 0. -1.
         22    1    1    2    0    0  0.12571197534E+04 -0.42618277940E+03 -0.17855430383E+04  0.22248923069E+04  0.00000000000E+00 0. -1.
<mgrwt>
<rscale>  0 0.26747157E+04</rscale>
<asrwt>0</asrwt>
<pdfrwt beam="1">  1        1 0.55566469E+00 0.26747157E+04</pdfrwt>
<pdfrwt beam="2">  1       -1 0.76182591E-01 0.26747157E+04</pdfrwt>
<totfact> 0.30819167E-01</totfact>
</mgrwt>
</event>
<event>
 6    1  0.1885829E-005  0.1854166E+04  0.7818608E-02  0.8678014E-01
         -2   -1    0    0    0  501 -0.00000000000E+00  0.00000000000E+00  0.52674463320E+03  0.52674463320E+03  0.00000000000E+00 0.  1.
          2   -1    0    0  501    0  0.00000000000E+00 -0.00000000000E+00 -0.16316872473E+04  0.16316872473E+04  0.00000000000E+00 0. -1.
         23    2    1    2    0    0 -0.91893016523E+03 -0.91999644865E+02 -0.49348779017E+03  0.10508337652E+04  0.88458012009E+02 0.  0.
         13    1    3    3    0    0 -0.22480671330E+03 -0.60851524643E+02 -0.12011919477E+03  0.26204882627E+03  0.00000000000E+00 0. -1.
        -13    1    3    3    0    0 -0.69412345193E+03 -0.31148120223E+02 -0.37336859540E+03  0.78878493897E+03  0.00000000000E+00 0.  1.
         22    1    1    2    0    0  0.91893016523E+03  0.91999644865E+02 -0.61145482394E+03  0.11075981153E+04  0.00000000000E+00 0. -1.
<mgrwt>
<rscale>  0 0.18541656E+04</rscale>
<asrwt>0</asrwt>
<pdfrwt beam="1">  1        2 0.25102880E+00 0.18541656E+04</pdfrwt>
<pdfrwt beam="2">  1       -2 0.81037637E-01 0.18541656E+04</pdfrwt>
<totfact> 0.13511874E+01</totfact>
</mgrwt>
</event>
<event>
 6    1  0.1885829E-005  0.2123023E+04  0.7818608E-02  0.8551169E-01
          2   -1    0    0  501    0  0.00000000000E+00  0.00000000000E+00  0.13998780658E+04  0.13998780658E+04  0.00000000000E+00 0. -1.
         -2   -1    0    0    0  501 -0.00000000000E+00 -0.00000000000E+00 -0.80493205080E+03  0.80493205080E+03  0.00000000000E+00 0.  1.
         23    2    1    2    0    0  0.26116771328E+02  0.24388385143E+03 -0.77274559359E+03  0.81529877985E+03  0.86109983683E+02 0.  0.
         13    1    3    3    0    0 -0.83998266194E+01  0.12458233490E+03 -0.50410711598E+03  0.51934121696E+03  0.00000000000E+00 0.  1.
        -13    1    3    3    0    0  0.34516597948E+02  0.11930151653E+03 -0.26863847761E+03  0.29595756289E+03  0.00000000000E+00 0. -1.
         22    1    1    2    0    0 -0.26116771328E+02 -0.24388385143E+03  0.13676916086E+04  0.13895113367E+04  0.00000000000E+00 0. -1.
<mgrwt>
<rscale>  0 0.21230231E+04</rscale>
<asrwt>0</asrwt>
<pdfrwt beam="1">  1        2 0.21536586E+00 0.21230231E+04</pdfrwt>
<pdfrwt beam="2">  1       -2 0.12383570E+00 0.21230231E+04</pdfrwt>
<totfact> 0.65359530E+00</totfact>
</mgrwt>
</event>
<event>
 6    1  0.1885829E-005  0.3380048E+04  0.7818608E-02  0.8142821E-01
          2   -1    0    0  501    0  0.00000000000E+00  0.00000000000E+00  0.18183956862E+04  0.18183956862E+04  0.00000000000E+00 0.  1.
         -2   -1    0    0    0  501 -0.00000000000E+00 -0.00000000000E+00 -0.15707152350E+04  0.15707152350E+04  0.00000000000E+00 0. -1.
         23    2    1    2    0    0  0.30967547276E+03  0.13396224942E+04  0.11071213802E+04  0.17676529242E+04  0.91606682747E+02 0.  0.
         11    1    3    3    0    0  0.12839547277E+03  0.38193193507E+03  0.30541591482E+03  0.50560486695E+03  0.00000000000E+00 0. -1.
        -11    1    3    3    0    0  0.18127999999E+03  0.95769055917E+03  0.80170546537E+03  0.12620480572E+04  0.00000000000E+00 0.  1.
         22    1    1    2    0    0 -0.30967547276E+03 -0.13396224942E+04 -0.85944092905E+03  0.16214579970E+04  0.00000000000E+00 0. -1.
<mgrwt>
<rscale>  0 0.33800484E+04</rscale>
<asrwt>0</asrwt>
<pdfrwt beam="1">  1        2 0.27975318E+00 0.33800484E+04</pdfrwt>
<pdfrwt beam="2">  1       -2 0.24164850E+00 0.33800484E+04</pdfrwt>
<totfact> 0.50605473E-01</totfact>
</mgrwt>
</event>
<event>
 6    1  0.1885829E-005  0.1450950E+04  0.7818608E-02  0.8917742E-01
         -2   -1    0    0    0  501 -0.00000000000E+00  0.00000000000E+00  0.86972994360E+03  0.86972994360E+03  0.00000000000E+00 0. -1.
          2   -1    0    0  501    0  0.00000000000E+00 -0.00000000000E+00 -0.60514633741E+03  0.60514633741E+03  0.00000000000E+00 0.  1.
         23    2    1    2    0    0 -0.12635990830E+03  0.14992270476E+02  0.85584137785E+03  0.87008098743E+03  0.91568914192E+02 0.  0.
         11    1    3    3    0    0 -0.25080687684E+02 -0.17859461890E+02  0.43107732065E+03  0.43217549405E+03  0.00000000000E+00 0.  1.
        -11    1    3    3    0    0 -0.10127922061E+03  0.32851732366E+02  0.42476405720E+03  0.43790549338E+03  0.00000000000E+00 0. -1.
         22    1    1    2    0    0  0.12635990830E+03 -0.14992270476E+02 -0.59125777165E+03  0.60479529358E+03  0.00000000000E+00 0.  1.
<mgrwt>
<rscale>  0 0.14509499E+04</rscale>
<asrwt>0</asrwt>
<pdfrwt beam="1">  1        2 0.93099436E-01 0.14509499E+04</pdfrwt>
<pdfrwt beam="2">  1       -2 0.13380461E+00 0.14509499E+04</pdfrwt>
<totfact> 0.19200569E+01</totfact>
</mgrwt>
</event>
<event>
 6    1  0.1885829E-005  0.4151822E+04  0.7818608E-02  0.7974600E-01
         -2   -1    0    0    0  501 -0.00000000000E+00  0.00000000000E+00  0.17828493725E+04  0.17828493725E+04  0.00000000000E+00 0.  1.
          2   -1    0    0  501    0  0.00000000000E+00 -0.00000000000E+00 -0.24171458857E+04  0.24171458857E+04  0.00000000000E+00 0. -1.
         23    2    1    2    0    0  0.12651658022E+04 -0.16147505430E+04 -0.63252478469E+03  0.21486379119E+04  0.92159914169E+02 0.  0.
         11    1    3    3    0    0  0.15017100164E+03 -0.14846178967E+03 -0.73945708737E+02  0.22374136982E+03  0.00000000000E+00 0.  1.
        -11    1    3    3    0    0  0.11149948006E+04 -0.14662887533E+04 -0.55857907595E+03  0.19248965421E+04  0.00000000000E+00 0. -1.
         22    1    1    2    0    0 -0.12651658022E+04  0.16147505430E+04 -0.17717284968E+01  0.20513573463E+04  0.00000000000E+00 0.  1.
<mgrwt>
<rscale>  0 0.41518223E+04</rscale>
<asrwt>0</asrwt>
<pdfrwt beam="1">  1        2 0.37186859E+00 0.41518223E+04</pdfrwt>
<pdfrwt beam="2">  1       -2 0.27428452E+00 0.41518223E+04</pdfrwt>
<totfact> 0.13821261E-01</totfact>
</mgrwt>
</event>
<event>
 6    1  0.1885829E-005  0.5677635E+04  0.7818608E-02  0.7731709E-01
          2   -1    0    0  501    0  0.00000000000E+00  0.00000000000E+00  0.36133711354E+04  0.36133711354E+04  0.00000000000E+00 0. -1.
         -2   -1    0    0    0  501 -0.00000000000E+00 -0.00000000000E+00 -0.22302955721E+04  0.22302955721E+04  0.00000000000E+00 0.  1.
         23    2    1    2    0    0  0.55800587594E+03 -0.14257351666E+04  0.31514869925E+04  0.35045706629E+04  0.77807100431E+02 0.  0.
         13    1    3    3    0    0  0.34511222656E+03 -0.90966454869E+03  0.20838701257E+04  0.22998058050E+04  0.00000000000E+00 0. -1.
        -13    1    3    3    0    0  0.21289364938E+03 -0.51607061786E+03  0.10676168668E+04  0.12047648579E+04  0.00000000000E+00 0.  1.
         22    1    1    2    0    0 -0.55800587594E+03  0.14257351666E+04 -0.17684114292E+04  0.23390960446E+04  0.00000000000E+00 0.  1.
<mgrwt>
<rscale>  0 0.56776353E+04</rscale>
<asrwt>0</asrwt>
<pdfrwt beam="1">  1        2 0.55590325E+00 0.56776353E+04</pdfrwt>
<pdfrwt beam="2">  1       -2 0.34312240E+00 0.56776353E+04</pdfrwt>
<totfact> 0.79887121E-03</totfact>
</mgrwt>
</event>
<event>
 6    1  0.1885829E-005  0.4134504E+04  0.7818608E-02  0.7977949E-01
          2   -1    0    0  501    0  0.00000000000E+00  0.00000000000E+00  0.30326401922E+04  0.30326401922E+04  0.00000000000E+00 0. -1.
         -2   -1    0    0    0  501 -0.00000000000E+00 -0.00000000000E+00 -0.14091781864E+04  0.14091781864E+04  0.00000000000E+00 0.  1.
         23    2    1    2    0    0  0.19183698265E+04 -0.76763658286E+03  0.82574488093E+03  0.22269230479E+04  0.89010887122E+02 0.  0.
         13    1    3    3    0    0  0.10834325510E+04 -0.38877753312E+03  0.44334633104E+03  0.12335031545E+04  0.00000000000E+00 0. -1.
        -13    1    3    3    0    0  0.83493727553E+03 -0.37885904974E+03  0.38239854989E+03  0.99341989340E+03  0.00000000000E+00 0.  1.
         22    1    1    2    0    0 -0.19183698265E+04  0.76763658286E+03  0.79771712486E+03  0.22148953307E+04  0.00000000000E+00 0.  1.
<mgrwt>
<rscale>  0 0.41345038E+04</rscale>
<asrwt>0</asrwt>
<pdfrwt beam="1">  1        2 0.46656003E+00 0.41345038E+04</pdfrwt>
<pdfrwt beam="2">  1       -2 0.21679664E+00 0.41345038E+04</pdfrwt>
<totfact> 0.13415161E-01</totfact>
</mgrwt>
</event>
<event>
 6    1  0.1885829E-005  0.2076032E+04  0.7818608E-02  0.8571875E-01
          2   -1    0    0  501    0  0.00000000000E+00  0.00000000000E+00  0.20654067814E+04  0.20654067814E+04  0.00000000000E+00 0. -1.
         -2   -1    0    0    0  501 -0.00000000000E+00 -0.00000000000E+00 -0.52167808175E+03  0.52167808175E+03  0.00000000000E+00 0.  1.
         23    2    1    2    0    0 -0.72257766097E+03  0.38052959395E+03 -0.22276772163E+02  0.82093243889E+03  0.80700474791E+02 0.  0.
         11    1    3    3    0    0 -0.49752382528E+03  0.22137498839E+03 -0.21679768877E+01  0.54455628022E+03  0.00000000000E+00 0.  1.
        -11    1    3    3    0    0 -0.22505383569E+03  0.15915460556E+03 -0.20108795275E+02  0.27637615867E+03  0.00000000000E+00 0. -1.
         22    1    1    2    0    0  0.72257766097E+03 -0.38052959395E+03  0.15660054718E+04  0.17661524243E+04  0.00000000000E+00 0. -1.
<mgrwt>
<rscale>  0 0.20760322E+04</rscale>
<asrwt>0</asrwt>
<pdfrwt beam="1">  1        2 0.31775489E+00 0.20760322E+04</pdfrwt>
<pdfrwt beam="2">  1       -2 0.80258167E-01 0.20760322E+04</pdfrwt>
<totfact> 0.77835463E+00</totfact>
</mgrwt>
</event>
<event>
 6    1  0.1885829E-005  0.2431501E+04  0.7818608E-02  0.8427803E-01
          2   -1    0    0  501    0  0.00000000000E+00  0.00000000000E+00  0.14845194700E+04  0.14845194700E+04  0.00000000000E+00 0. -1.
         -2   -1    0    0    0  501 -0.00000000000E+00 -0.00000000000E+00 -0.99564189122E+03  0.99564189122E+03  0.00000000000E+00 0.  1.
         23    2    1    2    0    0 -0.38905660247E+03  0.87250395300E+03 -0.51931655774E+03  0.10912468193E+04  0.92204910429E+02 0.  0.
         11    1    3    3    0    0 -0.19662795533E+03  0.33881787703E+03 -0.19174547138E+03  0.43614955280E+03  0.00000000000E+00 0. -1.
        -11    1    3    3    0    0 -0.19242864714E+03  0.53368607597E+03 -0.32757108636E+03  0.65509726648E+03  0.00000000000E+00 0.  1.
         22    1    1    2    0    0  0.38905660247E+03 -0.87250395300E+03  0.10081941366E+04  0.13889145420E+04  0.00000000000E+00 0. -1.
<mgrwt>
<rscale>  0 0.24315014E+04</rscale>
<asrwt>0</asrwt>
<pdfrwt beam="1">  1        2 0.22838761E+00 0.24315014E+04</pdfrwt>
<pdfrwt beam="2">  1       -2 0.15317568E+00 0.24315014E+04</pdfrwt>
<totfact> 0.32924213E+00</totfact>
</mgrwt>
</event>
<event>
 6    1  0.1885829E-005  0.2277609E+04  0.7818608E-02  0.8486802E-01
          2   -1    0    0  501    0  0.00000000000E+00  0.00000000000E+00  0.78304680338E+03  0.78304680338E+03  0.00000000000E+00 0.  1.
         -2   -1    0    0    0  501 -0.00000000000E+00 -0.00000000000E+00 -0.16561916949E+04  0.16561916949E+04  0.00000000000E+00 0. -1.
         23    2    1    2    0    0  0.34493477529E+03 -0.24859409817E+03  0.69202536879E+03  0.81734547820E+03  0.91517729573E+02 0.  0.
         13    1    3    3    0    0  0.60078366369E+02 -0.91938757760E+02  0.17432380918E+03  0.20603624859E+03  0.00000000000E+00 0.  1.
        -13    1    3    3    0    0  0.28485640892E+03 -0.15665534041E+03  0.51770155961E+03  0.61130922961E+03  0.00000000000E+00 0. -1.
         22    1    1    2    0    0 -0.34493477529E+03  0.24859409817E+03 -0.15651702603E+04  0.16218930200E+04  0.00000000000E+00 0. -1.
<mgrwt>
<rscale>  0 0.22776089E+04</rscale>
<asrwt>0</asrwt>
<pdfrwt beam="1">  1        2 0.12046874E+00 0.22776089E+04</pdfrwt>
<pdfrwt beam="2">  1       -2 0.25479872E+00 0.22776089E+04</pdfrwt>
<totfact> 0.19324037E+00</totfact>
</mgrwt>
</event>
<event>
 6    1  0.1885829E-005  0.3054024E+04  0.7818608E-02  0.8228470E-01
         -2   -1    0    0    0  501 -0.00000000000E+00  0.00000000000E+00  0.86768100534E+03  0.86768100534E+03  0.00000000000E+00 0.  1.
          2   -1    0    0  501    0  0.00000000000E+00 -0.00000000000E+00 -0.26873532011E+04  0.26873532011E+04  0.00000000000E+00 0. -1.
         23    2    1    2    0    0  0.77523713161E+02 -0.95314215617E+03 -0.22944008548E+04  0.24873932576E+04  0.91433250340E+02 0.  0.
         13    1    3    3    0    0  0.81970620311E+02 -0.76602401089E+03 -0.17623434502E+04  0.19233737038E+04  0.00000000000E+00 0. -1.
        -13    1    3    3    0    0 -0.44469071502E+01 -0.18711814529E+03 -0.53205740463E+03  0.56401955383E+03  0.00000000000E+00 0.  1.
         22    1    1    2    0    0 -0.77523713161E+02  0.95314215617E+03  0.47472865905E+03  0.10676409489E+04  0.00000000000E+00 0.  1.
<mgrwt>
<rscale>  0 0.30540238E+04</rscale>
<asrwt>0</asrwt>
<pdfrwt beam="1">  1        2 0.41343896E+00 0.30540238E+04</pdfrwt>
<pdfrwt beam="2">  1       -2 0.13348938E+00 0.30540238E+04</pdfrwt>
<totfact> 0.93459642E-01</totfact>
</mgrwt>
</event>
<event>
 6    1  0.1885829E-005  0.2209037E+04  0.7818608E-02  0.8514676E-01
          2   -1    0    0  501    0  0.00000000000E+00  0.00000000000E+00  0.14825801677E+04  0.14825801677E+04  0.00000000000E+00 0. -1.
         -2   -1    0    0    0  501 -0.00000000000E+00 -0.00000000000E+00 -0.82286324773E+03  0.82286324773E+03  0.00000000000E+00 0.  1.
         23    2    1    2    0    0  0.68396628189E+02 -0.40034295112E+03 -0.73943744910E+03  0.84853383494E+03  0.91045871150E+02 0.  0.
         11    1    3    3    0    0  0.67894353398E+02 -0.21203665842E+03 -0.46693338036E+03  0.51729679047E+03  0.00000000000E+00 0. -1.
        -11    1    3    3    0    0  0.50227479145E+00 -0.18830629270E+03 -0.27250406873E+03  0.33123704447E+03  0.00000000000E+00 0.  1.
         22    1    1    2    0    0 -0.68396628189E+02  0.40034295112E+03  0.13991543691E+04  0.14569095805E+04  0.00000000000E+00 0. -1.
<mgrwt>
<rscale>  0 0.22090367E+04</rscale>
<asrwt>0</asrwt>
<pdfrwt beam="1">  1        2 0.22808926E+00 0.22090367E+04</pdfrwt>
<pdfrwt beam="2">  1       -2 0.12659435E+00 0.22090367E+04</pdfrwt>
<totfact> 0.55092668E+00</totfact>
</mgrwt>
</event>
<event>
 6    1  0.1885829E-005  0.4310128E+04  0.7818608E-02  0.7944748E-01
         -2   -1    0    0    0  501 -0.00000000000E+00  0.00000000000E+00  0.31189874521E+04  0.31189874521E+04  0.00000000000E+00 0.  1.
          2   -1    0    0  501    0  0.00000000000E+00 -0.00000000000E+00 -0.14890410028E+04  0.14890410028E+04  0.00000000000E+00 0. -1.
         23    2    1    2    0    0  0.66559291294E+03 -0.16936952789E+04  0.20476040041E+04  0.27409303171E+04  0.91647268817E+02 0.  0.
         11    1    3    3    0    0  0.31564054791E+03 -0.68828554071E+03  0.87601176855E+03  0.11579130190E+04  0.00000000000E+00 0.  1.
        -11    1    3    3    0    0  0.34995236503E+03 -0.10054097381E+04  0.11715922356E+04  0.15830172980E+04  0.00000000000E+00 0. -1.
         22    1    1    2    0    0 -0.66559291294E+03  0.16936952789E+04 -0.41765755477E+03  0.18670981379E+04  0.00000000000E+00 0. -1.
<mgrwt>
<rscale>  0 0.43101277E+04</rscale>
<asrwt>0</asrwt>
<pdfrwt beam="1">  1        2 0.22908323E+00 0.43101277E+04</pdfrwt>
<pdfrwt beam="2">  1       -2 0.47984422E+00 0.43101277E+04</pdfrwt>
<totfact> 0.21971031E-02</totfact>
</mgrwt>
</event>
<event>
 6    1  0.1885829E-005  0.2953452E+04  0.7818608E-02  0.8257149E-01
          2   -1    0    0  501    0  0.00000000000E+00  0.00000000000E+00  0.41891938465E+04  0.41891938465E+04  0.00000000000E+00 0. -1.
         -2   -1    0    0    0  501 -0.00000000000E+00 -0.00000000000E+00 -0.52055826806E+03  0.52055826806E+03  0.00000000000E+00 0.  1.
         23    2    1    2    0    0 -0.88813713771E+03  0.41873630629E+03  0.35919096737E+04  0.37248589559E+04  0.92905692566E+02 0.  0.
         11    1    3    3    0    0 -0.24777835081E+03  0.12308783284E+03  0.11753689498E+04  0.12074919850E+04  0.00000000000E+00 0. -1.
        -11    1    3    3    0    0 -0.64035878689E+03  0.29564847345E+03  0.24165407240E+04  0.25173669709E+04  0.00000000000E+00 0.  1.
         22    1    1    2    0    0  0.88813713771E+03 -0.41873630629E+03  0.76725904764E+02  0.98489315869E+03  0.00000000000E+00 0.  1.
<mgrwt>
<rscale>  0 0.29534519E+04</rscale>
<asrwt>0</asrwt>
<pdfrwt beam="1">  1        2 0.64449134E+00 0.29534519E+04</pdfrwt>
<pdfrwt beam="2">  1       -2 0.80085890E-01 0.29534519E+04</pdfrwt>
<totfact> 0.28147419E-01</totfact>
</mgrwt>
</event>
<event>
 6    1  0.1885829E-005  0.2267423E+04  0.7818608E-02  0.8490878E-01
          2   -1    0    0  501    0  0.00000000000E+00  0.00000000000E+00  0.33295259092E+04  0.33295259092E+04  0.00000000000E+00 0. -1.
         -2   -1    0    0    0  501 -0.00000000000E+00 -0.00000000000E+00 -0.38603155784E+03  0.38603155784E+03  0.00000000000E+00 0.  1.
         23    2    1    2    0    0  0.73839741160E+03  0.19057969807E+02  0.69124407284E+02  0.74779795537E+03  0.93966242382E+02 0.  0.
         11    1    3    3    0    0  0.45692866375E+03  0.11015296756E+01 -0.19713647098E+01  0.45693424407E+03  0.00000000000E+00 0. -1.
        -11    1    3    3    0    0  0.28146874785E+03  0.17956440132E+02  0.71095771994E+02  0.29086371131E+03  0.00000000000E+00 0.  1.
         22    1    1    2    0    0 -0.73839741160E+03 -0.19057969807E+02  0.28743699441E+04  0.29677595117E+04  0.00000000000E+00 0. -1.
<mgrwt>
<rscale>  0 0.22674233E+04</rscale>
<asrwt>0</asrwt>
<pdfrwt beam="1">  1        2 0.51223474E+00 0.22674233E+04</pdfrwt>
<pdfrwt beam="2">  1       -2 0.59389473E-01 0.22674233E+04</pdfrwt>
<totfact> 0.25658375E+00</totfact>
</mgrwt>
</event>
<event>
 6    1  0.1885829E-005  0.2463033E+04  0.7818608E-02  0.8416275E-01
          2   -1    0    0  501    0  0.00000000000E+00  0.00000000000E+00  0.22244621239E+04  0.22244621239E+04  0.00000000000E+00 0. -1.
         -2   -1    0    0    0  501 -0.00000000000E+00 -0.00000000000E+00 -0.68179783477E+03  0.68179783477E+03  0.00000000000E+00 0.  1.
         23    2    1    2    0    0  0.90808439654E+03 -0.33714532423E+03 -0.12143815149E+03  0.98076750898E+03  0.94198944441E+02 0.  0.
         13    1    3    3    0    0  0.42804903311E+03 -0.12990965707E+03 -0.17446679636E+02  0.44766827046E+03  0.00000000000E+00 0. -1.
        -13    1    3    3    0    0  0.48003536344E+03 -0.20723566716E+03 -0.10399147186E+03  0.53309923852E+03  0.00000000000E+00 0.  1.
         22    1    1    2    0    0 -0.90808439654E+03  0.33714532423E+03  0.16641024406E+04  0.19254924497E+04  0.00000000000E+00 0. -1.
<mgrwt>
<rscale>  0 0.24630335E+04</rscale>
<asrwt>0</asrwt>
<pdfrwt beam="1">  1        2 0.34222494E+00 0.24630335E+04</pdfrwt>
<pdfrwt beam="2">  1       -2 0.10489198E+00 0.24630335E+04</pdfrwt>
<totfact> 0.32973485E+00</totfact>
</mgrwt>
</event>
<event>
 6    1  0.1885829E-005  0.2413194E+04  0.7818608E-02  0.8434580E-01
         -2   -1    0    0    0  501 -0.00000000000E+00  0.00000000000E+00  0.10331372417E+04  0.10331372417E+04  0.00000000000E+00 0. -1.
          2   -1    0    0  501    0  0.00000000000E+00 -0.00000000000E+00 -0.14091802990E+04  0.14091802990E+04  0.00000000000E+00 0.  1.
         23    2    1    2    0    0 -0.11420100342E+04 -0.37905512479E+03 -0.12583917889E+03  0.12133050564E+04  0.91673087122E+02 0.  0.
         11    1    3    3    0    0 -0.98933724281E+03 -0.29969144105E+03 -0.12475272441E+03  0.10412331065E+04  0.00000000000E+00 0.  1.
        -11    1    3    3    0    0 -0.15267279143E+03 -0.79363683741E+02 -0.10864544779E+01  0.17207194984E+03  0.00000000000E+00 0. -1.
         22    1    1    2    0    0  0.11420100342E+04  0.37905512479E+03 -0.25020387836E+03  0.12290124843E+04  0.00000000000E+00 0.  1.
<mgrwt>
<rscale>  0 0.24131943E+04</rscale>
<asrwt>0</asrwt>
<pdfrwt beam="1">  1        2 0.21679697E+00 0.24131943E+04</pdfrwt>
<pdfrwt beam="2">  1       -2 0.15894419E+00 0.24131943E+04</pdfrwt>
<totfact> 0.32941096E+00</totfact>
</mgrwt>
</event>
<event>
 6    1  0.1885829E-005  0.1692449E+04  0.7818608E-02  0.8765683E-01
         -2   -1    0    0    0  501 -0.00000000000E+00  0.00000000000E+00  0.25554756756E+04  0.25554756756E+04  0.00000000000E+00 0.  1.
          2   -1    0    0  501    0  0.00000000000E+00 -0.00000000000E+00 -0.28022006725E+03  0.28022006725E+03  0.00000000000E+00 0. -1.
         23    2    1    2    0    0 -0.35942588469E+03  0.48350252190E+03  0.21304664616E+04  0.22160784801E+04  0.95680878457E+02 0.  0.
         11    1    3    3    0    0 -0.32226102383E+03  0.47025652840E+03  0.19695073835E+04  0.20503542874E+04  0.00000000000E+00 0.  1.
        -11    1    3    3    0    0 -0.37164860858E+02  0.13245993499E+02  0.16095907812E+03  0.16572419273E+03  0.00000000000E+00 0. -1.
         22    1    1    2    0    0  0.35942588469E+03 -0.48350252190E+03  0.14478914669E+03  0.61961726272E+03  0.00000000000E+00 0. -1.
<mgrwt>
<rscale>  0 0.16924486E+04</rscale>
<asrwt>0</asrwt>
<pdfrwt beam="1">  1        2 0.43110781E-01 0.16924486E+04</pdfrwt>
<pdfrwt beam="2">  1       -2 0.39315009E+00 0.16924486E+04</pdfrwt>
<totfact> 0.93371191E-01</totfact>
</mgrwt>
</event>
<event>
 6    1  0.1885829E-005  0.3075392E+04  0.7818608E-02  0.8222524E-01
          2   -1    0    0  501    0  0.00000000000E+00  0.00000000000E+00  0.28992641374E+04  0.28992641374E+04  0.00000000000E+00 0. -1.
         -2   -1    0    0    0  501 -0.00000000000E+00 -0.00000000000E+00 -0.81555510716E+03  0.81555510716E+03  0.00000000000E+00 0.  1.
         23    2    1    2    0    0 -0.14157488503E+04  0.55762918706E+03  0.78677477833E+03  0.17154859629E+04  0.92641351138E+02 0.  0.
         11    1    3    3    0    0 -0.13104950643E+04  0.49267830395E+03  0.73681953125E+03  0.15820974200E+04  0.00000000000E+00 0. -1.
        -11    1    3    3    0    0 -0.10525378594E+03  0.64950883113E+02  0.49955247087E+02  0.13338854292E+03  0.00000000000E+00 0.  1.
         22    1    1    2    0    0  0.14157488503E+04 -0.55762918706E+03  0.12969342519E+04  0.19993332816E+04  0.00000000000E+00 0. -1.
<mgrwt>
<rscale>  0 0.30753924E+04</rscale>
<asrwt>0</asrwt>
<pdfrwt beam="1">  1        2 0.44604063E+00 0.30753924E+04</pdfrwt>
<pdfrwt beam="2">  1       -2 0.12547002E+00 0.30753924E+04</pdfrwt>
<totfact> 0.81222023E-01</totfact>
</mgrwt>
</event>
<event>
 6    1  0.1885829E-005  0.4865586E+04  0.7818608E-02  0.7849583E-01
          2   -1    0    0  501    0  0.00000000000E+00  0.00000000000E+00  0.26140571389E+04  0.26140571389E+04  0.00000000000E+00 0. -1.
         -2   -1    0    0    0  501 -0.00000000000E+00 -0.00000000000E+00 -0.22640984356E+04  0.22640984356E+04  0.00000000000E+00 0.  1.
         23    2    1    2    0    0 -0.16246686762E+04 -0.16147570056E+04 -0.64394237414E+03  0.23811918491E+04  0.91784237025E+02 0.  0.
         11    1    3    3    0    0 -0.60886367815E+03 -0.65947386701E+03 -0.27594375660E+03  0.93902381048E+03  0.00000000000E+00 0.  1.
        -11    1    3    3    0    0 -0.10158049981E+04 -0.95528313860E+03 -0.36799861754E+03  0.14421680386E+04  0.00000000000E+00 0. -1.
         22    1    1    2    0    0  0.16246686762E+04  0.16147570056E+04  0.99390107741E+03  0.24969637255E+04  0.00000000000E+00 0. -1.
<mgrwt>
<rscale>  0 0.48655864E+04</rscale>
<asrwt>0</asrwt>
<pdfrwt beam="1">  1        2 0.40216264E+00 0.48655864E+04</pdfrwt>
<pdfrwt beam="2">  1       -2 0.34832283E+00 0.48655864E+04</pdfrwt>
<totfact> 0.35025294E-02</totfact>
</mgrwt>
</event>
<event>
 6    1  0.1885829E-005  0.2214529E+04  0.7818608E-02  0.8512405E-01
          2   -1    0    0  501    0  0.00000000000E+00  0.00000000000E+00  0.42527865199E+04  0.42527865199E+04  0.00000000000E+00 0. -1.
         -2   -1    0    0    0  501 -0.00000000000E+00 -0.00000000000E+00 -0.28828961300E+03  0.28828961300E+03  0.00000000000E+00 0.  1.
         23    2    1    2    0    0  0.73355373559E+03 -0.81297382710E+03  0.22951467101E+04  0.25446399065E+04  0.92012533004E+02 0.  0.
         11    1    3    3    0    0  0.47606797897E+03 -0.56295005203E+03  0.14580919010E+04  0.16338866158E+04  0.00000000000E+00 0.  1.
        -11    1    3    3    0    0  0.25748575662E+03 -0.25002377508E+03  0.83705480919E+03  0.91075329072E+03  0.00000000000E+00 0. -1.
         22    1    1    2    0    0 -0.73355373559E+03  0.81297382710E+03  0.16693501967E+04  0.19964362263E+04  0.00000000000E+00 0.  1.
<mgrwt>
<rscale>  0 0.22145286E+04</rscale>
<asrwt>0</asrwt>
<pdfrwt beam="1">  1        2 0.65427480E+00 0.22145286E+04</pdfrwt>
<pdfrwt beam="2">  1       -2 0.44352251E-01 0.22145286E+04</pdfrwt>
<totfact> 0.92833751E-01</totfact>
</mgrwt>
</event>
<event>
 6    1  0.1885829E-005  0.2541052E+04  0.7818608E-02  0.8388505E-01
         -4   -1    0    0    0  501 -0.00000000000E+00  0.00000000000E+00  0.10636302306E+04  0.10636302306E+04  0.00000000000E+00 0.  1.
          4   -1    0    0  501    0  0.00000000000E+00 -0.00000000000E+00 -0.15176663221E+04  0.15176663221E+04  0.00000000000E+00 0. -1.
         23    2    1    2    0    0  0.41156365000E+03  0.15766751431E+01 -0.14466422887E+04  0.15067481886E+04  0.90161347588E+02 0.  0.
         13    1    3    3    0    0  0.12211932293E+03  0.36181972641E+02 -0.51795836494E+03  0.53338835007E+03  0.00000000000E+00 0.  1.
        -13    1    3    3    0    0  0.28944432707E+03 -0.34605297498E+02 -0.92868392375E+03  0.97335983856E+03  0.00000000000E+00 0. -1.
         22    1    1    2    0    0 -0.41156365000E+03 -0.15766751431E+01  0.99260619717E+03  0.10745483640E+04  0.00000000000E+00 0.  1.
<mgrwt>
<rscale>  0 0.25410516E+04</rscale>
<asrwt>0</asrwt>
<pdfrwt beam="1">  1        4 0.23348712E+00 0.25410516E+04</pdfrwt>
<pdfrwt beam="2">  1       -4 0.16363542E+00 0.25410516E+04</pdfrwt>
<totfact> 0.33394384E-02</totfact>
</mgrwt>
</event>
<event>
 6    1  0.1885829E-005  0.2256729E+04  0.7818608E-02  0.8495180E-01
         -1   -1    0    0    0  501 -0.00000000000E+00  0.00000000000E+00  0.89131240622E+03  0.89131240622E+03  0.00000000000E+00 0. -1.
          1   -1    0    0  501    0  0.00000000000E+00 -0.00000000000E+00 -0.14284627232E+04  0.14284627232E+04  0.00000000000E+00 0.  1.
         23    2    1    2    0    0  0.75840627849E+03 -0.59358597629E+03 -0.87006514297E+03  0.13007772512E+04  0.86508437162E+02 0.  0.
         11    1    3    3    0    0  0.50315225054E+03 -0.44421386717E+03 -0.59950480324E+03  0.89994119592E+03  0.00000000000E+00 0. -1.
        -11    1    3    3    0    0  0.25525402795E+03 -0.14937210912E+03 -0.27056033974E+03  0.40083605527E+03  0.00000000000E+00 0.  1.
         22    1    1    2    0    0 -0.75840627849E+03  0.59358597629E+03  0.33291482599E+03  0.10189978782E+04  0.00000000000E+00 0. -1.
<mgrwt>
<rscale>  0 0.22567291E+04</rscale>
<asrwt>0</asrwt>
<pdfrwt beam="1">  1        1 0.21976350E+00 0.22567291E+04</pdfrwt>
<pdfrwt beam="2">  1       -1 0.13712499E+00 0.22567291E+04</pdfrwt>
<totfact> 0.29456316E+00</totfact>
</mgrwt>
</event>
<event>
 6    1  0.1885829E-005  0.2498819E+04  0.7818608E-02  0.8403406E-01
          2   -1    0    0  501    0  0.00000000000E+00  0.00000000000E+00  0.23608400804E+04  0.23608400804E+04  0.00000000000E+00 0. -1.
         -2   -1    0    0    0  501 -0.00000000000E+00 -0.00000000000E+00 -0.66121551016E+03  0.66121551016E+03  0.00000000000E+00 0.  1.
         23    2    1    2    0    0 -0.10559436979E+03 -0.70152775254E+03 -0.39042971267E+03  0.81488131923E+03  0.91130924421E+02 0.  0.
         11    1    3    3    0    0 -0.46329474709E+01 -0.27383486421E+03 -0.12099135809E+03  0.29940926136E+03  0.00000000000E+00 0. -1.
        -11    1    3    3    0    0 -0.10096142231E+03 -0.42769288833E+03 -0.26943835458E+03  0.51547205787E+03  0.00000000000E+00 0.  1.
         22    1    1    2    0    0  0.10559436979E+03  0.70152775254E+03  0.20900542829E+04  0.22071742713E+04  0.00000000000E+00 0. -1.
<mgrwt>
<rscale>  0 0.24988190E+04</rscale>
<asrwt>0</asrwt>
<pdfrwt beam="1">  1        2 0.36320616E+00 0.24988190E+04</pdfrwt>
<pdfrwt beam="2">  1       -2 0.10172546E+00 0.24988190E+04</pdfrwt>
<totfact> 0.29605120E+00</totfact>
</mgrwt>
</event>
<event>
 6    1  0.1885829E-005  0.2385817E+04  0.7818608E-02  0.8444833E-01
          2   -1    0    0  501    0  0.00000000000E+00  0.00000000000E+00  0.14932566261E+04  0.14932566261E+04  0.00000000000E+00 0. -1.
         -2   -1    0    0    0  501 -0.00000000000E+00 -0.00000000000E+00 -0.95297136673E+03  0.95297136673E+03  0.00000000000E+00 0.  1.
         23    2    1    2    0    0  0.71410864499E+03 -0.91554627657E+03  0.54326379489E+03  0.12851142977E+04  0.90592857635E+02 0.  0.
         13    1    3    3    0    0  0.20568014145E+03 -0.25735974442E+03  0.19973477025E+03  0.38526917484E+03  0.00000000000E+00 0. -1.
        -13    1    3    3    0    0  0.50842850354E+03 -0.65818653215E+03  0.34352902464E+03  0.89984512283E+03  0.00000000000E+00 0.  1.
         22    1    1    2    0    0 -0.71410864499E+03  0.91554627657E+03 -0.29785355241E+01  0.11611136951E+04  0.00000000000E+00 0.  1.
<mgrwt>
<rscale>  0 0.23858171E+04</rscale>
<asrwt>0</asrwt>
<pdfrwt beam="1">  1        2 0.22973179E+00 0.23858171E+04</pdfrwt>
<pdfrwt beam="2">  1       -2 0.14661098E+00 0.23858171E+04</pdfrwt>
<totfact> 0.36700615E+00</totfact>
</mgrwt>
</event>
<event>
 6    1  0.1885829E-005  0.2377770E+04  0.7818608E-02  0.8447873E-01
         -2   -1    0    0    0  501 -0.00000000000E+00  0.00000000000E+00  0.10870336264E+04  0.10870336264E+04  0.00000000000E+00 0.  1.
          2   -1    0    0  501    0  0.00000000000E+00 -0.00000000000E+00 -0.13002791010E+04  0.13002791010E+04  0.00000000000E+00 0. -1.
         23    2    1    2    0    0 -0.84532004792E+03  0.39734736806E+03 -0.84247528443E+03  0.12610884746E+04  0.90158867846E+02 0.  0.
         13    1    3    3    0    0 -0.46009697122E+03  0.17208203700E+03 -0.46921281277E+03  0.67931002793E+03  0.00000000000E+00 0. -1.
        -13    1    3    3    0    0 -0.38522307670E+03  0.22526533106E+03 -0.37326247167E+03  0.58177844662E+03  0.00000000000E+00 0.  1.
         22    1    1    2    0    0  0.84532004792E+03 -0.39734736806E+03  0.62922980982E+03  0.11262242529E+04  0.00000000000E+00 0.  1.
<mgrwt>
<rscale>  0 0.23777696E+04</rscale>
<asrwt>0</asrwt>
<pdfrwt beam="1">  1        2 0.20004294E+00 0.23777696E+04</pdfrwt>
<pdfrwt beam="2">  1       -2 0.16723594E+00 0.23777696E+04</pdfrwt>
<totfact> 0.33211009E+00</totfact>
</mgrwt>
</event>
<event>
 6    1  0.1885829E-005  0.3862667E+04  0.7818608E-02  0.8032839E-01
          2   -1    0    0  501    0  0.00000000000E+00  0.00000000000E+00  0.42551194683E+04  0.42551194683E+04  0.00000000000E+00 0. -1.
         -2   -1    0    0    0  501 -0.00000000000E+00 -0.00000000000E+00 -0.87660285765E+03  0.87660285765E+03  0.00000000000E+00 0.  1.
         23    2    1    2    0    0 -0.12596948139E+04  0.32937094036E+02 -0.25235822931E+03  0.12883946038E+04  0.91433598452E+02 0.  0.
         13    1    3    3    0    0 -0.89358366531E+03  0.81710584046E+01 -0.13921740304E+03  0.90440036401E+03  0.00000000000E+00 0.  1.
        -13    1    3    3    0    0 -0.36611114857E+03  0.24766035632E+02 -0.11314082627E+03  0.38399423980E+03  0.00000000000E+00 0. -1.
         22    1    1    2    0    0  0.12596948139E+04 -0.32937094036E+02  0.36308748400E+04  0.38433277222E+04  0.00000000000E+00 0. -1.
<mgrwt>
<rscale>  0 0.38626674E+04</rscale>
<asrwt>0</asrwt>
<pdfrwt beam="1">  1        2 0.65463375E+00 0.38626674E+04</pdfrwt>
<pdfrwt beam="2">  1       -2 0.13486198E+00 0.38626674E+04</pdfrwt>
<totfact> 0.65322144E-02</totfact>
</mgrwt>
</event>
<event>
 6    1  0.1885829E-005  0.5432885E+04  0.7818608E-02  0.7764992E-01
         -2   -1    0    0    0  501 -0.00000000000E+00  0.00000000000E+00  0.17516406626E+04  0.17516406626E+04  0.00000000000E+00 0. -1.
          2   -1    0    0  501    0  0.00000000000E+00 -0.00000000000E+00 -0.42126561141E+04  0.42126561141E+04  0.00000000000E+00 0.  1.
         23    2    1    2    0    0  0.90756775946E+03  0.23693544112E+04 -0.16717840067E+03  0.25438862780E+04  0.76741212588E+02 0.  0.
         11    1    3    3    0    0  0.57060649872E+03  0.15209871414E+04 -0.14217635464E+03  0.16307077532E+04  0.00000000000E+00 0. -1.
        -11    1    3    3    0    0  0.33696126075E+03  0.84836726984E+03 -0.25002046031E+02  0.91317852476E+03  0.00000000000E+00 0.  1.
         22    1    1    2    0    0 -0.90756775946E+03 -0.23693544112E+04 -0.22938370508E+04  0.34204104987E+04  0.00000000000E+00 0.  1.
<mgrwt>
<rscale>  0 0.54328850E+04</rscale>
<asrwt>0</asrwt>
<pdfrwt beam="1">  1        2 0.64810093E+00 0.54328850E+04</pdfrwt>
<pdfrwt beam="2">  1       -2 0.26948318E+00 0.54328850E+04</pdfrwt>
<totfact> 0.77319954E-03</totfact>
</mgrwt>
</event>
<event>
 6    1  0.2124180E-005  0.2265946E+04  0.7818608E-02  0.8491470E-01
          2   -1    0    0  501    0  0.00000000000E+00  0.00000000000E+00  0.14746710432E+04  0.14746710432E+04  0.00000000000E+00 0. -1.
         -2   -1    0    0    0  501 -0.00000000000E+00 -0.00000000000E+00 -0.87045064395E+03  0.87045064395E+03  0.00000000000E+00 0.  1.
         23    2    1    2    0    0 -0.53628897702E+03 -0.56941237926E+03  0.11482844050E+04  0.13923142738E+04  0.90253186725E+02 0.  0.
         13    1    3    3    0    0 -0.78415043423E+02 -0.12644790047E+03  0.25275665059E+03  0.29329833785E+03  0.00000000000E+00 0.  1.
        -13    1    3    3    0    0 -0.45787393359E+03 -0.44296447879E+03  0.89552775440E+03  0.10990159359E+04  0.00000000000E+00 0. -1.
         22    1    1    2    0    0  0.53628897702E+03  0.56941237926E+03 -0.54406400578E+03  0.95280741333E+03  0.00000000000E+00 0.  1.
<mgrwt>
<rscale>  0 0.22659465E+04</rscale>
<asrwt>0</asrwt>
<pdfrwt beam="1">  1        2 0.22687247E+00 0.22659465E+04</pdfrwt>
<pdfrwt beam="2">  1       -2 0.13391548E+00 0.22659465E+04</pdfrwt>
<totfact> 0.48045212E+00</totfact>
</mgrwt>
</event>
<event>
 6    1  0.1885829E-005  0.4503361E+03  0.7818608E-02  0.1027622E+00
         -2   -1    0    0    0  501 -0.00000000000E+00  0.00000000000E+00  0.16146816272E+02  0.16146816272E+02  0.00000000000E+00 0.  1.
          2   -1    0    0  501    0  0.00000000000E+00 -0.00000000000E+00 -0.31399783738E+04  0.31399783738E+04  0.00000000000E+00 0. -1.
         23    2    1    2    0    0 -0.11685468482E+03 -0.13072243326E+03 -0.25092536719E+04  0.25170247681E+04  0.91193865557E+02 0.  0.
         13    1    3    3    0    0 -0.79605657451E+02 -0.69784370184E+02 -0.90302784137E+03  0.90921185722E+03  0.00000000000E+00 0.  1.
        -13    1    3    3    0    0 -0.37249027366E+02 -0.60938063076E+02 -0.16062258306E+04  0.16078129109E+04  0.00000000000E+00 0. -1.
         22    1    1    2    0    0  0.11685468482E+03  0.13072243326E+03 -0.61457788555E+03  0.63910042195E+03  0.00000000000E+00 0.  1.
<mgrwt>
<rscale>  0 0.45033611E+03</rscale>
<asrwt>0</asrwt>
<pdfrwt beam="1">  1        2 0.48307352E+00 0.45033611E+03</pdfrwt>
<pdfrwt beam="2">  1       -2 0.24841260E-02 0.45033611E+03</pdfrwt>
<totfact> 0.93641589E+02</totfact>
</mgrwt>
</event>
<event>
 6    1  0.1885829E-005  0.1784577E+04  0.7818608E-02  0.8714545E-01
          2   -1    0    0  501    0  0.00000000000E+00  0.00000000000E+00  0.97863521342E+03  0.97863521342E+03  0.00000000000E+00 0. -1.
         -2   -1    0    0    0  501 -0.00000000000E+00 -0.00000000000E+00 -0.81356026480E+03  0.81356026480E+03  0.00000000000E+00 0.  1.
         23    2    1    2    0    0 -0.55361742771E+03 -0.35237291401E+03  0.68646946430E+03  0.95403608540E+03  0.91025271386E+02 0.  0.
         13    1    3    3    0    0 -0.15724617678E+03 -0.11733610644E+03  0.15098910448E+03  0.24757187170E+03  0.00000000000E+00 0. -1.
        -13    1    3    3    0    0 -0.39637125093E+03 -0.23503680757E+03  0.53548035983E+03  0.70646421370E+03  0.00000000000E+00 0.  1.
         22    1    1    2    0    0  0.55361742771E+03  0.35237291401E+03 -0.52139451569E+03  0.83815939282E+03  0.00000000000E+00 0.  1.
<mgrwt>
<rscale>  0 0.17845770E+04</rscale>
<asrwt>0</asrwt>
<pdfrwt beam="1">  1        2 0.15055926E+00 0.17845770E+04</pdfrwt>
<pdfrwt beam="2">  1       -2 0.12516312E+00 0.17845770E+04</pdfrwt>
<totfact> 0.11746657E+01</totfact>
</mgrwt>
</event>
<event>
 6    1  0.1918136E-005  0.2767111E+04  0.7818608E-02  0.8313552E-01
          2   -1    0    0  501    0  0.00000000000E+00  0.00000000000E+00  0.13008456717E+04  0.13008456717E+04  0.00000000000E+00 0. -1.
         -2   -1    0    0    0  501 -0.00000000000E+00 -0.00000000000E+00 -0.14715244686E+04  0.14715244686E+04  0.00000000000E+00 0.  1.
         23    2    1    2    0    0 -0.10916270544E+04 -0.26633438045E+03 -0.89206011240E+03  0.14370894094E+04  0.82892088624E+02 0.  0.
         11    1    3    3    0    0 -0.49871518405E+03 -0.11934976146E+03 -0.45989918837E+03  0.68881671279E+03  0.00000000000E+00 0. -1.
        -11    1    3    3    0    0 -0.59291187033E+03 -0.14698461899E+03 -0.43216092403E+03  0.74827269659E+03  0.00000000000E+00 0.  1.
         22    1    1    2    0    0  0.10916270544E+04  0.26633438045E+03  0.72138131544E+03  0.13352807309E+04  0.00000000000E+00 0. -1.
<mgrwt>
<rscale>  0 0.27671113E+04</rscale>
<asrwt>0</asrwt>
<pdfrwt beam="1">  1        2 0.20013010E+00 0.27671113E+04</pdfrwt>
<pdfrwt beam="2">  1       -2 0.22638838E+00 0.27671113E+04</pdfrwt>
<totfact> 0.12977644E+00</totfact>
</mgrwt>
</event>
<event>
 6    1  0.1885829E-005  0.2430228E+04  0.7818608E-02  0.8428273E-01
          2   -1    0    0  501    0  0.00000000000E+00  0.00000000000E+00  0.22935061472E+04  0.22935061472E+04  0.00000000000E+00 0. -1.
         -2   -1    0    0    0  501 -0.00000000000E+00 -0.00000000000E+00 -0.64377498153E+03  0.64377498153E+03  0.00000000000E+00 0.  1.
         23    2    1    2    0    0  0.71307401109E+01 -0.63291657872E+03 -0.42514655033E+03  0.76800664646E+03  0.91925930438E+02 0.  0.
         11    1    3    3    0    0  0.31722972446E+02 -0.31036738704E+03 -0.25232359450E+03  0.40124987011E+03  0.00000000000E+00 0.  1.
        -11    1    3    3    0    0 -0.24592232335E+02 -0.32254919167E+03 -0.17282295583E+03  0.36675677635E+03  0.00000000000E+00 0. -1.
         22    1    1    2    0    0 -0.71307401109E+01  0.63291657872E+03  0.20748777160E+04  0.21692744823E+04  0.00000000000E+00 0. -1.
<mgrwt>
<rscale>  0 0.24302279E+04</rscale>
<asrwt>0</asrwt>
<pdfrwt beam="1">  1        2 0.35284710E+00 0.24302279E+04</pdfrwt>
<pdfrwt beam="2">  1       -2 0.99042306E-01 0.24302279E+04</pdfrwt>
<totfact> 0.34652638E+00</totfact>
</mgrwt>
</event>
<event>
 6    1  0.1885829E-005  0.1367380E+04  0.7818608E-02  0.8977775E-01
          2   -1    0    0  501    0  0.00000000000E+00  0.00000000000E+00  0.25202368690E+03  0.25202368690E+03  0.00000000000E+00 0. -1.
         -2   -1    0    0    0  501 -0.00000000000E+00 -0.00000000000E+00 -0.18547133131E+04  0.18547133131E+04  0.00000000000E+00 0.  1.
         23    2    1    2    0    0  0.30051905132E+03 -0.43247582793E+03 -0.14692290698E+04  0.15634518428E+04  0.91654585873E+02 0.  0.
         13    1    3    3    0    0  0.10865997369E+03 -0.18194940914E+03 -0.46972840614E+03  0.51532257170E+03  0.00000000000E+00 0. -1.
        -13    1    3    3    0    0  0.19185907763E+03 -0.25052641879E+03 -0.99950066366E+03  0.10481292711E+04  0.00000000000E+00 0.  1.
         22    1    1    2    0    0 -0.30051905132E+03  0.43247582793E+03 -0.13346055638E+03  0.54328515722E+03  0.00000000000E+00 0. -1.
<mgrwt>
<rscale>  0 0.13673795E+04</rscale>
<asrwt>0</asrwt>
<pdfrwt beam="1">  1        2 0.38772875E-01 0.13673795E+04</pdfrwt>
<pdfrwt beam="2">  1       -2 0.28534051E+00 0.13673795E+04</pdfrwt>
<totfact> 0.51041751E+00</totfact>
</mgrwt>
</event>
<event>
 6    1  0.1885829E-005  0.7894292E+03  0.7818608E-02  0.9575445E-01
          2   -1    0    0  501    0  0.00000000000E+00  0.00000000000E+00  0.72473221559E+03  0.72473221559E+03  0.00000000000E+00 0. -1.
         -2   -1    0    0    0  501 -0.00000000000E+00 -0.00000000000E+00 -0.21497539977E+03  0.21497539977E+03  0.00000000000E+00 0.  1.
         23    2    1    2    0    0  0.26004204052E+03  0.11043521501E+03 -0.62671634488E+02  0.30135651270E+03  0.84084567115E+02 0.  0.
         11    1    3    3    0    0  0.78219304215E+02 -0.44374319370E+01 -0.40954422125E+01  0.78452042682E+02  0.00000000000E+00 0. -1.
        -11    1    3    3    0    0  0.18182273631E+03  0.11487264694E+03 -0.58576192276E+02  0.22290447002E+03  0.00000000000E+00 0.  1.
         22    1    1    2    0    0 -0.26004204052E+03 -0.11043521501E+03  0.57242845031E+03  0.63835110267E+03  0.00000000000E+00 0. -1.
<mgrwt>
<rscale>  0 0.78942916E+03</rscale>
<asrwt>0</asrwt>
<pdfrwt beam="1">  1        2 0.11149726E+00 0.78942916E+03</pdfrwt>
<pdfrwt beam="2">  1       -2 0.33073139E-01 0.78942916E+03</pdfrwt>
<totfact> 0.33621824E+02</totfact>
</mgrwt>
</event>
<event>
 6    1  0.1885829E-005  0.3659031E+04  0.7818608E-02  0.8077102E-01
         -2   -1    0    0    0  501 -0.00000000000E+00  0.00000000000E+00  0.10999565896E+04  0.10999565896E+04  0.00000000000E+00 0.  1.
          2   -1    0    0  501    0  0.00000000000E+00 -0.00000000000E+00 -0.30429630404E+04  0.30429630404E+04  0.00000000000E+00 0. -1.
         23    2    1    2    0    0 -0.16398291691E+04 -0.48163666469E+03 -0.23667553857E+03  0.17278463884E+04  0.91783717715E+02 0.  0.
         11    1    3    3    0    0 -0.72074355228E+03 -0.16453452104E+03 -0.97735478185E+02  0.74571784239E+03  0.00000000000E+00 0. -1.
        -11    1    3    3    0    0 -0.91908561678E+03 -0.31710214366E+03 -0.13894006038E+03  0.98212854600E+03  0.00000000000E+00 0.  1.
         22    1    1    2    0    0  0.16398291691E+04  0.48163666469E+03 -0.17063309122E+04  0.24150732416E+04  0.00000000000E+00 0. -1.
<mgrwt>
<rscale>  0 0.36590312E+04</rscale>
<asrwt>0</asrwt>
<pdfrwt beam="1">  1        2 0.46814816E+00 0.36590312E+04</pdfrwt>
<pdfrwt beam="2">  1       -2 0.16922409E+00 0.36590312E+04</pdfrwt>
<totfact> 0.28622691E-01</totfact>
</mgrwt>
</event>
<event>
 6    1  0.1885829E-005  0.2302810E+04  0.7818608E-02  0.8476814E-01
         -2   -1    0    0    0  501 -0.00000000000E+00  0.00000000000E+00  0.64990528607E+03  0.64990528607E+03  0.00000000000E+00 0.  1.
          2   -1    0    0  501    0  0.00000000000E+00 -0.00000000000E+00 -0.20398871417E+04  0.20398871417E+04  0.00000000000E+00 0. -1.
         23    2    1    2    0    0 -0.89063455731E+03 -0.82420632374E+02  0.14753533798E+03  0.91103381684E+03  0.90514441765E+02 0.  0.
         13    1    3    3    0    0 -0.47306836605E+03 -0.29928378202E+02  0.12170670901E+03  0.48938932334E+03  0.00000000000E+00 0. -1.
        -13    1    3    3    0    0 -0.41756619125E+03 -0.52492254172E+02  0.25828628972E+02  0.42164449350E+03  0.00000000000E+00 0.  1.
         22    1    1    2    0    0  0.89063455731E+03  0.82420632374E+02 -0.15375171936E+04  0.17787586110E+04  0.00000000000E+00 0. -1.
<mgrwt>
<rscale>  0 0.23028100E+04</rscale>
<asrwt>0</asrwt>
<pdfrwt beam="1">  1        2 0.31382879E+00 0.23028100E+04</pdfrwt>
<pdfrwt beam="2">  1       -2 0.99985428E-01 0.23028100E+04</pdfrwt>
<totfact> 0.47540597E+00</totfact>
</mgrwt>
</event>
<event>
 6    1  0.1885829E-005  0.2112889E+04  0.7818608E-02  0.8555587E-01
          2   -1    0    0  501    0  0.00000000000E+00  0.00000000000E+00  0.68657489407E+03  0.68657489407E+03  0.00000000000E+00 0. -1.
         -2   -1    0    0    0  501 -0.00000000000E+00 -0.00000000000E+00 -0.16255699253E+04  0.16255699253E+04  0.00000000000E+00 0.  1.
         23    2    1    2    0    0 -0.18513513069E+03  0.36627601002E+03  0.59258162632E+03  0.72653446682E+03  0.90918730134E+02 0.  0.
         11    1    3    3    0    0 -0.48698211337E+01  0.56628423945E+02  0.46665981081E+02  0.73540515001E+02  0.00000000000E+00 0. -1.
        -11    1    3    3    0    0 -0.18026530956E+03  0.30964758608E+03  0.54591564524E+03  0.65299395182E+03  0.00000000000E+00 0.  1.
         22    1    1    2    0    0  0.18513513069E+03 -0.36627601002E+03 -0.15315766575E+04  0.15856103525E+04  0.00000000000E+00 0.  1.
<mgrwt>
<rscale>  0 0.21128895E+04</rscale>
<asrwt>0</asrwt>
<pdfrwt beam="1">  1        2 0.10562691E+00 0.21128895E+04</pdfrwt>
<pdfrwt beam="2">  1       -2 0.25008768E+00 0.21128895E+04</pdfrwt>
<totfact> 0.24803933E+00</totfact>
</mgrwt>
</event>
<event>
 6    1  0.1885829E-005  0.1601770E+04  0.7818608E-02  0.8819461E-01
          2   -1    0    0  501    0  0.00000000000E+00  0.00000000000E+00  0.50302365331E+03  0.50302365331E+03  0.00000000000E+00 0. -1.
         -2   -1    0    0    0  501 -0.00000000000E+00 -0.00000000000E+00 -0.12751228066E+04  0.12751228066E+04  0.00000000000E+00 0.  1.
         23    2    1    2    0    0  0.29716008091E+03 -0.55736994475E+03  0.15460221345E+03  0.65665602656E+03  0.91268416292E+02 0.  0.
         13    1    3    3    0    0  0.16263009292E+03 -0.26619403243E+03  0.11926311459E+03  0.33396332213E+03  0.00000000000E+00 0.  1.
        -13    1    3    3    0    0  0.13452998799E+03 -0.29117591232E+03  0.35339098861E+02  0.32269270443E+03  0.00000000000E+00 0. -1.
         22    1    1    2    0    0 -0.29716008091E+03  0.55736994475E+03 -0.92670136677E+03  0.11214904334E+04  0.00000000000E+00 0.  1.
<mgrwt>
<rscale>  0 0.16017702E+04</rscale>
<asrwt>0</asrwt>
<pdfrwt beam="1">  1        2 0.77388256E-01 0.16017702E+04</pdfrwt>
<pdfrwt beam="2">  1       -2 0.19617274E+00 0.16017702E+04</pdfrwt>
<totfact> 0.82564673E+00</totfact>
</mgrwt>
</event>
<event>
 6    1  0.1885829E-005  0.1533650E+04  0.7818608E-02  0.8862379E-01
          2   -1    0    0  501    0  0.00000000000E+00  0.00000000000E+00  0.95771781183E+03  0.95771781183E+03  0.00000000000E+00 0. -1.
         -2   -1    0    0    0  501 -0.00000000000E+00 -0.00000000000E+00 -0.61398104741E+03  0.61398104741E+03  0.00000000000E+00 0.  1.
         23    2    1    2    0    0 -0.50316813474E+03  0.44626093124E+03 -0.19862522059E+03  0.70770608533E+03  0.95230952921E+02 0.  0.
         13    1    3    3    0    0 -0.28322002966E+03  0.21099574200E+03 -0.65436504968E+02  0.35918619757E+03  0.00000000000E+00 0. -1.
        -13    1    3    3    0    0 -0.21994810508E+03  0.23526518924E+03 -0.13318871563E+03  0.34851988776E+03  0.00000000000E+00 0.  1.
         22    1    1    2    0    0  0.50316813474E+03 -0.44626093124E+03  0.54236198502E+03  0.86399277391E+03  0.00000000000E+00 0.  1.
<mgrwt>
<rscale>  0 0.15336500E+04</rscale>
<asrwt>0</asrwt>
<pdfrwt beam="1">  1        2 0.14734120E+00 0.15336500E+04</pdfrwt>
<pdfrwt beam="2">  1       -2 0.94458622E-01 0.15336500E+04</pdfrwt>
<totfact> 0.24433171E+01</totfact>
</mgrwt>
</event>
<event>
 6    1  0.1885829E-005  0.3399673E+04  0.7818608E-02  0.8137987E-01
          2   -1    0    0  501    0  0.00000000000E+00  0.00000000000E+00  0.24717090971E+04  0.24717090971E+04  0.00000000000E+00 0. -1.
         -2   -1    0    0    0  501 -0.00000000000E+00 -0.00000000000E+00 -0.11690064978E+04  0.11690064978E+04  0.00000000000E+00 0.  1.
         23    2    1    2    0    0 -0.13770849703E+04  0.87485278600E+03  0.11584094711E+04  0.20028661148E+04  0.88485921346E+02 0.  0.
         13    1    3    3    0    0 -0.12979635607E+03  0.11251323827E+03  0.13363411094E+03  0.21763363352E+03  0.00000000000E+00 0. -1.
        -13    1    3    3    0    0 -0.12472886143E+04  0.76233954773E+03  0.10247753602E+04  0.17852324813E+04  0.00000000000E+00 0.  1.
         22    1    1    2    0    0  0.13770849703E+04 -0.87485278600E+03  0.14429312809E+03  0.16378494801E+04  0.00000000000E+00 0.  1.
<mgrwt>
<rscale>  0 0.33996729E+04</rscale>
<asrwt>0</asrwt>
<pdfrwt beam="1">  1        2 0.38026294E+00 0.33996729E+04</pdfrwt>
<pdfrwt beam="2">  1       -2 0.17984715E+00 0.33996729E+04</pdfrwt>
<totfact> 0.54430533E-01</totfact>
</mgrwt>
</event>
<event>
 6    1  0.1885829E-005  0.2986006E+04  0.7818608E-02  0.8247738E-01
          2   -1    0    0  501    0  0.00000000000E+00  0.00000000000E+00  0.28031430323E+04  0.28031430323E+04  0.00000000000E+00 0.  1.
         -2   -1    0    0    0  501 -0.00000000000E+00 -0.00000000000E+00 -0.79519937968E+03  0.79519937968E+03  0.00000000000E+00 0. -1.
         23    2    1    2    0    0  0.23510640231E+03  0.12652210251E+04  0.96127153565E+02  0.12937596756E+04  0.92273539098E+02 0.  0.
         11    1    3    3    0    0  0.17507238954E+03  0.11092266537E+04  0.78884347225E+02  0.11257250335E+04  0.00000000000E+00 0. -1.
        -11    1    3    3    0    0  0.60034012764E+02  0.15599437139E+03  0.17242806340E+02  0.16803464216E+03  0.00000000000E+00 0.  1.
         22    1    1    2    0    0 -0.23510640231E+03 -0.12652210251E+04  0.19118164991E+04  0.23045827364E+04  0.00000000000E+00 0.  1.
<mgrwt>
<rscale>  0 0.29860058E+04</rscale>
<asrwt>0</asrwt>
<pdfrwt beam="1">  1        2 0.43125277E+00 0.29860058E+04</pdfrwt>
<pdfrwt beam="2">  1       -2 0.12233837E+00 0.29860058E+04</pdfrwt>
<totfact> 0.99802854E-01</totfact>
</mgrwt>
</event>
<event>
 6    1  0.1885829E-005  0.2117078E+04  0.7818608E-02  0.8553757E-01
         -2   -1    0    0    0  501 -0.00000000000E+00  0.00000000000E+00  0.67551794941E+03  0.67551794941E+03  0.00000000000E+00 0.  1.
          2   -1    0    0  501    0  0.00000000000E+00 -0.00000000000E+00 -0.16587343048E+04  0.16587343048E+04  0.00000000000E+00 0. -1.
         23    2    1    2    0    0  0.49241803653E+03  0.79551770620E+03 -0.10337461990E+04  0.13973012370E+04  0.92171574969E+02 0.  0.
         11    1    3    3    0    0  0.35468334325E+03  0.60682116909E+03 -0.82698522643E+03  0.10853279550E+04  0.00000000000E+00 0.  1.
        -11    1    3    3    0    0  0.13773469328E+03  0.18869653711E+03 -0.20676097260E+03  0.31197328193E+03  0.00000000000E+00 0. -1.
         22    1    1    2    0    0 -0.49241803653E+03 -0.79551770620E+03  0.50529843672E+02  0.93695101723E+03  0.00000000000E+00 0. -1.
<mgrwt>
<rscale>  0 0.21170780E+04</rscale>
<asrwt>0</asrwt>
<pdfrwt beam="1">  1        2 0.25518989E+00 0.21170780E+04</pdfrwt>
<pdfrwt beam="2">  1       -2 0.10392584E+00 0.21170780E+04</pdfrwt>
<totfact> 0.71701449E+00</totfact>
</mgrwt>
</event>
<event>
 6    1  0.1885829E-005  0.1826615E+04  0.7818608E-02  0.8692273E-01
          2   -1    0    0  501    0  0.00000000000E+00  0.00000000000E+00  0.11450469708E+04  0.11450469708E+04  0.00000000000E+00 0. -1.
         -2   -1    0    0    0  501 -0.00000000000E+00 -0.00000000000E+00 -0.72846826921E+03  0.72846826921E+03  0.00000000000E+00 0.  1.
         23    2    1    2    0    0 -0.40937340121E+03 -0.30078435478E+03 -0.56678056453E+03  0.76669400061E+03  0.92312905674E+02 0.  0.
         11    1    3    3    0    0 -0.10072298372E+03 -0.12047887283E+03 -0.20341785320E+03  0.25698074100E+03  0.00000000000E+00 0.  1.
        -11    1    3    3    0    0 -0.30865041749E+03 -0.18030548195E+03 -0.36336271133E+03  0.50971325961E+03  0.00000000000E+00 0. -1.
         22    1    1    2    0    0  0.40937340121E+03  0.30078435478E+03  0.98335926610E+03  0.11068212394E+04  0.00000000000E+00 0. -1.
<mgrwt>
<rscale>  0 0.18266148E+04</rscale>
<asrwt>0</asrwt>
<pdfrwt beam="1">  1        2 0.17616107E+00 0.18266148E+04</pdfrwt>
<pdfrwt beam="2">  1       -2 0.11207204E+00 0.18266148E+04</pdfrwt>
<totfact> 0.12095148E+01</totfact>
</mgrwt>
</event>
<event>
 6    1  0.1885829E-005  0.2558599E+04  0.7818608E-02  0.8382402E-01
          2   -1    0    0  501    0  0.00000000000E+00  0.00000000000E+00  0.24046020541E+04  0.24046020541E+04  0.00000000000E+00 0. -1.
         -2   -1    0    0    0  501 -0.00000000000E+00 -0.00000000000E+00 -0.68061471913E+03  0.68061471913E+03  0.00000000000E+00 0.  1.
         23    2    1    2    0    0  0.58244596493E+03  0.33588908218E+03  0.21731903569E+04  0.22766080096E+04  0.90127268585E+02 0.  0.
         13    1    3    3    0    0  0.11636204720E+03  0.75484123425E+02  0.57943050995E+03  0.59580004597E+03  0.00000000000E+00 0. -1.
        -13    1    3    3    0    0  0.46608391773E+03  0.26040495875E+03  0.15937598470E+04  0.16808079637E+04  0.00000000000E+00 0.  1.
         22    1    1    2    0    0 -0.58244596493E+03 -0.33588908218E+03 -0.44920302196E+03  0.80860876358E+03  0.00000000000E+00 0.  1.
<mgrwt>
<rscale>  0 0.25585993E+04</rscale>
<asrwt>0</asrwt>
<pdfrwt beam="1">  1        2 0.36993877E+00 0.25585993E+04</pdfrwt>
<pdfrwt beam="2">  1       -2 0.10470996E+00 0.25585993E+04</pdfrwt>
<totfact> 0.25947910E+00</totfact>
</mgrwt>
</event>
<event>
 6    1  0.1885829E-005  0.1643844E+04  0.7818608E-02  0.8794057E-01
          2   -1    0    0  501    0  0.00000000000E+00  0.00000000000E+00  0.77213917414E+03  0.77213917414E+03  0.00000000000E+00 0. -1.
         -2   -1    0    0    0  501 -0.00000000000E+00 -0.00000000000E+00 -0.87491408097E+03  0.87491408097E+03  0.00000000000E+00 0.  1.
         23    2    1    2    0    0 -0.13314796199E+03  0.74633107469E+03 -0.36277778961E+03  0.84559211951E+03  0.93165740031E+02 0.  0.
         11    1    3    3    0    0 -0.13445954374E+03  0.51320467746E+03 -0.24398791723E+03  0.58394221771E+03  0.00000000000E+00 0.  1.
        -11    1    3    3    0    0  0.13115817559E+01  0.23312639723E+03 -0.11878987238E+03  0.26164990180E+03  0.00000000000E+00 0. -1.
         22    1    1    2    0    0  0.13314796199E+03 -0.74633107469E+03  0.26000288278E+03  0.80146113561E+03  0.00000000000E+00 0. -1.
<mgrwt>
<rscale>  0 0.16438436E+04</rscale>
<asrwt>0</asrwt>
<pdfrwt beam="1">  1        2 0.11879064E+00 0.16438436E+04</pdfrwt>
<pdfrwt beam="2">  1       -2 0.13460217E+00 0.16438436E+04</pdfrwt>
<totfact> 0.13710851E+01</totfact>
</mgrwt>
</event>
<event>
 6    1  0.1885829E-005  0.2371251E+04  0.7818608E-02  0.8450346E-01
         -2   -1    0    0    0  501 -0.00000000000E+00  0.00000000000E+00  0.15567281491E+04  0.15567281491E+04  0.00000000000E+00 0. -1.
          2   -1    0    0  501    0  0.00000000000E+00 -0.00000000000E+00 -0.90298877146E+03  0.90298877146E+03  0.00000000000E+00 0.  1.
         23    2    1    2    0    0 -0.75444761138E+03 -0.45416246707E+03  0.11481188617E+04  0.14498328584E+04  0.91562283969E+02 0.  0.
         13    1    3    3    0    0 -0.25550125449E+03 -0.20148751021E+03  0.44990156762E+03  0.55523826270E+03  0.00000000000E+00 0. -1.
        -13    1    3    3    0    0 -0.49894635689E+03 -0.25267495686E+03  0.69821729410E+03  0.89459459570E+03  0.00000000000E+00 0.  1.
         22    1    1    2    0    0  0.75444761138E+03  0.45416246707E+03 -0.49437948405E+03  0.10098840622E+04  0.00000000000E+00 0. -1.
<mgrwt>
<rscale>  0 0.23712512E+04</rscale>
<asrwt>0</asrwt>
<pdfrwt beam="1">  1        2 0.13892135E+00 0.23712512E+04</pdfrwt>
<pdfrwt beam="2">  1       -2 0.23949664E+00 0.23712512E+04</pdfrwt>
<totfact> 0.19622833E+00</totfact>
</mgrwt>
</event>
<event>
 6    1  0.1885829E-005  0.3086018E+04  0.7818608E-02  0.8219586E-01
          4   -1    0    0  501    0  0.00000000000E+00  0.00000000000E+00  0.21545153168E+04  0.21545153168E+04  0.00000000000E+00 0. -1.
         -4   -1    0    0    0  501 -0.00000000000E+00 -0.00000000000E+00 -0.11050638117E+04  0.11050638117E+04  0.00000000000E+00 0.  1.
         23    2    1    2    0    0  0.15310187193E+04  0.76019289830E+02  0.69895733325E+03  0.16871150062E+04  0.89545738042E+02 0.  0.
         11    1    3    3    0    0  0.11445663034E+04  0.71986621574E+02  0.48291701306E+03  0.12443564353E+04  0.00000000000E+00 0.  1.
        -11    1    3    3    0    0  0.38645241589E+03  0.40326682567E+01  0.21604032019E+03  0.44275857090E+03  0.00000000000E+00 0. -1.
         22    1    1    2    0    0 -0.15310187193E+04 -0.76019289830E+02  0.35049417181E+03  0.15724641222E+04  0.00000000000E+00 0. -1.
<mgrwt>
<rscale>  0 0.30860181E+04</rscale>
<asrwt>0</asrwt>
<pdfrwt beam="1">  1        4 0.33146389E+00 0.30860181E+04</pdfrwt>
<pdfrwt beam="2">  1       -4 0.17000982E+00 0.30860181E+04</pdfrwt>
<totfact> 0.69629196E-03</totfact>
</mgrwt>
</event>
<event>
 6    1  0.1885829E-005  0.3218580E+04  0.7818608E-02  0.8183927E-01
         -2   -1    0    0    0  501 -0.00000000000E+00  0.00000000000E+00  0.78512470958E+03  0.78512470958E+03  0.00000000000E+00 0.  1.
          2   -1    0    0  501    0  0.00000000000E+00 -0.00000000000E+00 -0.32986030411E+04  0.32986030411E+04  0.00000000000E+00 0. -1.
         23    2    1    2    0    0  0.13936820253E+04  0.28887492777E+02 -0.22752810991E+04  0.26695417670E+04  0.79781521905E+02 0.  0.
         13    1    3    3    0    0  0.78981404307E+03 -0.19542291028E+02 -0.13193836653E+04  0.15378430934E+04  0.00000000000E+00 0. -1.
        -13    1    3    3    0    0  0.60386798220E+03  0.48429783805E+02 -0.95589743380E+03  0.11316986736E+04  0.00000000000E+00 0.  1.
         22    1    1    2    0    0 -0.13936820253E+04 -0.28887492777E+02 -0.23819723240E+03  0.14141859836E+04  0.00000000000E+00 0. -1.
<mgrwt>
<rscale>  0 0.32185803E+04</rscale>
<asrwt>0</asrwt>
<pdfrwt beam="1">  1        2 0.50747739E+00 0.32185803E+04</pdfrwt>
<pdfrwt beam="2">  1       -2 0.12078842E+00 0.32185803E+04</pdfrwt>
<totfact> 0.48976435E-01</totfact>
</mgrwt>
</event>
<event>
 6    1  0.1885829E-005  0.1003390E+04  0.7818608E-02  0.9304835E-01
          2   -1    0    0  501    0  0.00000000000E+00  0.00000000000E+00  0.14899384204E+04  0.14899384204E+04  0.00000000000E+00 0. -1.
         -2   -1    0    0    0  501 -0.00000000000E+00 -0.00000000000E+00 -0.16893168502E+03  0.16893168502E+03  0.00000000000E+00 0.  1.
         23    2    1    2    0    0  0.31178227930E+02 -0.43643757669E+03  0.10570929062E+04  0.11478903118E+04  0.93578391494E+02 0.  0.
         13    1    3    3    0    0  0.16547744871E+02 -0.11907491060E+03  0.40594282488E+03  0.42337009727E+03  0.00000000000E+00 0. -1.
        -13    1    3    3    0    0  0.14630483059E+02 -0.31736266608E+03  0.65115008133E+03  0.72452021454E+03  0.00000000000E+00 0.  1.
         22    1    1    2    0    0 -0.31178227930E+02  0.43643757669E+03  0.26391382917E+03  0.51097979360E+03  0.00000000000E+00 0.  1.
<mgrwt>
<rscale>  0 0.10033899E+04</rscale>
<asrwt>0</asrwt>
<pdfrwt beam="1">  1        2 0.22922129E+00 0.10033899E+04</pdfrwt>
<pdfrwt beam="2">  1       -2 0.25989491E-01 0.10033899E+04</pdfrwt>
<totfact> 0.17145708E+02</totfact>
</mgrwt>
</event>
<event>
 6    1  0.1885829E-005  0.1166659E+04  0.7818608E-02  0.9142551E-01
          1   -1    0    0  501    0  0.00000000000E+00  0.00000000000E+00  0.18470031186E+04  0.18470031186E+04  0.00000000000E+00 0. -1.
         -1   -1    0    0    0  501 -0.00000000000E+00 -0.00000000000E+00 -0.18423004160E+03  0.18423004160E+03  0.00000000000E+00 0.  1.
         23    2    1    2    0    0  0.53477219133E+02 -0.33055571125E+03  0.12645474720E+02  0.34747308375E+03  0.91927932079E+02 0.  0.
         13    1    3    3    0    0 -0.20092870091E+02 -0.16220147890E+03  0.23634420711E+01  0.16345834040E+03  0.00000000000E+00 0.  1.
        -13    1    3    3    0    0  0.73570089223E+02 -0.16835423235E+03  0.10282032649E+02  0.18401474336E+03  0.00000000000E+00 0. -1.
         22    1    1    2    0    0 -0.53477219133E+02  0.33055571125E+03  0.16501276023E+04  0.16837600764E+04  0.00000000000E+00 0. -1.
<mgrwt>
<rscale>  0 0.11666593E+04</rscale>
<asrwt>0</asrwt>
<pdfrwt beam="1">  1        1 0.28415431E+00 0.11666593E+04</pdfrwt>
<pdfrwt beam="2">  1       -1 0.28343085E-01 0.11666593E+04</pdfrwt>
<totfact> 0.42373676E+01</totfact>
</mgrwt>
</event>
<event>
 6    1  0.1885829E-005  0.2876116E+04  0.7818608E-02  0.8280019E-01
         -2   -1    0    0    0  501 -0.00000000000E+00  0.00000000000E+00  0.19579767997E+04  0.19579767997E+04  0.00000000000E+00 0.  1.
          2   -1    0    0  501    0  0.00000000000E+00 -0.00000000000E+00 -0.10561980727E+04  0.10561980727E+04  0.00000000000E+00 0. -1.
         23    2    1    2    0    0 -0.14160393860E+04 -0.24058635079E+03  0.41903460499E+03  0.14988890175E+04  0.89604417023E+02 0.  0.
         11    1    3    3    0    0 -0.79098588303E+03 -0.16380546929E+03  0.27050096072E+03  0.85185777491E+03  0.00000000000E+00 0. -1.
        -11    1    3    3    0    0 -0.62505350300E+03 -0.76780881507E+02  0.14853364428E+03  0.64703124257E+03  0.00000000000E+00 0.  1.
         22    1    1    2    0    0  0.14160393860E+04  0.24058635079E+03  0.48274412196E+03  0.15152858550E+04  0.00000000000E+00 0.  1.
<mgrwt>
<rscale>  0 0.28761164E+04</rscale>
<asrwt>0</asrwt>
<pdfrwt beam="1">  1        2 0.16249201E+00 0.28761164E+04</pdfrwt>
<pdfrwt beam="2">  1       -2 0.30122720E+00 0.28761164E+04</pdfrwt>
<totfact> 0.62666580E-01</totfact>
</mgrwt>
</event>
<event>
 6    1  0.1885829E-005  0.3924265E+04  0.7818608E-02  0.8020001E-01
          2   -1    0    0  501    0  0.00000000000E+00  0.00000000000E+00  0.19675520954E+04  0.19675520954E+04  0.00000000000E+00 0. -1.
         -2   -1    0    0    0  501 -0.00000000000E+00 -0.00000000000E+00 -0.19567274466E+04  0.19567274466E+04  0.00000000000E+00 0.  1.
         23    2    1    2    0    0 -0.12838161968E+04 -0.43005797239E+03 -0.14132643769E+04  0.19592952062E+04  0.91583945443E+02 0.  0.
         11    1    3    3    0    0 -0.13419569015E+03 -0.58591130782E+02 -0.19143890952E+03  0.24101921072E+03  0.00000000000E+00 0.  1.
        -11    1    3    3    0    0 -0.11496205067E+04 -0.37146684161E+03 -0.12218254674E+04  0.17182759954E+04  0.00000000000E+00 0. -1.
         22    1    1    2    0    0  0.12838161968E+04  0.43005797239E+03  0.14240890257E+04  0.19649843358E+04  0.00000000000E+00 0. -1.
<mgrwt>
<rscale>  0 0.39242646E+04</rscale>
<asrwt>0</asrwt>
<pdfrwt beam="1">  1        2 0.30270032E+00 0.39242646E+04</pdfrwt>
<pdfrwt beam="2">  1       -2 0.30103499E+00 0.39242646E+04</pdfrwt>
<totfact> 0.17315741E-01</totfact>
</mgrwt>
</event>
<event>
 6    1  0.1885829E-005  0.1320696E+04  0.7818608E-02  0.9013312E-01
         -2   -1    0    0    0  501 -0.00000000000E+00  0.00000000000E+00  0.16622868138E+03  0.16622868138E+03  0.00000000000E+00 0.  1.
          2   -1    0    0  501    0  0.00000000000E+00 -0.00000000000E+00 -0.26232507064E+04  0.26232507064E+04  0.00000000000E+00 0. -1.
         23    2    1    2    0    0  0.57843303382E+03  0.17017257448E+03 -0.68046714238E+03  0.91339550620E+03  0.87819924689E+02 0.  0.
         11    1    3    3    0    0  0.26234503615E+03  0.62738361788E+02 -0.24269857951E+03  0.36285482018E+03  0.00000000000E+00 0. -1.
        -11    1    3    3    0    0  0.31608799767E+03  0.10743421269E+03 -0.43776856287E+03  0.55054068602E+03  0.00000000000E+00 0.  1.
         22    1    1    2    0    0 -0.57843303382E+03 -0.17017257448E+03 -0.17765548827E+04  0.18760838816E+04  0.00000000000E+00 0. -1.
<mgrwt>
<rscale>  0 0.13206960E+04</rscale>
<asrwt>0</asrwt>
<pdfrwt beam="1">  1        2 0.40357702E+00 0.13206960E+04</pdfrwt>
<pdfrwt beam="2">  1       -2 0.25573644E-01 0.13206960E+04</pdfrwt>
<totfact> 0.39965749E+01</totfact>
</mgrwt>
</event>
<event>
 6    1  0.1885829E-005  0.1346354E+04  0.7818608E-02  0.8993593E-01
          2   -1    0    0  501    0  0.00000000000E+00  0.00000000000E+00  0.60050403201E+03  0.60050403201E+03  0.00000000000E+00 0. -1.
         -2   -1    0    0    0  501 -0.00000000000E+00 -0.00000000000E+00 -0.75464501648E+03  0.75464501648E+03  0.00000000000E+00 0.  1.
         23    2    1    2    0    0 -0.34554043122E+03  0.14561794628E+02 -0.65516240012E+03  0.74635294601E+03  0.90524659715E+02 0.  0.
         13    1    3    3    0    0 -0.15923807356E+03  0.42908861714E+02 -0.36273269792E+03  0.39846322870E+03  0.00000000000E+00 0.  1.
        -13    1    3    3    0    0 -0.18630235766E+03 -0.28347067086E+02 -0.29242970219E+03  0.34788971730E+03  0.00000000000E+00 0. -1.
         22    1    1    2    0    0  0.34554043122E+03 -0.14561794628E+02  0.50102141565E+03  0.60879610249E+03  0.00000000000E+00 0. -1.
<mgrwt>
<rscale>  0 0.13463542E+04</rscale>
<asrwt>0</asrwt>
<pdfrwt beam="1">  1        2 0.92385236E-01 0.13463542E+04</pdfrwt>
<pdfrwt beam="2">  1       -2 0.11609923E+00 0.13463542E+04</pdfrwt>
<totfact> 0.27883581E+01</totfact>
</mgrwt>
</event>
<event>
 6    1  0.1885829E-005  0.3482940E+04  0.7818608E-02  0.8117845E-01
          1   -1    0    0  501    0  0.00000000000E+00  0.00000000000E+00  0.18007585733E+04  0.18007585733E+04  0.00000000000E+00 0. -1.
         -1   -1    0    0    0  501 -0.00000000000E+00 -0.00000000000E+00 -0.16841335008E+04  0.16841335008E+04  0.00000000000E+00 0.  1.
         23    2    1    2    0    0  0.16475928297E+04 -0.32017796542E+03 -0.40169933947E+03  0.17282656885E+04  0.91999286266E+02 0.  0.
         13    1    3    3    0    0  0.78729881138E+03 -0.15419032991E+03 -0.14479840811E+03  0.81521816419E+03  0.00000000000E+00 0.  1.
        -13    1    3    3    0    0  0.86029401837E+03 -0.16598763551E+03 -0.25690093136E+03  0.91304752434E+03  0.00000000000E+00 0. -1.
         22    1    1    2    0    0 -0.16475928297E+04  0.32017796542E+03  0.51832441195E+03  0.17566263855E+04  0.00000000000E+00 0. -1.
<mgrwt>
<rscale>  0 0.34829400E+04</rscale>
<asrwt>0</asrwt>
<pdfrwt beam="1">  1        1 0.27703978E+00 0.34829400E+04</pdfrwt>
<pdfrwt beam="2">  1       -1 0.25909746E+00 0.34829400E+04</pdfrwt>
<totfact> 0.20219925E-01</totfact>
</mgrwt>
</event>
<event>
 6    1  0.1885829E-005  0.1676115E+04  0.7818608E-02  0.8775105E-01
         -2   -1    0    0    0  501 -0.00000000000E+00  0.00000000000E+00  0.14855411734E+04  0.14855411734E+04  0.00000000000E+00 0.  1.
          2   -1    0    0  501    0  0.00000000000E+00 -0.00000000000E+00 -0.47278410100E+03  0.47278410100E+03  0.00000000000E+00 0. -1.
         23    2    1    2    0    0 -0.18487819125E+03 -0.38857564154E+03 -0.32916453558E+03  0.54909691222E+03  0.89370871821E+02 0.  0.
         13    1    3    3    0    0 -0.76275641502E+02 -0.24691978083E+03 -0.22348828724E+03  0.34166411311E+03  0.00000000000E+00 0.  1.
        -13    1    3    3    0    0 -0.10860254975E+03 -0.14165586070E+03 -0.10567624833E+03  0.20743279911E+03  0.00000000000E+00 0. -1.
         22    1    1    2    0    0  0.18487819125E+03  0.38857564154E+03  0.13419216080E+04  0.14092283622E+04  0.00000000000E+00 0.  1.
<mgrwt>
<rscale>  0 0.16761149E+04</rscale>
<asrwt>0</asrwt>
<pdfrwt beam="1">  1        2 0.72736016E-01 0.16761149E+04</pdfrwt>
<pdfrwt beam="2">  1       -2 0.22854479E+00 0.16761149E+04</pdfrwt>
<totfact> 0.54665905E+00</totfact>
</mgrwt>
</event>
<event>
 6    1  0.1885829E-005  0.4752352E+03  0.7818608E-02  0.1020453E+00
         -2   -1    0    0    0  501 -0.00000000000E+00  0.00000000000E+00  0.12440388080E+03  0.12440388080E+03  0.00000000000E+00 0.  1.
          2   -1    0    0  501    0  0.00000000000E+00 -0.00000000000E+00 -0.45386137894E+03  0.45386137894E+03  0.00000000000E+00 0. -1.
         23    2    1    2    0    0  0.64651851458E+02  0.20282414236E+02 -0.43662028762E+03  0.45147763544E+03  0.92755277577E+02 0.  0.
         11    1    3    3    0    0  0.10140199888E+02  0.38178067141E+02 -0.69841373220E+02  0.80238431426E+02  0.00000000000E+00 0. -1.
        -11    1    3    3    0    0  0.54511651570E+02 -0.17895652905E+02 -0.36677891440E+03  0.37123920402E+03  0.00000000000E+00 0.  1.
         22    1    1    2    0    0 -0.64651851458E+02 -0.20282414236E+02  0.10716278948E+03  0.12678762429E+03  0.00000000000E+00 0.  1.
<mgrwt>
<rscale>  0 0.47523517E+03</rscale>
<asrwt>0</asrwt>
<pdfrwt beam="1">  1        2 0.69824827E-01 0.47523517E+03</pdfrwt>
<pdfrwt beam="2">  1       -2 0.19139059E-01 0.47523517E+03</pdfrwt>
<totfact> 0.15829858E+03</totfact>
</mgrwt>
</event>
<event>
 6    1  0.1885829E-005  0.1644161E+04  0.7818608E-02  0.8793868E-01
          2   -1    0    0  501    0  0.00000000000E+00  0.00000000000E+00  0.16316773174E+04  0.16316773174E+04  0.00000000000E+00 0. -1.
         -2   -1    0    0    0  501 -0.00000000000E+00 -0.00000000000E+00 -0.41418526049E+03  0.41418526049E+03  0.00000000000E+00 0.  1.
         23    2    1    2    0    0  0.27169601869E+03  0.69870806879E+03  0.19893009678E+03  0.78115701589E+03  0.92851537933E+02 0.  0.
         11    1    3    3    0    0  0.18011678471E+03  0.41438827915E+03  0.76194666059E+02  0.45821973896E+03  0.00000000000E+00 0.  1.
        -11    1    3    3    0    0  0.91579233980E+02  0.28431978964E+03  0.12273543072E+03  0.32293727693E+03  0.00000000000E+00 0. -1.
         22    1    1    2    0    0 -0.27169601869E+03 -0.69870806879E+03  0.10185619602E+04  0.12647055621E+04  0.00000000000E+00 0. -1.
<mgrwt>
<rscale>  0 0.16441614E+04</rscale>
<asrwt>0</asrwt>
<pdfrwt beam="1">  1        2 0.25102728E+00 0.16441614E+04</pdfrwt>
<pdfrwt beam="2">  1       -2 0.63720810E-01 0.16441614E+04</pdfrwt>
<totfact> 0.23308917E+01</totfact>
</mgrwt>
</event>
<event>
 6    1  0.1885829E-005  0.1055293E+04  0.7818608E-02  0.9249896E-01
          2   -1    0    0  501    0  0.00000000000E+00  0.00000000000E+00  0.10308328771E+04  0.10308328771E+04  0.00000000000E+00 0. -1.
         -2   -1    0    0    0  501 -0.00000000000E+00 -0.00000000000E+00 -0.27008344676E+03  0.27008344676E+03  0.00000000000E+00 0.  1.
         23    2    1    2    0    0  0.96644688262E+02 -0.45660696877E+03  0.67599613577E+03  0.82656071820E+03  0.91660927237E+02 0.  0.
         13    1    3    3    0    0  0.23344100938E+02 -0.36441401686E+02  0.10728503158E+03  0.11568492039E+03  0.00000000000E+00 0.  1.
        -13    1    3    3    0    0  0.73300587324E+02 -0.42016556709E+03  0.56871110420E+03  0.71087579780E+03  0.00000000000E+00 0. -1.
         22    1    1    2    0    0 -0.96644688262E+02  0.45660696877E+03  0.84753294574E+02  0.47435560568E+03  0.00000000000E+00 0.  1.
<mgrwt>
<rscale>  0 0.10552931E+04</rscale>
<asrwt>0</asrwt>
<pdfrwt beam="1">  1        2 0.15858967E+00 0.10552931E+04</pdfrwt>
<pdfrwt beam="2">  1       -2 0.41551300E-01 0.10552931E+04</pdfrwt>
<totfact> 0.13139438E+02</totfact>
</mgrwt>
</event>
<event>
 6    1  0.1885829E-005  0.1578631E+04  0.7818608E-02  0.8833784E-01
          2   -1    0    0  501    0  0.00000000000E+00  0.00000000000E+00  0.10199253940E+04  0.10199253940E+04  0.00000000000E+00 0. -1.
         -2   -1    0    0    0  501 -0.00000000000E+00 -0.00000000000E+00 -0.61084767827E+03  0.61084767827E+03  0.00000000000E+00 0.  1.
         23    2    1    2    0    0  0.77202635135E+03  0.14326220384E+03  0.15461607594E+03  0.80536440234E+03  0.90315798123E+02 0.  0.
         11    1    3    3    0    0  0.62299582451E+03  0.15140727688E+03  0.12526580516E+03  0.65325300059E+03  0.00000000000E+00 0.  1.
        -11    1    3    3    0    0  0.14903052685E+03 -0.81450730384E+01  0.29350270780E+02  0.15211140175E+03  0.00000000000E+00 0. -1.
         22    1    1    2    0    0 -0.77202635135E+03 -0.14326220384E+03  0.25446163977E+03  0.82540866990E+03  0.00000000000E+00 0. -1.
<mgrwt>
<rscale>  0 0.15786311E+04</rscale>
<asrwt>0</asrwt>
<pdfrwt beam="1">  1        2 0.15691160E+00 0.15786311E+04</pdfrwt>
<pdfrwt beam="2">  1       -2 0.93976566E-01 0.15786311E+04</pdfrwt>
<totfact> 0.22461080E+01</totfact>
</mgrwt>
</event>
<event>
 6    1  0.1885829E-005  0.1510294E+04  0.7818608E-02  0.8877636E-01
          2   -1    0    0  501    0  0.00000000000E+00  0.00000000000E+00  0.30041727773E+04  0.30041727773E+04  0.00000000000E+00 0. -1.
         -2   -1    0    0    0  501 -0.00000000000E+00 -0.00000000000E+00 -0.18981840195E+03  0.18981840195E+03  0.00000000000E+00 0.  1.
         23    2    1    2    0    0  0.50791402170E+03  0.22736585215E+03  0.34157641022E+03  0.65937034981E+03  0.91776522178E+02 0.  0.
         13    1    3    3    0    0  0.37022085602E+03  0.18031323717E+03  0.29510355337E+03  0.50661864646E+03  0.00000000000E+00 0. -1.
        -13    1    3    3    0    0  0.13769316568E+03  0.47052614980E+02  0.46472856852E+02  0.15275170335E+03  0.00000000000E+00 0.  1.
         22    1    1    2    0    0 -0.50791402170E+03 -0.22736585215E+03  0.24727779652E+04  0.25346208295E+04  0.00000000000E+00 0. -1.
<mgrwt>
<rscale>  0 0.15102944E+04</rscale>
<asrwt>0</asrwt>
<pdfrwt beam="1">  1        2 0.46218039E+00 0.15102944E+04</pdfrwt>
<pdfrwt beam="2">  1       -2 0.29202833E-01 0.15102944E+04</pdfrwt>
<totfact> 0.18146898E+01</totfact>
</mgrwt>
</event>
<event>
 6    1  0.1885829E-005  0.3280721E+04  0.7818608E-02  0.8167818E-01
          2   -1    0    0  501    0  0.00000000000E+00  0.00000000000E+00  0.25622998779E+04  0.25622998779E+04  0.00000000000E+00 0. -1.
         -2   -1    0    0    0  501 -0.00000000000E+00 -0.00000000000E+00 -0.10501432363E+04  0.10501432363E+04  0.00000000000E+00 0.  1.
         23    2    1    2    0    0 -0.48046484826E+03 -0.14412737563E+04  0.14340295228E+04  0.20911869366E+04  0.92225919267E+02 0.  0.
         13    1    3    3    0    0 -0.35957409030E+03 -0.10129580251E+04  0.96319292800E+03  0.14433011133E+04  0.00000000000E+00 0. -1.
        -13    1    3    3    0    0 -0.12089075796E+03 -0.42831573120E+03  0.47083659483E+03  0.64788582327E+03  0.00000000000E+00 0.  1.
         22    1    1    2    0    0  0.48046484826E+03  0.14412737563E+04  0.78127118765E+02  0.15212561776E+04  0.00000000000E+00 0.  1.
<mgrwt>
<rscale>  0 0.32807206E+04</rscale>
<asrwt>0</asrwt>
<pdfrwt beam="1">  1        2 0.39419998E+00 0.32807206E+04</pdfrwt>
<pdfrwt beam="2">  1       -2 0.16156050E+00 0.32807206E+04</pdfrwt>
<totfact> 0.65692437E-01</totfact>
</mgrwt>
</event>
<event>
 6    1  0.1885829E-005  0.1222582E+04  0.7818608E-02  0.9093317E-01
          2   -1    0    0  501    0  0.00000000000E+00  0.00000000000E+00  0.30334839806E+04  0.30334839806E+04  0.00000000000E+00 0. -1.
         -2   -1    0    0    0  501 -0.00000000000E+00 -0.00000000000E+00 -0.12318404917E+03  0.12318404917E+03  0.00000000000E+00 0.  1.
         23    2    1    2    0    0  0.21328265714E+03  0.42401112362E+03  0.48242077853E+03  0.68283050360E+03  0.90844726303E+02 0.  0.
         11    1    3    3    0    0  0.49512471135E+02  0.99895320538E+02  0.63054839103E+02  0.12808775350E+03  0.00000000000E+00 0.  1.
        -11    1    3    3    0    0  0.16377018601E+03  0.32411580308E+03  0.41936593943E+03  0.55474275010E+03  0.00000000000E+00 0. -1.
         22    1    1    2    0    0 -0.21328265714E+03 -0.42401112362E+03  0.24278791529E+04  0.24738375261E+04  0.00000000000E+00 0. -1.
<mgrwt>
<rscale>  0 0.12225823E+04</rscale>
<asrwt>0</asrwt>
<pdfrwt beam="1">  1        2 0.46668979E+00 0.12225823E+04</pdfrwt>
<pdfrwt beam="2">  1       -2 0.18951394E-01 0.12225823E+04</pdfrwt>
<totfact> 0.38946554E+01</totfact>
</mgrwt>
</event>
<event>
 6    1  0.1885829E-005  0.1744073E+04  0.7818608E-02  0.8736620E-01
         -2   -1    0    0    0  501 -0.00000000000E+00  0.00000000000E+00  0.52163941511E+03  0.52163941511E+03  0.00000000000E+00 0.  1.
          2   -1    0    0  501    0  0.00000000000E+00 -0.00000000000E+00 -0.14578026295E+04  0.14578026295E+04  0.00000000000E+00 0. -1.
         23    2    1    2    0    0 -0.32571802506E+03  0.45348821327E+03 -0.12260363705E+04  0.13503393200E+04  0.92235057358E+02 0.  0.
         13    1    3    3    0    0 -0.18189066240E+03  0.30086211385E+03 -0.84877278674E+03  0.91870423322E+03  0.00000000000E+00 0.  1.
        -13    1    3    3    0    0 -0.14382736267E+03  0.15262609942E+03 -0.37726358380E+03  0.43163508678E+03  0.00000000000E+00 0. -1.
         22    1    1    2    0    0  0.32571802506E+03 -0.45348821327E+03  0.28987315617E+03  0.62910272460E+03  0.00000000000E+00 0.  1.
<mgrwt>
<rscale>  0 0.17440726E+04</rscale>
<asrwt>0</asrwt>
<pdfrwt beam="1">  1        2 0.22427732E+00 0.17440726E+04</pdfrwt>
<pdfrwt beam="2">  1       -2 0.80252219E-01 0.17440726E+04</pdfrwt>
<totfact> 0.17456683E+01</totfact>
</mgrwt>
</event>
<event>
 6    1  0.1885829E-005  0.1951617E+04  0.7818608E-02  0.8629581E-01
         -2   -1    0    0    0  501 -0.00000000000E+00  0.00000000000E+00  0.32744160742E+03  0.32744160742E+03  0.00000000000E+00 0. -1.
          2   -1    0    0  501    0  0.00000000000E+00 -0.00000000000E+00 -0.29080071887E+04  0.29080071887E+04  0.00000000000E+00 0.  1.
         23    2    1    2    0    0  0.38168400516E+02  0.80659688747E+03 -0.21950329476E+04  0.23406355322E+04  0.91376627492E+02 0.  0.
         11    1    3    3    0    0  0.19284888028E+02  0.12666613274E+03 -0.44448847103E+03  0.46258644270E+03  0.00000000000E+00 0. -1.
        -11    1    3    3    0    0  0.18883512488E+02  0.67993075473E+03 -0.17505444765E+04  0.18780490895E+04  0.00000000000E+00 0.  1.
         22    1    1    2    0    0 -0.38168400516E+02 -0.80659688747E+03 -0.38553263376E+03  0.89481326397E+03  0.00000000000E+00 0. -1.
<mgrwt>
<rscale>  0 0.19516173E+04</rscale>
<asrwt>0</asrwt>
<pdfrwt beam="1">  1        2 0.44738571E+00 0.19516173E+04</pdfrwt>
<pdfrwt beam="2">  1       -2 0.50375633E-01 0.19516173E+04</pdfrwt>
<totfact> 0.69199315E+00</totfact>
</mgrwt>
</event>
<event>
 6    1  0.1885829E-005  0.3654640E+04  0.7818608E-02  0.8078089E-01
         -2   -1    0    0    0  501 -0.00000000000E+00  0.00000000000E+00  0.21469927646E+04  0.21469927646E+04  0.00000000000E+00 0.  1.
          2   -1    0    0  501    0  0.00000000000E+00 -0.00000000000E+00 -0.15552441479E+04  0.15552441479E+04  0.00000000000E+00 0. -1.
         23    2    1    2    0    0 -0.64782302534E+03  0.26522526470E+03 -0.14125535074E+04  0.15792093296E+04  0.92604439159E+02 0.  0.
         13    1    3    3    0    0 -0.35709078307E+03  0.19004731638E+03 -0.85775528349E+03  0.94835433049E+03  0.00000000000E+00 0.  1.
        -13    1    3    3    0    0 -0.29073224227E+03  0.75177948321E+02 -0.55479822395E+03  0.63085499911E+03  0.00000000000E+00 0. -1.
         22    1    1    2    0    0  0.64782302534E+03 -0.26522526470E+03  0.20043021241E+04  0.21230275830E+04  0.00000000000E+00 0.  1.
<mgrwt>
<rscale>  0 0.36546398E+04</rscale>
<asrwt>0</asrwt>
<pdfrwt beam="1">  1        2 0.23926833E+00 0.36546398E+04</pdfrwt>
<pdfrwt beam="2">  1       -2 0.33030658E+00 0.36546398E+04</pdfrwt>
<totfact> 0.19809663E-01</totfact>
</mgrwt>
</event>
<event>
 6    1  0.1885829E-005  0.2250930E+04  0.7818608E-02  0.8497524E-01
         -2   -1    0    0    0  501 -0.00000000000E+00  0.00000000000E+00  0.65794353243E+03  0.65794353243E+03  0.00000000000E+00 0. -1.
          2   -1    0    0  501    0  0.00000000000E+00 -0.00000000000E+00 -0.19251982735E+04  0.19251982735E+04  0.00000000000E+00 0.  1.
         23    2    1    2    0    0  0.11906581984E+03  0.24830729078E+03 -0.18847575827E+04  0.19070183413E+04  0.92599288257E+02 0.  0.
         13    1    3    3    0    0  0.10544400356E+03  0.12842814738E+03 -0.93811458845E+03  0.95271780081E+03  0.00000000000E+00 0. -1.
        -13    1    3    3    0    0  0.13621816284E+02  0.11987914340E+03 -0.94664299428E+03  0.95430054046E+03  0.00000000000E+00 0.  1.
         22    1    1    2    0    0 -0.11906581984E+03 -0.24830729078E+03  0.61750284162E+03  0.67612346470E+03  0.00000000000E+00 0. -1.
<mgrwt>
<rscale>  0 0.22509303E+04</rscale>
<asrwt>0</asrwt>
<pdfrwt beam="1">  1        2 0.29618435E+00 0.22509303E+04</pdfrwt>
<pdfrwt beam="2">  1       -2 0.10122208E+00 0.22509303E+04</pdfrwt>
<totfact> 0.53705294E+00</totfact>
</mgrwt>
</event>
<event>
 6    1  0.1885829E-005  0.1379902E+04  0.7818608E-02  0.8968496E-01
          2   -1    0    0  501    0  0.00000000000E+00  0.00000000000E+00  0.10991592143E+04  0.10991592143E+04  0.00000000000E+00 0. -1.
         -2   -1    0    0    0  501 -0.00000000000E+00 -0.00000000000E+00 -0.43308770582E+03  0.43308770582E+03  0.00000000000E+00 0.  1.
         23    2    1    2    0    0  0.16142755069E+03  0.27330570953E+03  0.10109690143E+04  0.10635154890E+04  0.90840422945E+02 0.  0.
         11    1    3    3    0    0  0.20745455747E+02  0.12054121327E+03  0.39156859297E+03  0.41022740161E+03  0.00000000000E+00 0.  1.
        -11    1    3    3    0    0  0.14068209495E+03  0.15276449626E+03  0.61940042133E+03  0.65328808738E+03  0.00000000000E+00 0. -1.
         22    1    1    2    0    0 -0.16142755069E+03 -0.27330570953E+03 -0.34489750584E+03  0.46873143112E+03  0.00000000000E+00 0.  1.
<mgrwt>
<rscale>  0 0.13799019E+04</rscale>
<asrwt>0</asrwt>
<pdfrwt beam="1">  1        2 0.16910142E+00 0.13799019E+04</pdfrwt>
<pdfrwt beam="2">  1       -2 0.66628878E-01 0.13799019E+04</pdfrwt>
<totfact> 0.44006728E+01</totfact>
</mgrwt>
</event>
<event>
 6    1  0.1885829E-005  0.4030436E+04  0.7818608E-02  0.7998435E-01
         -2   -1    0    0    0  501 -0.00000000000E+00  0.00000000000E+00  0.27470127318E+04  0.27470127318E+04  0.00000000000E+00 0. -1.
          2   -1    0    0  501    0  0.00000000000E+00 -0.00000000000E+00 -0.14783712048E+04  0.14783712048E+04  0.00000000000E+00 0.  1.
         23    2    1    2    0    0  0.13283915131E+04 -0.18130521829E+02 -0.95250836428E+03  0.16372456931E+04  0.91370387113E+02 0.  0.
         11    1    3    3    0    0  0.65143609941E+03 -0.95296674047E+01 -0.52330769155E+03  0.83564989452E+03  0.00000000000E+00 0. -1.
        -11    1    3    3    0    0  0.67695541374E+03 -0.86008544243E+01 -0.42920067272E+03  0.80159579861E+03  0.00000000000E+00 0.  1.
         22    1    1    2    0    0 -0.13283915131E+04  0.18130521829E+02  0.22211498912E+04  0.25881382435E+04  0.00000000000E+00 0. -1.
<mgrwt>
<rscale>  0 0.40304365E+04</rscale>
<asrwt>0</asrwt>
<pdfrwt beam="1">  1        2 0.22744172E+00 0.40304365E+04</pdfrwt>
<pdfrwt beam="2">  1       -2 0.42261734E+00 0.40304365E+04</pdfrwt>
<totfact> 0.54119444E-02</totfact>
</mgrwt>
</event>
<event>
 6    1  0.1885829E-005  0.4922260E+04  0.7818608E-02  0.7840613E-01
         -2   -1    0    0    0  501 -0.00000000000E+00  0.00000000000E+00  0.21249176533E+04  0.21249176533E+04  0.00000000000E+00 0. -1.
          2   -1    0    0  501    0  0.00000000000E+00 -0.00000000000E+00 -0.28505388199E+04  0.28505388199E+04  0.00000000000E+00 0.  1.
         23    2    1    2    0    0 -0.22029586464E+03  0.42215711651E+03 -0.28027674604E+04  0.28444277017E+04  0.92285502189E+02 0.  0.
         11    1    3    3    0    0 -0.29842958161E+02  0.14664360710E+03 -0.80949512502E+03  0.82321158099E+03  0.00000000000E+00 0.  1.
        -11    1    3    3    0    0 -0.19045290647E+03  0.27551350942E+03 -0.19932723354E+04  0.20212161207E+04  0.00000000000E+00 0. -1.
         22    1    1    2    0    0  0.22029586464E+03 -0.42215711651E+03  0.20771462939E+04  0.21310287715E+04  0.00000000000E+00 0. -1.
<mgrwt>
<rscale>  0 0.49222597E+04</rscale>
<asrwt>0</asrwt>
<pdfrwt beam="1">  1        2 0.43854444E+00 0.49222597E+04</pdfrwt>
<pdfrwt beam="2">  1       -2 0.32691041E+00 0.49222597E+04</pdfrwt>
<totfact> 0.34232835E-02</totfact>
</mgrwt>
</event>
<event>
 6    1  0.1885829E-005  0.5197614E+04  0.7818608E-02  0.7798726E-01
         -2   -1    0    0    0  501 -0.00000000000E+00  0.00000000000E+00  0.20326889193E+04  0.20326889193E+04  0.00000000000E+00 0. -1.
          2   -1    0    0  501    0  0.00000000000E+00 -0.00000000000E+00 -0.33225925224E+04  0.33225925224E+04  0.00000000000E+00 0.  1.
         23    2    1    2    0    0  0.25092797644E+04 -0.18985474342E+03  0.20363004563E+02  0.25181476164E+04  0.90127723587E+02 0.  0.
         11    1    3    3    0    0  0.15063986009E+04 -0.87536367647E+02  0.47637367998E+02  0.15096915842E+04  0.00000000000E+00 0.  1.
        -11    1    3    3    0    0  0.10028811635E+04 -0.10231837577E+03 -0.27274363436E+02  0.10084560322E+04  0.00000000000E+00 0. -1.
         22    1    1    2    0    0 -0.25092797644E+04  0.18985474342E+03 -0.13102666076E+04  0.28371338253E+04  0.00000000000E+00 0.  1.
<mgrwt>
<rscale>  0 0.51976137E+04</rscale>
<asrwt>0</asrwt>
<pdfrwt beam="1">  1        2 0.51116807E+00 0.51976137E+04</pdfrwt>
<pdfrwt beam="2">  1       -2 0.31272138E+00 0.51976137E+04</pdfrwt>
<totfact> 0.20443836E-02</totfact>
</mgrwt>
</event>
<event>
 6    1  0.1885829E-005  0.3442499E+04  0.7818608E-02  0.8127554E-01
          2   -1    0    0  501    0  0.00000000000E+00  0.00000000000E+00  0.27084911430E+04  0.27084911430E+04  0.00000000000E+00 0. -1.
         -2   -1    0    0    0  501 -0.00000000000E+00 -0.00000000000E+00 -0.10938560824E+04  0.10938560824E+04  0.00000000000E+00 0.  1.
         23    2    1    2    0    0 -0.40516293374E+03  0.42907392339E+03 -0.97667030596E+03  0.11446931965E+04  0.90422302878E+02 0.  0.
         11    1    3    3    0    0 -0.13204487789E+03  0.14847414599E+03 -0.41359941172E+03  0.45885171371E+03  0.00000000000E+00 0.  1.
        -11    1    3    3    0    0 -0.27311805585E+03  0.28059977739E+03 -0.56307089424E+03  0.68584148274E+03  0.00000000000E+00 0. -1.
         22    1    1    2    0    0  0.40516293374E+03 -0.42907392339E+03  0.25913053666E+04  0.26576540290E+04  0.00000000000E+00 0. -1.
<mgrwt>
<rscale>  0 0.34424988E+04</rscale>
<asrwt>0</asrwt>
<pdfrwt beam="1">  1        2 0.41669094E+00 0.34424988E+04</pdfrwt>
<pdfrwt beam="2">  1       -2 0.16828555E+00 0.34424988E+04</pdfrwt>
<totfact> 0.47488801E-01</totfact>
</mgrwt>
</event>
<event>
 6    1  0.1885829E-005  0.2425957E+04  0.7818608E-02  0.8429849E-01
          2   -1    0    0  501    0  0.00000000000E+00  0.00000000000E+00  0.23399516177E+04  0.23399516177E+04  0.00000000000E+00 0. -1.
         -2   -1    0    0    0  501 -0.00000000000E+00 -0.00000000000E+00 -0.62878068356E+03  0.62878068356E+03  0.00000000000E+00 0.  1.
         23    2    1    2    0    0 -0.11664924050E+04  0.81694985102E+02  0.12436259399E+04  0.17093765441E+04  0.89353732663E+02 0.  0.
         13    1    3    3    0    0 -0.86253316812E+03  0.33138329958E+02  0.95723622355E+03  0.12889386342E+04  0.00000000000E+00 0. -1.
        -13    1    3    3    0    0 -0.30395923687E+03  0.48556655144E+02  0.28638971632E+03  0.42043790987E+03  0.00000000000E+00 0.  1.
         22    1    1    2    0    0  0.11664924050E+04 -0.81694985102E+02  0.46754499425E+03  0.12593557572E+04  0.00000000000E+00 0.  1.
<mgrwt>
<rscale>  0 0.24259566E+04</rscale>
<asrwt>0</asrwt>
<pdfrwt beam="1">  1        2 0.35999255E+00 0.24259566E+04</pdfrwt>
<pdfrwt beam="2">  1       -2 0.96735491E-01 0.24259566E+04</pdfrwt>
<totfact> 0.34481692E+00</totfact>
</mgrwt>
</event>
<event>
 6    1  0.1885829E-005  0.1357945E+04  0.7818608E-02  0.8984835E-01
          2   -1    0    0  501    0  0.00000000000E+00  0.00000000000E+00  0.15190356776E+04  0.15190356776E+04  0.00000000000E+00 0. -1.
         -2   -1    0    0    0  501 -0.00000000000E+00 -0.00000000000E+00 -0.30348450892E+03  0.30348450892E+03  0.00000000000E+00 0.  1.
         23    2    1    2    0    0 -0.31124030061E+02 -0.10958296031E+03  0.15046906030E+04  0.15117489799E+04  0.91181341476E+02 0.  0.
         11    1    3    3    0    0 -0.14378652942E+02 -0.11315434875E+03  0.95438541550E+03  0.96117749330E+03  0.00000000000E+00 0. -1.
        -11    1    3    3    0    0 -0.16745377118E+02  0.35713884424E+01  0.55030518747E+03  0.55057148658E+03  0.00000000000E+00 0.  1.
         22    1    1    2    0    0  0.31124030061E+02  0.10958296031E+03 -0.28913943427E+03  0.31077120666E+03  0.00000000000E+00 0.  1.
<mgrwt>
<rscale>  0 0.13579452E+04</rscale>
<asrwt>0</asrwt>
<pdfrwt beam="1">  1        2 0.23369779E+00 0.13579452E+04</pdfrwt>
<pdfrwt beam="2">  1       -2 0.46689925E-01 0.13579452E+04</pdfrwt>
<totfact> 0.52557789E+01</totfact>
</mgrwt>
</event>
<event>
 6    1  0.1885829E-005  0.3939508E+04  0.7818608E-02  0.8016862E-01
         -2   -1    0    0    0  501 -0.00000000000E+00  0.00000000000E+00  0.16203154938E+04  0.16203154938E+04  0.00000000000E+00 0.  1.
          2   -1    0    0  501    0  0.00000000000E+00 -0.00000000000E+00 -0.23945529933E+04  0.23945529933E+04  0.00000000000E+00 0. -1.
         23    2    1    2    0    0 -0.90299229398E+03 -0.11074427171E+04  0.99286065605E+03  0.17423235820E+04  0.89970703002E+02 0.  0.
         13    1    3    3    0    0 -0.67733607639E+03 -0.88938583970E+03  0.77198421835E+03  0.13585841769E+04  0.00000000000E+00 0. -1.
        -13    1    3    3    0    0 -0.22565621760E+03 -0.21805687737E+03  0.22087643770E+03  0.38373940512E+03  0.00000000000E+00 0.  1.
         22    1    1    2    0    0  0.90299229398E+03  0.11074427171E+04 -0.17670981555E+04  0.22725449051E+04  0.00000000000E+00 0. -1.
<mgrwt>
<rscale>  0 0.39395083E+04</rscale>
<asrwt>0</asrwt>
<pdfrwt beam="1">  1        2 0.36839276E+00 0.39395083E+04</pdfrwt>
<pdfrwt beam="2">  1       -2 0.24927931E+00 0.39395083E+04</pdfrwt>
<totfact> 0.20608812E-01</totfact>
</mgrwt>
</event>
<event>
 6    1  0.1885829E-005  0.1507811E+04  0.7818608E-02  0.8879275E-01
          2   -1    0    0  501    0  0.00000000000E+00  0.00000000000E+00  0.90042704046E+03  0.90042704046E+03  0.00000000000E+00 0. -1.
         -2   -1    0    0    0  501 -0.00000000000E+00 -0.00000000000E+00 -0.63122668532E+03  0.63122668532E+03  0.00000000000E+00 0.  1.
         23    2    1    2    0    0  0.40589351783E+03 -0.56060393239E+03 -0.16160180681E+03  0.71641338111E+03  0.90037058159E+02 0.  0.
         13    1    3    3    0    0  0.18724333994E+03 -0.33004404466E+03 -0.10435239346E+03  0.39354613679E+03  0.00000000000E+00 0. -1.
        -13    1    3    3    0    0  0.21865017789E+03 -0.23055988774E+03 -0.57249413353E+02  0.32286724432E+03  0.00000000000E+00 0.  1.
         22    1    1    2    0    0 -0.40589351783E+03  0.56060393239E+03  0.43080216195E+03  0.81524034467E+03  0.00000000000E+00 0. -1.
<mgrwt>
<rscale>  0 0.15078111E+04</rscale>
<asrwt>0</asrwt>
<pdfrwt beam="1">  1        2 0.13852724E+00 0.15078111E+04</pdfrwt>
<pdfrwt beam="2">  1       -2 0.97111798E-01 0.15078111E+04</pdfrwt>
<totfact> 0.25051516E+01</totfact>
</mgrwt>
</event>
<event>
 6    1  0.1885829E-005  0.4660942E+04  0.7818608E-02  0.7883051E-01
          2   -1    0    0  501    0  0.00000000000E+00  0.00000000000E+00  0.33852961205E+04  0.33852961205E+04  0.00000000000E+00 0. -1.
         -2   -1    0    0    0  501 -0.00000000000E+00 -0.00000000000E+00 -0.16043188366E+04  0.16043188366E+04  0.00000000000E+00 0.  1.
         23    2    1    2    0    0  0.13421980485E+04  0.15989020206E+04  0.19975075658E+04  0.28908370661E+04  0.94441486993E+02 0.  0.
         13    1    3    3    0    0  0.10469044314E+04  0.12875541040E+04  0.15478105666E+04  0.22692558272E+04  0.00000000000E+00 0. -1.
        -13    1    3    3    0    0  0.29529361708E+03  0.31134791663E+03  0.44969699917E+03  0.62158123889E+03  0.00000000000E+00 0.  1.
         22    1    1    2    0    0 -0.13421980485E+04 -0.15989020206E+04 -0.21653028192E+03  0.20987778910E+04  0.00000000000E+00 0.  1.
<mgrwt>
<rscale>  0 0.46609417E+04</rscale>
<asrwt>0</asrwt>
<pdfrwt beam="1">  1        2 0.52081478E+00 0.46609417E+04</pdfrwt>
<pdfrwt beam="2">  1       -2 0.24681828E+00 0.46609417E+04</pdfrwt>
<totfact> 0.48985057E-02</totfact>
</mgrwt>
</event>
<event>
 6    1  0.1885829E-005  0.1938962E+04  0.7818608E-02  0.8635702E-01
         -2   -1    0    0    0  501 -0.00000000000E+00  0.00000000000E+00  0.48614423301E+03  0.48614423301E+03  0.00000000000E+00 0.  1.
          2   -1    0    0  501    0  0.00000000000E+00 -0.00000000000E+00 -0.19333640654E+04  0.19333640654E+04  0.00000000000E+00 0. -1.
         23    2    1    2    0    0 -0.27189064764E+03  0.15224538101E+03 -0.18679396880E+04  0.18959546935E+04  0.91336419505E+02 0.  0.
         13    1    3    3    0    0 -0.96864349361E+02  0.13068521796E+02 -0.70116101997E+03  0.70794086220E+03  0.00000000000E+00 0.  1.
        -13    1    3    3    0    0 -0.17502629828E+03  0.13917685921E+03 -0.11667786680E+04  0.11880138313E+04  0.00000000000E+00 0. -1.
         22    1    1    2    0    0  0.27189064764E+03 -0.15224538101E+03  0.42071985560E+03  0.52355360491E+03  0.00000000000E+00 0.  1.
<mgrwt>
<rscale>  0 0.19389624E+04</rscale>
<asrwt>0</asrwt>
<pdfrwt beam="1">  1        2 0.29744062E+00 0.19389624E+04</pdfrwt>
<pdfrwt beam="2">  1       -2 0.74791421E-01 0.19389624E+04</pdfrwt>
<totfact> 0.10914082E+01</totfact>
</mgrwt>
</event>
<event>
 6    1  0.1885829E-005  0.8654227E+03  0.7818608E-02  0.9469868E-01
         -2   -1    0    0    0  501 -0.00000000000E+00  0.00000000000E+00  0.20112291327E+03  0.20112291327E+03  0.00000000000E+00 0.  1.
          2   -1    0    0  501    0  0.00000000000E+00 -0.00000000000E+00 -0.93096852996E+03  0.93096852996E+03  0.00000000000E+00 0. -1.
         23    2    1    2    0    0  0.79634967035E+02 -0.26214382717E+03 -0.79881197260E+03  0.84957158138E+03  0.92791110667E+02 0.  0.
         13    1    3    3    0    0 -0.53770326790E+01 -0.13970272493E+03 -0.40879334362E+03  0.43203907419E+03  0.00000000000E+00 0. -1.
        -13    1    3    3    0    0  0.85011999714E+02 -0.12244110224E+03 -0.39001862897E+03  0.41753250719E+03  0.00000000000E+00 0.  1.
         22    1    1    2    0    0 -0.79634967035E+02  0.26214382717E+03  0.68966355907E+02  0.28251986186E+03  0.00000000000E+00 0.  1.
<mgrwt>
<rscale>  0 0.86542268E+03</rscale>
<asrwt>0</asrwt>
<pdfrwt beam="1">  1        2 0.14322593E+00 0.86542268E+03</pdfrwt>
<pdfrwt beam="2">  1       -2 0.30941987E-01 0.86542268E+03</pdfrwt>
<totfact> 0.27115022E+02</totfact>
</mgrwt>
</event>
<event>
 6    1  0.1885829E-005  0.3537613E+04  0.7818608E-02  0.8104933E-01
         -2   -1    0    0    0  501 -0.00000000000E+00  0.00000000000E+00  0.10640516080E+04  0.10640516080E+04  0.00000000000E+00 0.  1.
          2   -1    0    0  501    0  0.00000000000E+00 -0.00000000000E+00 -0.29403434170E+04  0.29403434170E+04  0.00000000000E+00 0. -1.
         23    2    1    2    0    0 -0.11832330304E+04 -0.13125406718E+04 -0.98309892974E+03  0.20243452936E+04  0.93203771043E+02 0.  0.
         11    1    3    3    0    0 -0.99481309181E+03 -0.11517321901E+04 -0.84661623230E+03  0.17415220843E+04  0.00000000000E+00 0. -1.
        -11    1    3    3    0    0 -0.18841993856E+03 -0.16080848168E+03 -0.13648269744E+03  0.28282320932E+03  0.00000000000E+00 0.  1.
         22    1    1    2    0    0  0.11832330304E+04  0.13125406718E+04 -0.89319287923E+03  0.19800497314E+04  0.00000000000E+00 0.  1.
<mgrwt>
<rscale>  0 0.35376134E+04</rscale>
<asrwt>0</asrwt>
<pdfrwt beam="1">  1        2 0.45236054E+00 0.35376134E+04</pdfrwt>
<pdfrwt beam="2">  1       -2 0.16370024E+00 0.35376134E+04</pdfrwt>
<totfact> 0.36746112E-01</totfact>
</mgrwt>
</event>
<event>
 6    1  0.1885829E-005  0.2449253E+04  0.7818608E-02  0.8421291E-01
          1   -1    0    0  501    0  0.00000000000E+00  0.00000000000E+00  0.15405505395E+04  0.15405505395E+04  0.00000000000E+00 0. -1.
         -1   -1    0    0    0  501 -0.00000000000E+00 -0.00000000000E+00 -0.97348932781E+03  0.97348932781E+03  0.00000000000E+00 0.  1.
         23    2    1    2    0    0 -0.21670763752E+03 -0.11259749304E+04  0.72068919419E+03  0.13571546954E+04  0.87716638396E+02 0.  0.
         13    1    3    3    0    0 -0.68496818419E+02 -0.44448322342E+03  0.32944417941E+03  0.55748597954E+03  0.00000000000E+00 0.  1.
        -13    1    3    3    0    0 -0.14821081910E+03 -0.68149170698E+03  0.39124501478E+03  0.79966871589E+03  0.00000000000E+00 0. -1.
         22    1    1    2    0    0  0.21670763752E+03  0.11259749304E+04 -0.15362798246E+03  0.11568851719E+04  0.00000000000E+00 0.  1.
<mgrwt>
<rscale>  0 0.24492525E+04</rscale>
<asrwt>0</asrwt>
<pdfrwt beam="1">  1        1 0.23700777E+00 0.24492525E+04</pdfrwt>
<pdfrwt beam="2">  1       -1 0.14976759E+00 0.24492525E+04</pdfrwt>
<totfact> 0.19171653E+00</totfact>
</mgrwt>
</event>
<event>
 6    1  0.1885829E-005  0.1712691E+04  0.7818608E-02  0.8754159E-01
         -2   -1    0    0    0  501 -0.00000000000E+00  0.00000000000E+00  0.79789879693E+03  0.79789879693E+03  0.00000000000E+00 0.  1.
          2   -1    0    0  501    0  0.00000000000E+00 -0.00000000000E+00 -0.91907389726E+03  0.91907389726E+03  0.00000000000E+00 0. -1.
         23    2    1    2    0    0  0.44567332223E+03  0.10376596784E+03  0.66213811217E+03  0.80979483120E+03  0.89155498027E+02 0.  0.
         11    1    3    3    0    0  0.40947704078E+03  0.72904457623E+02  0.56438228532E+03  0.70108050240E+03  0.00000000000E+00 0. -1.
        -11    1    3    3    0    0  0.36196281455E+02  0.30861510220E+02  0.97755826851E+02  0.10871432881E+03  0.00000000000E+00 0.  1.
         22    1    1    2    0    0 -0.44567332223E+03 -0.10376596784E+03 -0.78331321250E+03  0.90717786299E+03  0.00000000000E+00 0. -1.
<mgrwt>
<rscale>  0 0.17126914E+04</rscale>
<asrwt>0</asrwt>
<pdfrwt beam="1">  1        2 0.14139598E+00 0.17126914E+04</pdfrwt>
<pdfrwt beam="2">  1       -2 0.12275366E+00 0.17126914E+04</pdfrwt>
<totfact> 0.13578165E+01</totfact>
</mgrwt>
</event>
<event>
 6    1  0.1885829E-005  0.1662021E+04  0.7818608E-02  0.8783327E-01
         -2   -1    0    0    0  501 -0.00000000000E+00  0.00000000000E+00  0.77944672294E+03  0.77944672294E+03  0.00000000000E+00 0.  1.
          2   -1    0    0  501    0  0.00000000000E+00 -0.00000000000E+00 -0.88598530811E+03  0.88598530811E+03  0.00000000000E+00 0. -1.
         23    2    1    2    0    0 -0.79840950249E+03 -0.19926225971E+02 -0.27434481657E+03  0.84933539495E+03  0.90833620358E+02 0.  0.
         13    1    3    3    0    0 -0.19836609976E+03 -0.16730805474E+02 -0.10882054081E+03  0.22687207737E+03  0.00000000000E+00 0.  1.
        -13    1    3    3    0    0 -0.60004340273E+03 -0.31954204974E+01 -0.16552427576E+03  0.62246331758E+03  0.00000000000E+00 0. -1.
         22    1    1    2    0    0  0.79840950249E+03  0.19926225971E+02  0.16780623140E+03  0.81609663610E+03  0.00000000000E+00 0.  1.
<mgrwt>
<rscale>  0 0.16620209E+04</rscale>
<asrwt>0</asrwt>
<pdfrwt beam="1">  1        2 0.13630543E+00 0.16620209E+04</pdfrwt>
<pdfrwt beam="2">  1       -2 0.11991488E+00 0.16620209E+04</pdfrwt>
<totfact> 0.15215997E+01</totfact>
</mgrwt>
</event>
<event>
 6    1  0.1885829E-005  0.1942655E+04  0.7818608E-02  0.8633911E-01
          2   -1    0    0  501    0  0.00000000000E+00  0.00000000000E+00  0.21398700801E+04  0.21398700801E+04  0.00000000000E+00 0. -1.
         -2   -1    0    0    0  501 -0.00000000000E+00 -0.00000000000E+00 -0.44090375679E+03  0.44090375679E+03  0.00000000000E+00 0.  1.
         23    2    1    2    0    0  0.85691603892E+03 -0.92695628438E+02  0.14401960698E+04  0.16808518284E+04  0.90557011520E+02 0.  0.
         13    1    3    3    0    0  0.45868669327E+03 -0.90517136369E+02  0.81559839389E+03  0.94009976847E+03  0.00000000000E+00 0. -1.
        -13    1    3    3    0    0  0.39822934564E+03 -0.21784920686E+01  0.62459767586E+03  0.74075205990E+03  0.00000000000E+00 0.  1.
         22    1    1    2    0    0 -0.85691603892E+03  0.92695628438E+02  0.25877025354E+03  0.89992200851E+03  0.00000000000E+00 0.  1.
<mgrwt>
<rscale>  0 0.19426546E+04</rscale>
<asrwt>0</asrwt>
<pdfrwt beam="1">  1        2 0.32921078E+00 0.19426546E+04</pdfrwt>
<pdfrwt beam="2">  1       -2 0.67831348E-01 0.19426546E+04</pdfrwt>
<totfact> 0.10371827E+01</totfact>
</mgrwt>
</event>
<event>
 6    1  0.1885829E-005  0.2231497E+04  0.7818608E-02  0.8505431E-01
          2   -1    0    0  501    0  0.00000000000E+00  0.00000000000E+00  0.80892535271E+03  0.80892535271E+03  0.00000000000E+00 0. -1.
         -2   -1    0    0    0  501 -0.00000000000E+00 -0.00000000000E+00 -0.15389493202E+04  0.15389493202E+04  0.00000000000E+00 0.  1.
         23    2    1    2    0    0  0.83223896561E+03 -0.53501595200E+02 -0.11425476324E+04  0.14174662192E+04  0.91166186490E+02 0.  0.
         13    1    3    3    0    0  0.77977572350E+03 -0.66964951883E+02 -0.10910392580E+04  0.13427215446E+04  0.00000000000E+00 0. -1.
        -13    1    3    3    0    0  0.52463242111E+02  0.13463356684E+02 -0.51508374423E+02  0.74744674604E+02  0.00000000000E+00 0.  1.
         22    1    1    2    0    0 -0.83223896561E+03  0.53501595200E+02  0.41252366496E+03  0.93040845370E+03  0.00000000000E+00 0. -1.
<mgrwt>
<rscale>  0 0.22314974E+04</rscale>
<asrwt>0</asrwt>
<pdfrwt beam="1">  1        2 0.12445006E+00 0.22314974E+04</pdfrwt>
<pdfrwt beam="2">  1       -2 0.23676143E+00 0.22314974E+04</pdfrwt>
<totfact> 0.23999084E+00</totfact>
</mgrwt>
</event>
<event>
 6    1  0.1885829E-005  0.4511916E+04  0.7818608E-02  0.7908554E-01
          2   -1    0    0  501    0  0.00000000000E+00  0.00000000000E+00  0.31708585202E+04  0.31708585202E+04  0.00000000000E+00 0. -1.
         -2   -1    0    0    0  501 -0.00000000000E+00 -0.00000000000E+00 -0.16050370603E+04  0.16050370603E+04  0.00000000000E+00 0.  1.
         23    2    1    2    0    0 -0.76510479531E+03 -0.14827132101E+03  0.30230994774E+04  0.31233130705E+04  0.92651786603E+02 0.  0.
         13    1    3    3    0    0 -0.63146446527E+03 -0.95628071361E+02  0.23647009728E+04  0.24494290743E+04  0.00000000000E+00 0. -1.
        -13    1    3    3    0    0 -0.13364033004E+03 -0.52643249644E+02  0.65839850454E+03  0.67388399619E+03  0.00000000000E+00 0.  1.
         22    1    1    2    0    0  0.76510479531E+03  0.14827132101E+03 -0.14572780175E+04  0.16525825101E+04  0.00000000000E+00 0.  1.
<mgrwt>
<rscale>  0 0.45119155E+04</rscale>
<asrwt>0</asrwt>
<pdfrwt beam="1">  1        2 0.48782439E+00 0.45119155E+04</pdfrwt>
<pdfrwt beam="2">  1       -2 0.24692878E+00 0.45119155E+04</pdfrwt>
<totfact> 0.68770750E-02</totfact>
</mgrwt>
</event>
<event>
 6    1  0.1885829E-005  0.2737363E+04  0.7818608E-02  0.8322983E-01
          2   -1    0    0  501    0  0.00000000000E+00  0.00000000000E+00  0.23358400500E+04  0.23358400500E+04  0.00000000000E+00 0. -1.
         -2   -1    0    0    0  501 -0.00000000000E+00 -0.00000000000E+00 -0.80197631469E+03  0.80197631469E+03  0.00000000000E+00 0.  1.
         23    2    1    2    0    0 -0.87288177155E+02 -0.10724881681E+04 -0.20047842764E+03  0.10967889678E+04  0.70031017228E+02 0.  0.
         13    1    3    3    0    0 -0.50296110193E+02 -0.79435114204E+03 -0.12037821932E+03  0.80499338584E+03  0.00000000000E+00 0. -1.
        -13    1    3    3    0    0 -0.36992066962E+02 -0.27813702607E+03 -0.80100208320E+02  0.29179558198E+03  0.00000000000E+00 0.  1.
         22    1    1    2    0    0  0.87288177155E+02  0.10724881681E+04  0.17343421630E+04  0.20410273969E+04  0.00000000000E+00 0. -1.
<mgrwt>
<rscale>  0 0.27373625E+04</rscale>
<asrwt>0</asrwt>
<pdfrwt beam="1">  1        2 0.35936001E+00 0.27373625E+04</pdfrwt>
<pdfrwt beam="2">  1       -2 0.12338097E+00 0.27373625E+04</pdfrwt>
<totfact> 0.18740959E+00</totfact>
</mgrwt>
</event>
<event>
 6    1  0.1885829E-005  0.2447505E+04  0.7818608E-02  0.8421929E-01
          1   -1    0    0  501    0  0.00000000000E+00  0.00000000000E+00  0.10421299826E+04  0.10421299826E+04  0.00000000000E+00 0. -1.
         -1   -1    0    0    0  501 -0.00000000000E+00 -0.00000000000E+00 -0.14370284025E+04  0.14370284025E+04  0.00000000000E+00 0.  1.
         23    2    1    2    0    0 -0.42745881184E+03  0.30732028937E+03  0.91944269731E+03  0.10632984456E+04  0.89788165861E+02 0.  0.
         11    1    3    3    0    0 -0.40224012358E+03  0.27990776254E+03  0.88930021379E+03  0.10153818704E+04  0.00000000000E+00 0. -1.
        -11    1    3    3    0    0 -0.25218688269E+02  0.27412526829E+02  0.30142483527E+02  0.47916575194E+02  0.00000000000E+00 0.  1.
         22    1    1    2    0    0  0.42745881184E+03 -0.30732028937E+03 -0.13143411172E+04  0.14158599395E+04  0.00000000000E+00 0.  1.
<mgrwt>
<rscale>  0 0.24475052E+04</rscale>
<asrwt>0</asrwt>
<pdfrwt beam="1">  1        1 0.16032769E+00 0.24475052E+04</pdfrwt>
<pdfrwt beam="2">  1       -1 0.22108129E+00 0.24475052E+04</pdfrwt>
<totfact> 0.13554295E+00</totfact>
</mgrwt>
</event>
<event>
 6    1  0.1885829E-005  0.2024582E+04  0.7818608E-02  0.8595213E-01
         -2   -1    0    0    0  501 -0.00000000000E+00  0.00000000000E+00  0.21070554215E+03  0.21070554215E+03  0.00000000000E+00 0.  1.
          2   -1    0    0  501    0  0.00000000000E+00 -0.00000000000E+00 -0.48633430387E+04  0.48633430387E+04  0.00000000000E+00 0. -1.
         23    2    1    2    0    0  0.42827466506E+03  0.91090291155E+03 -0.21165305530E+04  0.23454955335E+04  0.92110872973E+02 0.  0.
         13    1    3    3    0    0  0.33614332043E+03  0.68034006590E+03 -0.16765563986E+04  0.18402978821E+04  0.00000000000E+00 0. -1.
        -13    1    3    3    0    0  0.92131344635E+02  0.23056284565E+03 -0.43997415438E+03  0.50519765140E+03  0.00000000000E+00 0.  1.
         22    1    1    2    0    0 -0.42827466506E+03 -0.91090291155E+03 -0.25361069436E+04  0.27285530473E+04  0.00000000000E+00 0. -1.
<mgrwt>
<rscale>  0 0.20245823E+04</rscale>
<asrwt>0</asrwt>
<pdfrwt beam="1">  1        2 0.74820667E+00 0.20245823E+04</pdfrwt>
<pdfrwt beam="2">  1       -2 0.32416235E-01 0.20245823E+04</pdfrwt>
<totfact> 0.42279216E-01</totfact>
</mgrwt>
</event>
<event>
 6    1  0.1885829E-005  0.1692003E+04  0.7818608E-02  0.8765939E-01
          2   -1    0    0  501    0  0.00000000000E+00  0.00000000000E+00  0.21613367042E+04  0.21613367042E+04  0.00000000000E+00 0. -1.
         -2   -1    0    0    0  501 -0.00000000000E+00 -0.00000000000E+00 -0.33114622560E+03  0.33114622560E+03  0.00000000000E+00 0.  1.
         23    2    1    2    0    0  0.36650367816E+03 -0.36354000549E+03 -0.64886246651E+02  0.52835409587E+03  0.91986650756E+02 0.  0.
         11    1    3    3    0    0  0.23401700435E+03 -0.23960321490E+03  0.21929922783E+01  0.33493054225E+03  0.00000000000E+00 0.  1.
        -11    1    3    3    0    0  0.13248667381E+03 -0.12393679059E+03 -0.67079238929E+02  0.19342355362E+03  0.00000000000E+00 0. -1.
         22    1    1    2    0    0 -0.36650367816E+03  0.36354000549E+03  0.18950767252E+04  0.19641288339E+04  0.00000000000E+00 0. -1.
<mgrwt>
<rscale>  0 0.16920029E+04</rscale>
<asrwt>0</asrwt>
<pdfrwt beam="1">  1        2 0.33251333E+00 0.16920029E+04</pdfrwt>
<pdfrwt beam="2">  1       -2 0.50945575E-01 0.16920029E+04</pdfrwt>
<totfact> 0.18833177E+01</totfact>
</mgrwt>
</event>
<event>
 6    1  0.1885829E-005  0.2082711E+04  0.7818608E-02  0.8568898E-01
          2   -1    0    0  501    0  0.00000000000E+00  0.00000000000E+00  0.25666741159E+04  0.25666741159E+04  0.00000000000E+00 0. -1.
         -2   -1    0    0    0  501 -0.00000000000E+00 -0.00000000000E+00 -0.42250065367E+03  0.42250065367E+03  0.00000000000E+00 0.  1.
         23    2    1    2    0    0  0.46681422606E+03  0.84050545480E+03  0.50411850119E+03  0.10880842361E+04  0.73667499034E+02 0.  0.
         13    1    3    3    0    0  0.16748316151E+03  0.36001784755E+03  0.18246243846E+03  0.43698512719E+03  0.00000000000E+00 0.  1.
        -13    1    3    3    0    0  0.29933106456E+03  0.48048760726E+03  0.32165606273E+03  0.65109910891E+03  0.00000000000E+00 0. -1.
         22    1    1    2    0    0 -0.46681422606E+03 -0.84050545480E+03  0.16400549611E+04  0.19010905335E+04  0.00000000000E+00 0. -1.
<mgrwt>
<rscale>  0 0.20827112E+04</rscale>
<asrwt>0</asrwt>
<pdfrwt beam="1">  1        2 0.39487293E+00 0.20827112E+04</pdfrwt>
<pdfrwt beam="2">  1       -2 0.65000102E-01 0.20827112E+04</pdfrwt>
<totfact> 0.64165130E+00</totfact>
</mgrwt>
</event>
<event>
 6    1  0.1885829E-005  0.1763805E+04  0.7818608E-02  0.8725788E-01
         -2   -1    0    0    0  501 -0.00000000000E+00  0.00000000000E+00  0.49256515851E+03  0.49256515851E+03  0.00000000000E+00 0.  1.
          2   -1    0    0  501    0  0.00000000000E+00 -0.00000000000E+00 -0.15789824012E+04  0.15789824012E+04  0.00000000000E+00 0. -1.
         23    2    1    2    0    0  0.63548938822E+03  0.44831643885E+03 -0.10277628052E+04  0.12916278620E+04  0.84686233893E+02 0.  0.
         11    1    3    3    0    0  0.22142725104E+03  0.17249948301E+03 -0.43566991953E+03  0.51826091684E+03  0.00000000000E+00 0.  1.
        -11    1    3    3    0    0  0.41406213718E+03  0.27581695584E+03 -0.59209288567E+03  0.77336694514E+03  0.00000000000E+00 0. -1.
         22    1    1    2    0    0 -0.63548938822E+03 -0.44831643885E+03 -0.58654437500E+02  0.77991969774E+03  0.00000000000E+00 0.  1.
<mgrwt>
<rscale>  0 0.17638047E+04</rscale>
<asrwt>0</asrwt>
<pdfrwt beam="1">  1        2 0.24292037E+00 0.17638047E+04</pdfrwt>
<pdfrwt beam="2">  1       -2 0.75779256E-01 0.17638047E+04</pdfrwt>
<totfact> 0.16929028E+01</totfact>
</mgrwt>
</event>
<event>
 6    1  0.1885829E-005  0.2154532E+04  0.7818608E-02  0.8537595E-01
          2   -1    0    0  501    0  0.00000000000E+00  0.00000000000E+00  0.27129514644E+04  0.27129514644E+04  0.00000000000E+00 0. -1.
         -2   -1    0    0    0  501 -0.00000000000E+00 -0.00000000000E+00 -0.42776369999E+03  0.42776369999E+03  0.00000000000E+00 0.  1.
         23    2    1    2    0    0  0.26934148761E+03  0.23890112042E+03  0.26217108167E+04  0.26479004457E+04  0.91600118567E+02 0.  0.
         11    1    3    3    0    0  0.54473902032E+02  0.98519718669E+02  0.67119678928E+03  0.68057231130E+03  0.00000000000E+00 0.  1.
        -11    1    3    3    0    0  0.21486758558E+03  0.14038140175E+03  0.19505140274E+04  0.19673281344E+04  0.00000000000E+00 0. -1.
         22    1    1    2    0    0 -0.26934148761E+03 -0.23890112042E+03 -0.33652305225E+03  0.49281471871E+03  0.00000000000E+00 0.  1.
<mgrwt>
<rscale>  0 0.21545321E+04</rscale>
<asrwt>0</asrwt>
<pdfrwt beam="1">  1        2 0.41737714E+00 0.21545321E+04</pdfrwt>
<pdfrwt beam="2">  1       -2 0.65809802E-01 0.21545321E+04</pdfrwt>
<totfact> 0.50904938E+00</totfact>
</mgrwt>
</event>
<event>
 6    1  0.1885829E-005  0.9114767E+03  0.7818608E-02  0.9411348E-01
         -2   -1    0    0    0  501 -0.00000000000E+00  0.00000000000E+00  0.15553746878E+03  0.15553746878E+03  0.00000000000E+00 0.  1.
          2   -1    0    0  501    0  0.00000000000E+00 -0.00000000000E+00 -0.13353531774E+04  0.13353531774E+04  0.00000000000E+00 0. -1.
         23    2    1    2    0    0  0.12475354614E+03  0.85015510368E+02 -0.12911532493E+04  0.13033083116E+04  0.93513408579E+02 0.  0.
         13    1    3    3    0    0  0.10855420411E+03  0.80814193292E+02 -0.76428069857E+03  0.77617004275E+03  0.00000000000E+00 0.  1.
        -13    1    3    3    0    0  0.16199342032E+02  0.42013170762E+01 -0.52687255072E+03  0.52713826882E+03  0.00000000000E+00 0. -1.
         22    1    1    2    0    0 -0.12475354614E+03 -0.85015510368E+02  0.11133754069E+03  0.18758233458E+03  0.00000000000E+00 0.  1.
<mgrwt>
<rscale>  0 0.91147672E+03</rscale>
<asrwt>0</asrwt>
<pdfrwt beam="1">  1        2 0.20543895E+00 0.91147672E+03</pdfrwt>
<pdfrwt beam="2">  1       -2 0.23928842E-01 0.91147672E+03</pdfrwt>
<totfact> 0.24510191E+02</totfact>
</mgrwt>
</event>
<event>
 6    1  0.1885829E-005  0.1344612E+04  0.7818608E-02  0.8994917E-01
          2   -1    0    0  501    0  0.00000000000E+00  0.00000000000E+00  0.22507532383E+03  0.22507532383E+03  0.00000000000E+00 0.  1.
         -2   -1    0    0    0  501 -0.00000000000E+00 -0.00000000000E+00 -0.20081954620E+04  0.20081954620E+04  0.00000000000E+00 0. -1.
         23    2    1    2    0    0 -0.42268598079E+03 -0.43055438594E+03 -0.13793270780E+04  0.15072615895E+04  0.72483057539E+02 0.  0.
         13    1    3    3    0    0 -0.12792090191E+03 -0.11067241040E+03 -0.31648565450E+03  0.35885276796E+03  0.00000000000E+00 0. -1.
        -13    1    3    3    0    0 -0.29476507888E+03 -0.31988197555E+03 -0.10628414235E+04  0.11484088216E+04  0.00000000000E+00 0.  1.
         22    1    1    2    0    0  0.42268598079E+03  0.43055438594E+03 -0.40379306013E+03  0.72600919624E+03  0.00000000000E+00 0.  1.
<mgrwt>
<rscale>  0 0.13446118E+04</rscale>
<asrwt>0</asrwt>
<pdfrwt beam="1">  1        2 0.34626975E-01 0.13446118E+04</pdfrwt>
<pdfrwt beam="2">  1       -2 0.30895313E+00 0.13446118E+04</pdfrwt>
<totfact> 0.41712698E+00</totfact>
</mgrwt>
</event>
<event>
 6    1  0.1885829E-005  0.4067760E+04  0.7818608E-02  0.7991015E-01
          1   -1    0    0  501    0  0.00000000000E+00  0.00000000000E+00  0.12640142859E+04  0.12640142859E+04  0.00000000000E+00 0. -1.
         -1   -1    0    0    0  501 -0.00000000000E+00 -0.00000000000E+00 -0.32726433497E+04  0.32726433497E+04  0.00000000000E+00 0.  1.
         23    2    1    2    0    0 -0.12556693217E+04  0.67820869002E+03  0.60968463407E+03  0.15546718722E+04  0.92826743173E+02 0.  0.
         13    1    3    3    0    0 -0.85073993554E+03  0.49321392159E+03  0.38560134356E+03  0.10562702337E+04  0.00000000000E+00 0. -1.
        -13    1    3    3    0    0 -0.40492938620E+03  0.18499476843E+03  0.22408329052E+03  0.49840163848E+03  0.00000000000E+00 0.  1.
         22    1    1    2    0    0  0.12556693217E+04 -0.67820869002E+03 -0.26183136979E+04  0.29819857634E+04  0.00000000000E+00 0.  1.
<mgrwt>
<rscale>  0 0.40677600E+04</rscale>
<asrwt>0</asrwt>
<pdfrwt beam="1">  1        1 0.19446374E+00 0.40677600E+04</pdfrwt>
<pdfrwt beam="2">  1       -1 0.50348359E+00 0.40677600E+04</pdfrwt>
<totfact> 0.10590381E-02</totfact>
</mgrwt>
</event>
<event>
 6    1  0.1885829E-005  0.2861219E+04  0.7818608E-02  0.8284510E-01
         -2   -1    0    0    0  501 -0.00000000000E+00  0.00000000000E+00  0.77519736237E+03  0.77519736237E+03  0.00000000000E+00 0.  1.
          2   -1    0    0  501    0  0.00000000000E+00 -0.00000000000E+00 -0.26401576906E+04  0.26401576906E+04  0.00000000000E+00 0. -1.
         23    2    1    2    0    0 -0.81280265402E+03  0.43888508159E+03  0.36815861209E+03  0.99872755357E+03  0.92992974874E+02 0.  0.
         11    1    3    3    0    0 -0.42257096295E+03  0.17588310119E+03  0.18870014950E+03  0.49508466997E+03  0.00000000000E+00 0. -1.
        -11    1    3    3    0    0 -0.39023169107E+03  0.26300198039E+03  0.17945846258E+03  0.50364288360E+03  0.00000000000E+00 0.  1.
         22    1    1    2    0    0  0.81280265402E+03 -0.43888508159E+03 -0.22331189403E+04  0.24166274994E+04  0.00000000000E+00 0. -1.
<mgrwt>
<rscale>  0 0.28612188E+04</rscale>
<asrwt>0</asrwt>
<pdfrwt beam="1">  1        2 0.40617811E+00 0.28612188E+04</pdfrwt>
<pdfrwt beam="2">  1       -2 0.11926113E+00 0.28612188E+04</pdfrwt>
<totfact> 0.13449970E+00</totfact>
</mgrwt>
</event>
<event>
 6    1  0.1885829E-005  0.2684739E+04  0.7818608E-02  0.8339974E-01
         -2   -1    0    0    0  501 -0.00000000000E+00  0.00000000000E+00  0.10379308739E+04  0.10379308739E+04  0.00000000000E+00 0.  1.
          2   -1    0    0  501    0  0.00000000000E+00 -0.00000000000E+00 -0.17361039190E+04  0.17361039190E+04  0.00000000000E+00 0. -1.
         23    2    1    2    0    0  0.92777830632E+03  0.85464320051E+03  0.12023334685E+03  0.12703803750E+04  0.90678849308E+02 0.  0.
         11    1    3    3    0    0  0.71830781318E+03  0.65666558318E+03  0.13069962044E+03  0.98196649301E+03  0.00000000000E+00 0.  1.
        -11    1    3    3    0    0  0.20947049314E+03  0.19797761733E+03 -0.10466273590E+02  0.28841388202E+03  0.00000000000E+00 0. -1.
         22    1    1    2    0    0 -0.92777830632E+03 -0.85464320051E+03 -0.81840639202E+03  0.15036544179E+04  0.00000000000E+00 0.  1.
<mgrwt>
<rscale>  0 0.26847390E+04</rscale>
<asrwt>0</asrwt>
<pdfrwt beam="1">  1        2 0.26709291E+00 0.26847390E+04</pdfrwt>
<pdfrwt beam="2">  1       -2 0.15968168E+00 0.26847390E+04</pdfrwt>
<totfact> 0.20834091E+00</totfact>
</mgrwt>
</event>
<event>
 6    1  0.1885829E-005  0.1150911E+04  0.7818608E-02  0.9156944E-01
          2   -1    0    0  501    0  0.00000000000E+00  0.00000000000E+00  0.43578522852E+04  0.43578522852E+04  0.00000000000E+00 0. -1.
         -2   -1    0    0    0  501 -0.00000000000E+00 -0.00000000000E+00 -0.75989031956E+02  0.75989031956E+02  0.00000000000E+00 0.  1.
         23    2    1    2    0    0 -0.41363824865E+03 -0.37719689979E+03  0.26006834360E+04  0.26619102575E+04  0.94009484666E+02 0.  0.
         13    1    3    3    0    0 -0.20138922757E+03 -0.24668736601E+03  0.14703708035E+04  0.15044608925E+04  0.00000000000E+00 0.  1.
        -13    1    3    3    0    0 -0.21224902108E+03 -0.13050953377E+03  0.11303126325E+04  0.11574493650E+04  0.00000000000E+00 0. -1.
         22    1    1    2    0    0  0.41363824865E+03  0.37719689979E+03  0.16811798173E+04  0.17719310596E+04  0.00000000000E+00 0.  1.
<mgrwt>
<rscale>  0 0.11509109E+04</rscale>
<asrwt>0</asrwt>
<pdfrwt beam="1">  1        2 0.67043862E+00 0.11509109E+04</pdfrwt>
<pdfrwt beam="2">  1       -2 0.11690624E-01 0.11509109E+04</pdfrwt>
<totfact> 0.93732103E+00</totfact>
</mgrwt>
</event>
<event>
 6    1  0.1885829E-005  0.2900559E+04  0.7818608E-02  0.8272711E-01
         -2   -1    0    0    0  501 -0.00000000000E+00  0.00000000000E+00  0.88888252695E+03  0.88888252695E+03  0.00000000000E+00 0.  1.
          2   -1    0    0  501    0  0.00000000000E+00 -0.00000000000E+00 -0.23662415397E+04  0.23662415397E+04  0.00000000000E+00 0. -1.
         23    2    1    2    0    0 -0.82294574619E+03  0.10114424737E+04 -0.30655240194E+02  0.13075082462E+04  0.91555946397E+02 0.  0.
         13    1    3    3    0    0 -0.27571793335E+03  0.39958525510E+03  0.10719660772E+02  0.48559619643E+03  0.00000000000E+00 0. -1.
        -13    1    3    3    0    0 -0.54722781284E+03  0.61185721856E+03 -0.41374900966E+02  0.82191204972E+03  0.00000000000E+00 0.  1.
         22    1    1    2    0    0  0.82294574619E+03 -0.10114424737E+04 -0.14467037725E+04  0.19476158205E+04  0.00000000000E+00 0. -1.
<mgrwt>
<rscale>  0 0.29005591E+04</rscale>
<asrwt>0</asrwt>
<pdfrwt beam="1">  1        2 0.36403716E+00 0.29005591E+04</pdfrwt>
<pdfrwt beam="2">  1       -2 0.13675116E+00 0.29005591E+04</pdfrwt>
<totfact> 0.13689973E+00</totfact>
</mgrwt>
</event>
<event>
 6    1  0.1885829E-005  0.9096683E+03  0.7818608E-02  0.9413576E-01
         -2   -1    0    0    0  501 -0.00000000000E+00  0.00000000000E+00  0.20163509973E+03  0.20163509973E+03  0.00000000000E+00 0.  1.
          2   -1    0    0  501    0  0.00000000000E+00 -0.00000000000E+00 -0.10259825889E+04  0.10259825889E+04  0.00000000000E+00 0. -1.
         23    2    1    2    0    0 -0.27052915783E+02  0.22329055970E+03 -0.94338935721E+03  0.97313487847E+03  0.80109163588E+02 0.  0.
         11    1    3    3    0    0  0.12131679733E+02  0.11637696096E+03 -0.60171368516E+03  0.61298461123E+03  0.00000000000E+00 0. -1.
        -11    1    3    3    0    0 -0.39184595516E+02  0.10691359874E+03 -0.34167567205E+03  0.36015026724E+03  0.00000000000E+00 0.  1.
         22    1    1    2    0    0  0.27052915783E+02 -0.22329055970E+03  0.11904186807E+03  0.25448281014E+03  0.00000000000E+00 0.  1.
<mgrwt>
<rscale>  0 0.90966829E+03</rscale>
<asrwt>0</asrwt>
<pdfrwt beam="1">  1        2 0.15784347E+00 0.90966829E+03</pdfrwt>
<pdfrwt beam="2">  1       -2 0.31020785E-01 0.90966829E+03</pdfrwt>
<totfact> 0.23368116E+02</totfact>
</mgrwt>
</event>
<event>
 6    1  0.1885829E-005  0.2113246E+04  0.7818608E-02  0.8555431E-01
         -2   -1    0    0    0  501 -0.00000000000E+00  0.00000000000E+00  0.62777731827E+03  0.62777731827E+03  0.00000000000E+00 0.  1.
          2   -1    0    0  501    0  0.00000000000E+00 -0.00000000000E+00 -0.17784207327E+04  0.17784207327E+04  0.00000000000E+00 0. -1.
         23    2    1    2    0    0 -0.78739736323E+03  0.62485449280E+03 -0.93955073403E+03  0.13790671613E+04  0.92913447190E+02 0.  0.
         11    1    3    3    0    0 -0.45645443806E+03  0.36468946317E+03 -0.48286782035E+03  0.75796463671E+03  0.00000000000E+00 0. -1.
        -11    1    3    3    0    0 -0.33094292517E+03  0.26016502963E+03 -0.45668291368E+03  0.62110252455E+03  0.00000000000E+00 0.  1.
         22    1    1    2    0    0  0.78739736323E+03 -0.62485449280E+03 -0.21109268035E+03  0.10271308897E+04  0.00000000000E+00 0.  1.
<mgrwt>
<rscale>  0 0.21132460E+04</rscale>
<asrwt>0</asrwt>
<pdfrwt beam="1">  1        2 0.27360319E+00 0.21132460E+04</pdfrwt>
<pdfrwt beam="2">  1       -2 0.96581125E-01 0.21132460E+04</pdfrwt>
<totfact> 0.73215108E+00</totfact>
</mgrwt>
</event>
<event>
 6    1  0.1885829E-005  0.2183619E+04  0.7818608E-02  0.8525277E-01
          2   -1    0    0  501    0  0.00000000000E+00  0.00000000000E+00  0.39407014813E+03  0.39407014813E+03  0.00000000000E+00 0. -1.
         -2   -1    0    0    0  501 -0.00000000000E+00 -0.00000000000E+00 -0.30249642644E+04  0.30249642644E+04  0.00000000000E+00 0.  1.
         23    2    1    2    0    0  0.23947689948E+03 -0.60529554490E+03 -0.26865598101E+04  0.27657117116E+04  0.88463420376E+02 0.  0.
         13    1    3    3    0    0  0.11450322754E+03 -0.22657993633E+03 -0.12021676176E+04  0.12286807712E+04  0.00000000000E+00 0.  1.
        -13    1    3    3    0    0  0.12497367193E+03 -0.37871560857E+03 -0.14843921925E+04  0.15370309405E+04  0.00000000000E+00 0. -1.
         22    1    1    2    0    0 -0.23947689948E+03  0.60529554490E+03  0.55665693781E+02  0.65332270091E+03  0.00000000000E+00 0. -1.
<mgrwt>
<rscale>  0 0.21836191E+04</rscale>
<asrwt>0</asrwt>
<pdfrwt beam="1">  1        2 0.60626178E-01 0.21836191E+04</pdfrwt>
<pdfrwt beam="2">  1       -2 0.46537911E+00 0.21836191E+04</pdfrwt>
<totfact> 0.20334771E-01</totfact>
</mgrwt>
</event>
<event>
 6    1  0.1885829E-005  0.3243081E+04  0.7818608E-02  0.8177531E-01
          2   -1    0    0  501    0  0.00000000000E+00  0.00000000000E+00  0.33973391768E+04  0.33973391768E+04  0.00000000000E+00 0. -1.
         -2   -1    0    0    0  501 -0.00000000000E+00 -0.00000000000E+00 -0.77395678220E+03  0.77395678220E+03  0.00000000000E+00 0.  1.
         23    2    1    2    0    0 -0.96611345061E+03  0.66093428194E+03 -0.12811759134E+03  0.11811518994E+04  0.92175743968E+02 0.  0.
         11    1    3    3    0    0 -0.68335908427E+03  0.47345382352E+03 -0.13262506563E+03  0.84185958989E+03  0.00000000000E+00 0.  1.
        -11    1    3    3    0    0 -0.28275436634E+03  0.18748045842E+03  0.45074742885E+01  0.33929230952E+03  0.00000000000E+00 0. -1.
         22    1    1    2    0    0  0.96611345061E+03 -0.66093428194E+03  0.27514999859E+04  0.29901440596E+04  0.00000000000E+00 0. -1.
<mgrwt>
<rscale>  0 0.32430811E+04</rscale>
<asrwt>0</asrwt>
<pdfrwt beam="1">  1        2 0.52266756E+00 0.32430811E+04</pdfrwt>
<pdfrwt beam="2">  1       -2 0.11907028E+00 0.32430811E+04</pdfrwt>
<totfact> 0.43437074E-01</totfact>
</mgrwt>
</event>
<event>
 6    1  0.1885829E-005  0.3363004E+04  0.7818608E-02  0.8147047E-01
          2   -1    0    0  501    0  0.00000000000E+00  0.00000000000E+00  0.24513204597E+04  0.24513204597E+04  0.00000000000E+00 0. -1.
         -2   -1    0    0    0  501 -0.00000000000E+00 -0.00000000000E+00 -0.11534390558E+04  0.11534390558E+04  0.00000000000E+00 0.  1.
         23    2    1    2    0    0  0.81140927398E+03 -0.14308043763E+04  0.28156388872E+03  0.16712426511E+04  0.90485369489E+02 0.  0.
         11    1    3    3    0    0  0.25063899789E+03 -0.44981821528E+03  0.13069949677E+03  0.53126141636E+03  0.00000000000E+00 0.  1.
        -11    1    3    3    0    0  0.56077027609E+03 -0.98098616104E+03  0.15086439194E+03  0.11399812347E+04  0.00000000000E+00 0. -1.
         22    1    1    2    0    0 -0.81140927398E+03  0.14308043763E+04  0.10163175152E+04  0.19335168644E+04  0.00000000000E+00 0.  1.
<mgrwt>
<rscale>  0 0.33630039E+04</rscale>
<asrwt>0</asrwt>
<pdfrwt beam="1">  1        2 0.37712622E+00 0.33630039E+04</pdfrwt>
<pdfrwt beam="2">  1       -2 0.17745216E+00 0.33630039E+04</pdfrwt>
<totfact> 0.58283851E-01</totfact>
</mgrwt>
</event>
<event>
 6    1  0.1885829E-005  0.1638303E+04  0.7818608E-02  0.8797357E-01
         -2   -1    0    0    0  501 -0.00000000000E+00  0.00000000000E+00  0.54844191546E+03  0.54844191546E+03  0.00000000000E+00 0.  1.
          2   -1    0    0  501    0  0.00000000000E+00 -0.00000000000E+00 -0.12234825741E+04  0.12234825741E+04  0.00000000000E+00 0. -1.
         23    2    1    2    0    0  0.29759526203E+03 -0.25181011825E+03  0.43762707319E+03  0.59294155622E+03  0.89949754159E+02 0.  0.
         13    1    3    3    0    0  0.47867005267E+02 -0.14973568600E+02  0.26353808936E+02  0.56656695944E+02  0.00000000000E+00 0.  1.
        -13    1    3    3    0    0  0.24972825676E+03 -0.23683654965E+03  0.41127326425E+03  0.53628486028E+03  0.00000000000E+00 0. -1.
         22    1    1    2    0    0 -0.29759526203E+03  0.25181011825E+03 -0.11126677318E+04  0.11789829333E+04  0.00000000000E+00 0. -1.
<mgrwt>
<rscale>  0 0.16383029E+04</rscale>
<asrwt>0</asrwt>
<pdfrwt beam="1">  1        2 0.18822809E+00 0.16383029E+04</pdfrwt>
<pdfrwt beam="2">  1       -2 0.84375680E-01 0.16383029E+04</pdfrwt>
<totfact> 0.21488440E+01</totfact>
</mgrwt>
</event>
<event>
 6    1  0.1885829E-005  0.3012109E+04  0.7818608E-02  0.8240281E-01
         -2   -1    0    0    0  501 -0.00000000000E+00  0.00000000000E+00  0.10806489171E+04  0.10806489171E+04  0.00000000000E+00 0.  1.
          2   -1    0    0  501    0  0.00000000000E+00 -0.00000000000E+00 -0.20989243268E+04  0.20989243268E+04  0.00000000000E+00 0. -1.
         23    2    1    2    0    0 -0.97287701589E+03  0.90551809626E+03 -0.12542585361E+04  0.18297063073E+04  0.90597929029E+02 0.  0.
         11    1    3    3    0    0 -0.83604479688E+03  0.73337912568E+03 -0.10371100103E+04  0.15206620328E+04  0.00000000000E+00 0.  1.
        -11    1    3    3    0    0 -0.13683221900E+03  0.17213897058E+03 -0.21714852580E+03  0.30904427451E+03  0.00000000000E+00 0. -1.
         22    1    1    2    0    0  0.97287701589E+03 -0.90551809626E+03  0.23598312637E+03  0.13498669366E+04  0.00000000000E+00 0.  1.
<mgrwt>
<rscale>  0 0.30121091E+04</rscale>
<asrwt>0</asrwt>
<pdfrwt beam="1">  1        2 0.32291143E+00 0.30121091E+04</pdfrwt>
<pdfrwt beam="2">  1       -2 0.16625368E+00 0.30121091E+04</pdfrwt>
<totfact> 0.11409140E+00</totfact>
</mgrwt>
</event>
<event>
 6    1  0.1885829E-005  0.1317575E+04  0.7818608E-02  0.9015743E-01
          2   -1    0    0  501    0  0.00000000000E+00  0.00000000000E+00  0.13183504578E+04  0.13183504578E+04  0.00000000000E+00 0. -1.
         -2   -1    0    0    0  501 -0.00000000000E+00 -0.00000000000E+00 -0.32920012005E+03  0.32920012005E+03  0.00000000000E+00 0.  1.
         23    2    1    2    0    0  0.17614750120E+03 -0.62967115498E+03  0.55437919781E+03  0.86235018958E+03  0.93796849126E+02 0.  0.
         13    1    3    3    0    0  0.10256504244E+03 -0.26991488699E+03  0.29487484443E+03  0.41270426218E+03  0.00000000000E+00 0. -1.
        -13    1    3    3    0    0  0.73582458762E+02 -0.35975626799E+03  0.25950435338E+03  0.44964592740E+03  0.00000000000E+00 0.  1.
         22    1    1    2    0    0 -0.17614750120E+03  0.62967115498E+03  0.43477113992E+03  0.78520038825E+03  0.00000000000E+00 0.  1.
<mgrwt>
<rscale>  0 0.13175752E+04</rscale>
<asrwt>0</asrwt>
<pdfrwt beam="1">  1        2 0.20282314E+00 0.13175752E+04</pdfrwt>
<pdfrwt beam="2">  1       -2 0.50646173E-01 0.13175752E+04</pdfrwt>
<totfact> 0.58191078E+01</totfact>
</mgrwt>
</event>
<event>
 6    1  0.1885829E-005  0.1736161E+04  0.7818608E-02  0.8741005E-01
          2   -1    0    0  501    0  0.00000000000E+00  0.00000000000E+00  0.70055751886E+03  0.70055751886E+03  0.00000000000E+00 0. -1.
         -2   -1    0    0    0  501 -0.00000000000E+00 -0.00000000000E+00 -0.10756631554E+04  0.10756631554E+04  0.00000000000E+00 0.  1.
         23    2    1    2    0    0 -0.42343705988E+03 -0.73534880928E+03 -0.12144504185E+02  0.85330269383E+03  0.89113317352E+02 0.  0.
         11    1    3    3    0    0 -0.10916828419E+02 -0.56799122367E+02  0.10930955175E+02  0.58862579161E+02  0.00000000000E+00 0.  1.
        -11    1    3    3    0    0 -0.41252023146E+03 -0.67854968692E+03 -0.23075459360E+02  0.79444011467E+03  0.00000000000E+00 0. -1.
         22    1    1    2    0    0  0.42343705988E+03  0.73534880928E+03 -0.36296113234E+03  0.92291798042E+03  0.00000000000E+00 0. -1.
<mgrwt>
<rscale>  0 0.17361612E+04</rscale>
<asrwt>0</asrwt>
<pdfrwt beam="1">  1        2 0.10777808E+00 0.17361612E+04</pdfrwt>
<pdfrwt beam="2">  1       -2 0.16548664E+00 0.17361612E+04</pdfrwt>
<totfact> 0.89129940E+00</totfact>
</mgrwt>
</event>
<event>
 6    1  0.1885829E-005  0.6642297E+04  0.7818608E-02  0.7615494E-01
         -1   -1    0    0    0  501 -0.00000000000E+00  0.00000000000E+00  0.25324209681E+04  0.25324209681E+04  0.00000000000E+00 0.  1.
          1   -1    0    0  501    0  0.00000000000E+00 -0.00000000000E+00 -0.43555265660E+04  0.43555265660E+04  0.00000000000E+00 0. -1.
         23    2    1    2    0    0 -0.13468081658E+03  0.22044832506E+04 -0.34829084590E+04  0.41251896978E+04  0.93023567996E+02 0.  0.
         11    1    3    3    0    0 -0.10537976761E+03  0.16117337061E+04 -0.26215343243E+04  0.30791610299E+04  0.00000000000E+00 0. -1.
        -11    1    3    3    0    0 -0.29301048972E+02  0.59274954453E+03 -0.86137413472E+03  0.10460286679E+04  0.00000000000E+00 0.  1.
         22    1    1    2    0    0  0.13468081658E+03 -0.22044832506E+04  0.16598028611E+04  0.27627578364E+04  0.00000000000E+00 0.  1.
<mgrwt>
<rscale>  0 0.66422968E+04</rscale>
<asrwt>0</asrwt>
<pdfrwt beam="1">  1        1 0.67008100E+00 0.66422968E+04</pdfrwt>
<pdfrwt beam="2">  1       -1 0.38960323E+00 0.66422968E+04</pdfrwt>
<totfact> 0.23935720E-04</totfact>
</mgrwt>
</event>
<event>
 6    1  0.1885829E-005  0.4263682E+04  0.7818608E-02  0.7953368E-01
          1   -1    0    0  501    0  0.00000000000E+00  0.00000000000E+00  0.19555740471E+04  0.19555740471E+04  0.00000000000E+00 0.  1.
         -1   -1    0    0    0  501 -0.00000000000E+00 -0.00000000000E+00 -0.23239957977E+04  0.23239957977E+04  0.00000000000E+00 0. -1.
         23    2    1    2    0    0 -0.14437964373E+02 -0.13921787978E+04 -0.18035089784E+04  0.22801085146E+04  0.88769044232E+02 0.  0.
         13    1    3    3    0    0 -0.29041925529E+02 -0.96438010714E+03 -0.13074424870E+04  0.16248933138E+04  0.00000000000E+00 0. -1.
        -13    1    3    3    0    0  0.14603961156E+02 -0.42779869067E+03 -0.49606649142E+03  0.65521520077E+03  0.00000000000E+00 0.  1.
         22    1    1    2    0    0  0.14437964373E+02  0.13921787978E+04  0.14350872277E+04  0.19994613302E+04  0.00000000000E+00 0.  1.
<mgrwt>
<rscale>  0 0.42636819E+04</rscale>
<asrwt>0</asrwt>
<pdfrwt beam="1">  1        1 0.30085754E+00 0.42636819E+04</pdfrwt>
<pdfrwt beam="2">  1       -1 0.35753782E+00 0.42636819E+04</pdfrwt>
<totfact> 0.33866652E-02</totfact>
</mgrwt>
</event>
<event>
 6    1  0.1885829E-005  0.1103754E+04  0.7818608E-02  0.9201541E-01
          2   -1    0    0  501    0  0.00000000000E+00  0.00000000000E+00  0.65143659048E+03  0.65143659048E+03  0.00000000000E+00 0. -1.
         -2   -1    0    0    0  501 -0.00000000000E+00 -0.00000000000E+00 -0.46753314688E+03  0.46753314688E+03  0.00000000000E+00 0.  1.
         23    2    1    2    0    0 -0.12322453901E+03  0.51948965365E+03 -0.34001906464E+02  0.54230993397E+03  0.88826502608E+02 0.  0.
         13    1    3    3    0    0 -0.20891915306E+02  0.21062252000E+02 -0.14727966276E+02  0.33121044294E+02  0.00000000000E+00 0.  1.
        -13    1    3    3    0    0 -0.10233262370E+03  0.49842740165E+03 -0.19273940187E+02  0.50918888967E+03  0.00000000000E+00 0. -1.
         22    1    1    2    0    0  0.12322453901E+03 -0.51948965365E+03  0.21790535007E+03  0.57665980340E+03  0.00000000000E+00 0. -1.
<mgrwt>
<rscale>  0 0.11037540E+04</rscale>
<asrwt>0</asrwt>
<pdfrwt beam="1">  1        2 0.10022101E+00 0.11037540E+04</pdfrwt>
<pdfrwt beam="2">  1       -2 0.71928176E-01 0.11037540E+04</pdfrwt>
<totfact> 0.78002600E+01</totfact>
</mgrwt>
</event>
<event>
 6    1  0.1885829E-005  0.8679999E+03  0.7818608E-02  0.9466491E-01
          2   -1    0    0  501    0  0.00000000000E+00  0.00000000000E+00  0.15857322612E+04  0.15857322612E+04  0.00000000000E+00 0. -1.
         -2   -1    0    0    0  501 -0.00000000000E+00 -0.00000000000E+00 -0.11878170155E+03  0.11878170155E+03  0.00000000000E+00 0.  1.
         23    2    1    2    0    0 -0.23661889156E+03 -0.24315860813E+03  0.12577507958E+04  0.13059174879E+04  0.91481213317E+02 0.  0.
         11    1    3    3    0    0 -0.12970783416E+03 -0.69160450160E+02  0.50539012983E+03  0.52633304422E+03  0.00000000000E+00 0.  1.
        -11    1    3    3    0    0 -0.10691105740E+03 -0.17399815797E+03  0.75236066598E+03  0.77958444372E+03  0.00000000000E+00 0. -1.
         22    1    1    2    0    0  0.23661889156E+03  0.24315860813E+03  0.20919976388E+03  0.39859647485E+03  0.00000000000E+00 0.  1.
<mgrwt>
<rscale>  0 0.86799995E+03</rscale>
<asrwt>0</asrwt>
<pdfrwt beam="1">  1        2 0.24395879E+00 0.86799995E+03</pdfrwt>
<pdfrwt beam="2">  1       -2 0.18274109E-01 0.86799995E+03</pdfrwt>
<totfact> 0.28575775E+02</totfact>
</mgrwt>
</event>
<event>
 6    1  0.1885829E-005  0.2053049E+04  0.7818608E-02  0.8582212E-01
         -1   -1    0    0    0  501 -0.00000000000E+00  0.00000000000E+00  0.75118865091E+03  0.75118865091E+03  0.00000000000E+00 0.  1.
          1   -1    0    0  501    0  0.00000000000E+00 -0.00000000000E+00 -0.14027800997E+04  0.14027800997E+04  0.00000000000E+00 0. -1.
         23    2    1    2    0    0  0.29941358526E+03 -0.97740037594E+03 -0.25556120141E+03  0.10577023839E+04  0.91993561529E+02 0.  0.
         11    1    3    3    0    0  0.83315936556E+02 -0.41927055342E+03 -0.92097244869E+02  0.43727708008E+03  0.00000000000E+00 0. -1.
        -11    1    3    3    0    0  0.21609764871E+03 -0.55812982252E+03 -0.16346395654E+03  0.62042530384E+03  0.00000000000E+00 0.  1.
         22    1    1    2    0    0 -0.29941358526E+03  0.97740037594E+03 -0.39603024739E+03  0.10962663667E+04  0.00000000000E+00 0. -1.
<mgrwt>
<rscale>  0 0.20530489E+04</rscale>
<asrwt>0</asrwt>
<pdfrwt beam="1">  1        1 0.21581232E+00 0.20530489E+04</pdfrwt>
<pdfrwt beam="2">  1       -1 0.11556749E+00 0.20530489E+04</pdfrwt>
<totfact> 0.47908765E+00</totfact>
</mgrwt>
</event>
<event>
 6    1  0.1885829E-005  0.2243820E+04  0.7818608E-02  0.8500408E-01
          2   -1    0    0  501    0  0.00000000000E+00  0.00000000000E+00  0.82500315868E+03  0.82500315868E+03  0.00000000000E+00 0. -1.
         -2   -1    0    0    0  501 -0.00000000000E+00 -0.00000000000E+00 -0.15256690544E+04  0.15256690544E+04  0.00000000000E+00 0.  1.
         23    2    1    2    0    0 -0.10155326000E+04  0.42866011020E+03 -0.14262914268E+03  0.11151719219E+04  0.90605690696E+02 0.  0.
         11    1    3    3    0    0 -0.83826710911E+03  0.35494632285E+03 -0.82759568290E+02  0.91407208932E+03  0.00000000000E+00 0. -1.
        -11    1    3    3    0    0 -0.17726549093E+03  0.73713787353E+02 -0.59869574390E+02  0.20109983257E+03  0.00000000000E+00 0.  1.
         22    1    1    2    0    0  0.10155326000E+04 -0.42866011020E+03 -0.55803675308E+03  0.12355002912E+04  0.00000000000E+00 0. -1.
<mgrwt>
<rscale>  0 0.22438198E+04</rscale>
<asrwt>0</asrwt>
<pdfrwt beam="1">  1        2 0.12692356E+00 0.22438198E+04</pdfrwt>
<pdfrwt beam="2">  1       -2 0.23471831E+00 0.22438198E+04</pdfrwt>
<totfact> 0.24042427E+00</totfact>
</mgrwt>
</event>
<event>
 6    1  0.1885829E-005  0.3472406E+04  0.7818608E-02  0.8120361E-01
          2   -1    0    0  501    0  0.00000000000E+00  0.00000000000E+00  0.25959445079E+04  0.25959445079E+04  0.00000000000E+00 0. -1.
         -2   -1    0    0    0  501 -0.00000000000E+00 -0.00000000000E+00 -0.11611960760E+04  0.11611960760E+04  0.00000000000E+00 0.  1.
         23    2    1    2    0    0  0.56679022204E+03 -0.44674297258E+03 -0.98932170910E+03  0.12279220311E+04  0.90579417727E+02 0.  0.
         11    1    3    3    0    0  0.33626495040E+03 -0.31892918434E+03 -0.64766144737E+03  0.79640146403E+03  0.00000000000E+00 0. -1.
        -11    1    3    3    0    0  0.23052527164E+03 -0.12781378824E+03 -0.34166026173E+03  0.43152056703E+03  0.00000000000E+00 0.  1.
         22    1    1    2    0    0 -0.56679022204E+03  0.44674297258E+03  0.24240701410E+04  0.25292185528E+04  0.00000000000E+00 0. -1.
<mgrwt>
<rscale>  0 0.34724058E+04</rscale>
<asrwt>0</asrwt>
<pdfrwt beam="1">  1        2 0.39937608E+00 0.34724058E+04</pdfrwt>
<pdfrwt beam="2">  1       -2 0.17864555E+00 0.34724058E+04</pdfrwt>
<totfact> 0.46684867E-01</totfact>
</mgrwt>
</event>
<event>
 6    1  0.1885829E-005  0.3774483E+04  0.7818608E-02  0.8051653E-01
          1   -1    0    0  501    0  0.00000000000E+00  0.00000000000E+00  0.25009638253E+04  0.25009638253E+04  0.00000000000E+00 0. -1.
         -1   -1    0    0    0  501 -0.00000000000E+00 -0.00000000000E+00 -0.14241231278E+04  0.14241231278E+04  0.00000000000E+00 0.  1.
         23    2    1    2    0    0  0.17893795315E+04  0.50787843676E+03  0.21372785760E+03  0.18745301047E+04  0.91454370976E+02 0.  0.
         13    1    3    3    0    0  0.67497103574E+03  0.17301593256E+03  0.12087416245E+03  0.70719938855E+03  0.00000000000E+00 0.  1.
        -13    1    3    3    0    0  0.11144084958E+04  0.33486250420E+03  0.92853695155E+02  0.11673307161E+04  0.00000000000E+00 0. -1.
         22    1    1    2    0    0 -0.17893795315E+04 -0.50787843676E+03  0.86311283983E+03  0.20505568484E+04  0.00000000000E+00 0. -1.
<mgrwt>
<rscale>  0 0.37744830E+04</rscale>
<asrwt>0</asrwt>
<pdfrwt beam="1">  1        1 0.38476367E+00 0.37744830E+04</pdfrwt>
<pdfrwt beam="2">  1       -1 0.21909587E+00 0.37744830E+04</pdfrwt>
<totfact> 0.12035937E-01</totfact>
</mgrwt>
</event>
<event>
 6    1  0.1885829E-005  0.6308385E+04  0.7818608E-02  0.7653299E-01
         -2   -1    0    0    0  501 -0.00000000000E+00  0.00000000000E+00  0.24824416582E+04  0.24824416582E+04  0.00000000000E+00 0. -1.
          2   -1    0    0  501    0  0.00000000000E+00 -0.00000000000E+00 -0.40077200294E+04  0.40077200294E+04  0.00000000000E+00 0.  1.
         23    2    1    2    0    0  0.24586941437E+04 -0.99949047033E+03 -0.25149980515E+04  0.36575474996E+04  0.90996813308E+02 0.  0.
         11    1    3    3    0    0  0.52531241282E+03 -0.24810804964E+03 -0.52331202570E+03  0.78189910576E+03  0.00000000000E+00 0. -1.
        -11    1    3    3    0    0  0.19333817309E+04 -0.75138242070E+03 -0.19916860258E+04  0.28756483938E+04  0.00000000000E+00 0.  1.
         22    1    1    2    0    0 -0.24586941437E+04  0.99949047033E+03  0.98971968027E+03  0.28326141880E+04  0.00000000000E+00 0. -1.
<mgrwt>
<rscale>  0 0.63083853E+04</rscale>
<asrwt>0</asrwt>
<pdfrwt beam="1">  1        2 0.61657231E+00 0.63083853E+04</pdfrwt>
<pdfrwt beam="2">  1       -2 0.38191410E+00 0.63083853E+04</pdfrwt>
<totfact> 0.21464881E-03</totfact>
</mgrwt>
</event>
<event>
 6    1  0.1885829E-005  0.1457918E+04  0.7818608E-02  0.8912930E-01
          2   -1    0    0  501    0  0.00000000000E+00  0.00000000000E+00  0.57508023464E+03  0.57508023464E+03  0.00000000000E+00 0. -1.
         -2   -1    0    0    0  501 -0.00000000000E+00 -0.00000000000E+00 -0.92401182690E+03  0.92401182690E+03  0.00000000000E+00 0.  1.
         23    2    1    2    0    0  0.17270622639E+03 -0.55623282621E+03 -0.62108390497E+03  0.85621627346E+03  0.90214701256E+02 0.  0.
         13    1    3    3    0    0  0.98596511570E+02 -0.30215013870E+03 -0.40315025048E+03  0.51336741509E+03  0.00000000000E+00 0. -1.
        -13    1    3    3    0    0  0.74109714823E+02 -0.25408268751E+03 -0.21793365449E+03  0.34284885837E+03  0.00000000000E+00 0.  1.
         22    1    1    2    0    0 -0.17270622639E+03  0.55623282621E+03  0.27215231271E+03  0.64287578809E+03  0.00000000000E+00 0. -1.
<mgrwt>
<rscale>  0 0.14579176E+04</rscale>
<asrwt>0</asrwt>
<pdfrwt beam="1">  1        2 0.88473883E-01 0.14579176E+04</pdfrwt>
<pdfrwt beam="2">  1       -2 0.14215566E+00 0.14579176E+04</pdfrwt>
<totfact> 0.17449564E+01</totfact>
</mgrwt>
</event>
<event>
 6    1  0.1885829E-005  0.2398974E+04  0.7818608E-02  0.8439888E-01
          2   -1    0    0  501    0  0.00000000000E+00  0.00000000000E+00  0.18100997341E+04  0.18100997341E+04  0.00000000000E+00 0. -1.
         -2   -1    0    0    0  501 -0.00000000000E+00 -0.00000000000E+00 -0.79485606751E+03  0.79485606751E+03  0.00000000000E+00 0.  1.
         23    2    1    2    0    0 -0.41926550875E+03  0.56379707382E+03 -0.54498316842E+03  0.89382796186E+03  0.90945391654E+02 0.  0.
         13    1    3    3    0    0 -0.25490112860E+03  0.41169963681E+03 -0.38469037680E+03  0.61843177661E+03  0.00000000000E+00 0. -1.
        -13    1    3    3    0    0 -0.16436438015E+03  0.15209743701E+03 -0.16029279162E+03  0.27539618525E+03  0.00000000000E+00 0.  1.
         22    1    1    2    0    0  0.41926550875E+03 -0.56379707382E+03  0.15602268351E+04  0.17111278398E+04  0.00000000000E+00 0. -1.
<mgrwt>
<rscale>  0 0.23989737E+04</rscale>
<asrwt>0</asrwt>
<pdfrwt beam="1">  1        2 0.27847688E+00 0.23989737E+04</pdfrwt>
<pdfrwt beam="2">  1       -2 0.12228555E+00 0.23989737E+04</pdfrwt>
<totfact> 0.38810599E+00</totfact>
</mgrwt>
</event>
<event>
 6    1  0.1885829E-005  0.2554437E+04  0.7818608E-02  0.8383845E-01
         -2   -1    0    0    0  501 -0.00000000000E+00  0.00000000000E+00  0.61510203683E+03  0.61510203683E+03  0.00000000000E+00 0.  1.
          2   -1    0    0  501    0  0.00000000000E+00 -0.00000000000E+00 -0.26520583629E+04  0.26520583629E+04  0.00000000000E+00 0. -1.
         23    2    1    2    0    0  0.46728900841E+03  0.11861718567E+04 -0.10719484229E+04  0.16682223321E+04  0.92356032705E+02 0.  0.
         13    1    3    3    0    0  0.21416355880E+03  0.42269710468E+03 -0.40382231617E+03  0.62258440011E+03  0.00000000000E+00 0.  1.
        -13    1    3    3    0    0  0.25312544961E+03  0.76347475205E+03 -0.66812610674E+03  0.10456379320E+04  0.00000000000E+00 0. -1.
         22    1    1    2    0    0 -0.46728900841E+03 -0.11861718567E+04 -0.96500790317E+03  0.15989380677E+04  0.00000000000E+00 0.  1.
<mgrwt>
<rscale>  0 0.25544365E+04</rscale>
<asrwt>0</asrwt>
<pdfrwt beam="1">  1        2 0.40800897E+00 0.25544365E+04</pdfrwt>
<pdfrwt beam="2">  1       -2 0.94631085E-01 0.25544365E+04</pdfrwt>
<totfact> 0.23674316E+00</totfact>
</mgrwt>
</event>
<event>
 6    1  0.1885829E-005  0.4402967E+04  0.7818608E-02  0.7927848E-01
         -2   -1    0    0    0  501 -0.00000000000E+00  0.00000000000E+00  0.16969015922E+04  0.16969015922E+04  0.00000000000E+00 0.  1.
          2   -1    0    0  501    0  0.00000000000E+00 -0.00000000000E+00 -0.28561058908E+04  0.28561058908E+04  0.00000000000E+00 0. -1.
         23    2    1    2    0    0 -0.18142314384E+04 -0.12377031362E+04 -0.43630129689E+03  0.22408799961E+04  0.88541345443E+02 0.  0.
         13    1    3    3    0    0 -0.32434023456E+03 -0.26263697189E+03 -0.89060591417E+02  0.42673944708E+03  0.00000000000E+00 0.  1.
        -13    1    3    3    0    0 -0.14898912038E+04 -0.97506616434E+03 -0.34724070548E+03  0.18141405490E+04  0.00000000000E+00 0. -1.
         22    1    1    2    0    0  0.18142314384E+04  0.12377031362E+04 -0.72290300168E+03  0.23121274868E+04  0.00000000000E+00 0.  1.
<mgrwt>
<rscale>  0 0.44029675E+04</rscale>
<asrwt>0</asrwt>
<pdfrwt beam="1">  1        2 0.43940090E+00 0.44029675E+04</pdfrwt>
<pdfrwt beam="2">  1       -2 0.26106178E+00 0.44029675E+04</pdfrwt>
<totfact> 0.89697308E-02</totfact>
</mgrwt>
</event>
<event>
 6    1  0.1885829E-005  0.1372151E+04  0.7818608E-02  0.8974228E-01
          1   -1    0    0  501    0  0.00000000000E+00  0.00000000000E+00  0.11829105092E+04  0.11829105092E+04  0.00000000000E+00 0. -1.
         -1   -1    0    0    0  501 -0.00000000000E+00 -0.00000000000E+00 -0.39791635417E+03  0.39791635417E+03  0.00000000000E+00 0.  1.
         23    2    1    2    0    0  0.65746551799E+03 -0.16150300146E+03  0.28951891224E+03  0.74187523004E+03  0.90628525156E+02 0.  0.
         13    1    3    3    0    0  0.30058110708E+03 -0.27506199386E+02  0.12893297908E+03  0.32822142836E+03  0.00000000000E+00 0. -1.
        -13    1    3    3    0    0  0.35688441092E+03 -0.13399680207E+03  0.16058593315E+03  0.41365380168E+03  0.00000000000E+00 0.  1.
         22    1    1    2    0    0 -0.65746551799E+03  0.16150300146E+03  0.49547524277E+03  0.83895163330E+03  0.00000000000E+00 0.  1.
<mgrwt>
<rscale>  0 0.13721508E+04</rscale>
<asrwt>0</asrwt>
<pdfrwt beam="1">  1        1 0.18198623E+00 0.13721508E+04</pdfrwt>
<pdfrwt beam="2">  1       -1 0.61217901E-01 0.13721508E+04</pdfrwt>
<totfact> 0.29085438E+01</totfact>
</mgrwt>
</event>
<event>
 6    1  0.1885829E-005  0.2206742E+04  0.7818608E-02  0.8515627E-01
          2   -1    0    0  501    0  0.00000000000E+00  0.00000000000E+00  0.30589443302E+04  0.30589443302E+04  0.00000000000E+00 0. -1.
         -2   -1    0    0    0  501 -0.00000000000E+00 -0.00000000000E+00 -0.39798926792E+03  0.39798926792E+03  0.00000000000E+00 0.  1.
         23    2    1    2    0    0 -0.17307818854E+03  0.70365504755E+03  0.26323329717E+04  0.27317400313E+04  0.90223273895E+02 0.  0.
         11    1    3    3    0    0 -0.13901445434E+03  0.37827604109E+03  0.14696472520E+04  0.15239031554E+04  0.00000000000E+00 0. -1.
        -11    1    3    3    0    0 -0.34063734203E+02  0.32537900646E+03  0.11626857198E+04  0.12078368759E+04  0.00000000000E+00 0.  1.
         22    1    1    2    0    0  0.17307818854E+03 -0.70365504755E+03  0.28622090522E+02  0.72519356682E+03  0.00000000000E+00 0.  1.
<mgrwt>
<rscale>  0 0.22067415E+04</rscale>
<asrwt>0</asrwt>
<pdfrwt beam="1">  1        2 0.47060680E+00 0.22067415E+04</pdfrwt>
<pdfrwt beam="2">  1       -2 0.61229120E-01 0.22067415E+04</pdfrwt>
<totfact> 0.36273480E+00</totfact>
</mgrwt>
</event>
<event>
 6    1  0.1885829E-005  0.2009357E+04  0.7818608E-02  0.8602258E-01
          2   -1    0    0  501    0  0.00000000000E+00  0.00000000000E+00  0.14831212796E+04  0.14831212796E+04  0.00000000000E+00 0. -1.
         -2   -1    0    0    0  501 -0.00000000000E+00 -0.00000000000E+00 -0.68057767372E+03  0.68057767372E+03  0.00000000000E+00 0.  1.
         23    2    1    2    0    0  0.30828520383E+03  0.63352215496E+03  0.11702020272E+04  0.13689896967E+04  0.91487253303E+02 0.  0.
         13    1    3    3    0    0  0.24030552872E+03  0.55102304150E+03  0.95017320154E+03  0.11243674899E+04  0.00000000000E+00 0. -1.
        -13    1    3    3    0    0  0.67979675105E+02  0.82499113454E+02  0.22002882563E+03  0.24462220680E+03  0.00000000000E+00 0.  1.
         22    1    1    2    0    0 -0.30828520383E+03 -0.63352215496E+03 -0.36765842134E+03  0.79470925659E+03  0.00000000000E+00 0.  1.
<mgrwt>
<rscale>  0 0.20093573E+04</rscale>
<asrwt>0</asrwt>
<pdfrwt beam="1">  1        2 0.22817250E+00 0.20093573E+04</pdfrwt>
<pdfrwt beam="2">  1       -2 0.10470426E+00 0.20093573E+04</pdfrwt>
<totfact> 0.89164910E+00</totfact>
</mgrwt>
</event>
<event>
 6    1  0.1885829E-005  0.4401693E+04  0.7818608E-02  0.7928077E-01
          2   -1    0    0  501    0  0.00000000000E+00  0.00000000000E+00  0.27030909440E+04  0.27030909440E+04  0.00000000000E+00 0. -1.
         -2   -1    0    0    0  501 -0.00000000000E+00 -0.00000000000E+00 -0.17919209942E+04  0.17919209942E+04  0.00000000000E+00 0.  1.
         23    2    1    2    0    0  0.18543797757E+04 -0.92613983722E+03  0.12084221503E+04  0.24010161834E+04  0.90195724664E+02 0.  0.
         11    1    3    3    0    0  0.14452879666E+04 -0.69464664777E+03  0.96757129455E+03  0.18728549014E+04  0.00000000000E+00 0.  1.
        -11    1    3    3    0    0  0.40909180909E+03 -0.23149318945E+03  0.24085085577E+03  0.52816128195E+03  0.00000000000E+00 0. -1.
         22    1    1    2    0    0 -0.18543797757E+04  0.92613983722E+03 -0.29725220053E+03  0.20939957549E+04  0.00000000000E+00 0.  1.
<mgrwt>
<rscale>  0 0.44016930E+04</rscale>
<asrwt>0</asrwt>
<pdfrwt beam="1">  1        2 0.41586014E+00 0.44016930E+04</pdfrwt>
<pdfrwt beam="2">  1       -2 0.27568015E+00 0.44016930E+04</pdfrwt>
<totfact> 0.90357712E-02</totfact>
</mgrwt>
</event>
<event>
 6    1  0.1885829E-005  0.2175819E+04  0.7818608E-02  0.8528561E-01
          2   -1    0    0  501    0  0.00000000000E+00  0.00000000000E+00  0.20301781162E+04  0.20301781162E+04  0.00000000000E+00 0. -1.
         -2   -1    0    0    0  501 -0.00000000000E+00 -0.00000000000E+00 -0.58297717900E+03  0.58297717900E+03  0.00000000000E+00 0.  1.
         23    2    1    2    0    0  0.91007766557E+03  0.42112845421E+03  0.12252541701E+04  0.15860959495E+04  0.94138446607E+02 0.  0.
         11    1    3    3    0    0  0.21072161897E+03  0.14109414461E+03  0.29291882501E+03  0.38744366867E+03  0.00000000000E+00 0. -1.
        -11    1    3    3    0    0  0.69935604660E+03  0.28003430960E+03  0.93233534513E+03  0.11986522808E+04  0.00000000000E+00 0.  1.
         22    1    1    2    0    0 -0.91007766557E+03 -0.42112845421E+03  0.22194676710E+03  0.10270593458E+04  0.00000000000E+00 0. -1.
<mgrwt>
<rscale>  0 0.21758194E+04</rscale>
<asrwt>0</asrwt>
<pdfrwt beam="1">  1        2 0.31233509E+00 0.21758194E+04</pdfrwt>
<pdfrwt beam="2">  1       -2 0.89688798E-01 0.21758194E+04</pdfrwt>
<totfact> 0.62705050E+00</totfact>
</mgrwt>
</event>
<event>
 6    1  0.1885829E-005  0.2215062E+04  0.7818608E-02  0.8512185E-01
         -1   -1    0    0    0  501 -0.00000000000E+00  0.00000000000E+00  0.10971724873E+04  0.10971724873E+04  0.00000000000E+00 0.  1.
          1   -1    0    0  501    0  0.00000000000E+00 -0.00000000000E+00 -0.11179873890E+04  0.11179873890E+04  0.00000000000E+00 0. -1.
         23    2    1    2    0    0  0.62114933625E+03  0.63013203006E+03  0.65341239788E+03  0.11027411939E+04  0.78724239397E+02 0.  0.
         11    1    3    3    0    0  0.13654341176E+03  0.18768528287E+03  0.16894367862E+03  0.28707461617E+03  0.00000000000E+00 0.  1.
        -11    1    3    3    0    0  0.48460592449E+03  0.44244674719E+03  0.48446871926E+03  0.81566657777E+03  0.00000000000E+00 0. -1.
         22    1    1    2    0    0 -0.62114933625E+03 -0.63013203006E+03 -0.67422729961E+03  0.11124186823E+04  0.00000000000E+00 0. -1.
<mgrwt>
<rscale>  0 0.22150621E+04</rscale>
<asrwt>0</asrwt>
<pdfrwt beam="1">  1        1 0.17199806E+00 0.22150621E+04</pdfrwt>
<pdfrwt beam="2">  1       -1 0.16879577E+00 0.22150621E+04</pdfrwt>
<totfact> 0.28105647E+00</totfact>
</mgrwt>
</event>
<event>
 6    1  0.1885829E-005  0.2027830E+04  0.7818608E-02  0.8593719E-01
          1   -1    0    0  501    0  0.00000000000E+00  0.00000000000E+00  0.24735540189E+04  0.24735540189E+04  0.00000000000E+00 0. -1.
         -1   -1    0    0    0  501 -0.00000000000E+00 -0.00000000000E+00 -0.41560574110E+03  0.41560574110E+03  0.00000000000E+00 0.  1.
         23    2    1    2    0    0  0.37650288728E+02 -0.45394185904E+03  0.23183548697E+04  0.23644766663E+04  0.92194619933E+02 0.  0.
         11    1    3    3    0    0 -0.64425532778E+01 -0.16951363271E+03  0.10705180420E+04  0.10838751111E+04  0.00000000000E+00 0.  1.
        -11    1    3    3    0    0  0.44092842006E+02 -0.28442822634E+03  0.12478368277E+04  0.12806015552E+04  0.00000000000E+00 0. -1.
         22    1    1    2    0    0 -0.37650288728E+02  0.45394185904E+03 -0.26040659195E+03  0.52468309365E+03  0.00000000000E+00 0.  1.
<mgrwt>
<rscale>  0 0.20278296E+04</rscale>
<asrwt>0</asrwt>
<pdfrwt beam="1">  1        1 0.38054676E+00 0.20278296E+04</pdfrwt>
<pdfrwt beam="2">  1       -1 0.63939346E-01 0.20278296E+04</pdfrwt>
<totfact> 0.32453585E+00</totfact>
</mgrwt>
</event>
<event>
 6    1  0.1885829E-005  0.2021858E+04  0.7818608E-02  0.8596469E-01
         -2   -1    0    0    0  501 -0.00000000000E+00  0.00000000000E+00  0.75797042164E+03  0.75797042164E+03  0.00000000000E+00 0.  1.
          2   -1    0    0  501    0  0.00000000000E+00 -0.00000000000E+00 -0.13483074101E+04  0.13483074101E+04  0.00000000000E+00 0. -1.
         23    2    1    2    0    0  0.22002751659E+02  0.94937966028E+03  0.60062630685E+02  0.95526717800E+03  0.84391950642E+02 0.  0.
         13    1    3    3    0    0 -0.23605340330E+01  0.87229021821E+03  0.49031165678E+02  0.87367033377E+03  0.00000000000E+00 0.  1.
        -13    1    3    3    0    0  0.24363285692E+02  0.77089442065E+02  0.11031465006E+02  0.81596844227E+02  0.00000000000E+00 0. -1.
         22    1    1    2    0    0 -0.22002751659E+02 -0.94937966028E+03 -0.65039961912E+03  0.11510106537E+04  0.00000000000E+00 0. -1.
<mgrwt>
<rscale>  0 0.20218577E+04</rscale>
<asrwt>0</asrwt>
<pdfrwt beam="1">  1        2 0.20743191E+00 0.20218577E+04</pdfrwt>
<pdfrwt beam="2">  1       -2 0.11661084E+00 0.20218577E+04</pdfrwt>
<totfact> 0.81922849E+00</totfact>
</mgrwt>
</event>
<event>
 6    1  0.1885829E-005  0.2546063E+04  0.7818608E-02  0.8386757E-01
         -2   -1    0    0    0  501 -0.00000000000E+00  0.00000000000E+00  0.10214492851E+04  0.10214492851E+04  0.00000000000E+00 0.  1.
          2   -1    0    0  501    0  0.00000000000E+00 -0.00000000000E+00 -0.15865785899E+04  0.15865785899E+04  0.00000000000E+00 0. -1.
         23    2    1    2    0    0 -0.10369474969E+04  0.36969509985E+03  0.36856449896E+03  0.11645187143E+04  0.91265917578E+02 0.  0.
         11    1    3    3    0    0 -0.13489738536E+03  0.26196838308E+02  0.69618467297E+02  0.15404645372E+03  0.00000000000E+00 0. -1.
        -11    1    3    3    0    0 -0.90205011157E+03  0.34349826154E+03  0.29894603167E+03  0.10104722605E+04  0.00000000000E+00 0.  1.
         22    1    1    2    0    0  0.10369474969E+04 -0.36969509985E+03 -0.93369380374E+03  0.14435091608E+04  0.00000000000E+00 0. -1.
<mgrwt>
<rscale>  0 0.25460633E+04</rscale>
<asrwt>0</asrwt>
<pdfrwt beam="1">  1        2 0.24408901E+00 0.25460633E+04</pdfrwt>
<pdfrwt beam="2">  1       -2 0.15714604E+00 0.25460633E+04</pdfrwt>
<totfact> 0.26671823E+00</totfact>
</mgrwt>
</event>
<event>
 6    1  0.1885829E-005  0.4315090E+04  0.7818608E-02  0.7943834E-01
         -2   -1    0    0    0  501 -0.00000000000E+00  0.00000000000E+00  0.11705311971E+04  0.11705311971E+04  0.00000000000E+00 0.  1.
          2   -1    0    0  501    0  0.00000000000E+00 -0.00000000000E+00 -0.39768279472E+04  0.39768279472E+04  0.00000000000E+00 0. -1.
         23    2    1    2    0    0  0.12943331079E+04 -0.61157345491E+03  0.51979307485E+03  0.15262828113E+04  0.10017032765E+03 0.  0.
         11    1    3    3    0    0  0.11810424589E+04 -0.58769641664E+03  0.48224307383E+03  0.14045663922E+04  0.00000000000E+00 0.  1.
        -11    1    3    3    0    0  0.11329064903E+03 -0.23877038274E+02  0.37550001019E+02  0.12171641915E+03  0.00000000000E+00 0. -1.
         22    1    1    2    0    0 -0.12943331079E+04  0.61157345491E+03 -0.33260898250E+04  0.36210763330E+04  0.00000000000E+00 0. -1.
<mgrwt>
<rscale>  0 0.43150903E+04</rscale>
<asrwt>0</asrwt>
<pdfrwt beam="1">  1        2 0.61181968E+00 0.43150903E+04</pdfrwt>
<pdfrwt beam="2">  1       -2 0.18008172E+00 0.43150903E+04</pdfrwt>
<totfact> 0.49552987E-02</totfact>
</mgrwt>
</event>
<event>
 6    1  0.1885829E-005  0.3814506E+03  0.7818608E-02  0.1050399E+00
          2   -1    0    0  501    0  0.00000000000E+00  0.00000000000E+00  0.23590337525E+03  0.23590337525E+03  0.00000000000E+00 0. -1.
         -2   -1    0    0    0  501 -0.00000000000E+00 -0.00000000000E+00 -0.15419930348E+03  0.15419930348E+03  0.00000000000E+00 0.  1.
         23    2    1    2    0    0  0.28178787335E+02  0.17684722869E+03  0.75911299270E+02  0.21093085459E+03  0.81610745048E+02 0.  0.
         11    1    3    3    0    0  0.92686830186E+01 -0.54634474359E+01  0.13597071742E+02  0.17338918730E+02  0.00000000000E+00 0. -1.
        -11    1    3    3    0    0  0.18910104316E+02  0.18231067613E+03  0.62314227529E+02  0.19359193586E+03  0.00000000000E+00 0.  1.
         22    1    1    2    0    0 -0.28178787335E+02 -0.17684722869E+03  0.57927725002E+01  0.17917182414E+03  0.00000000000E+00 0.  1.
<mgrwt>
<rscale>  0 0.38145058E+03</rscale>
<asrwt>0</asrwt>
<pdfrwt beam="1">  1        2 0.36292827E-01 0.38145058E+03</pdfrwt>
<pdfrwt beam="2">  1       -2 0.23722970E-01 0.38145058E+03</pdfrwt>
<totfact> 0.22305793E+03</totfact>
</mgrwt>
</event>
<event>
 6    1  0.1885829E-005  0.7859619E+03  0.7818608E-02  0.9580562E-01
         -2   -1    0    0    0  501 -0.00000000000E+00  0.00000000000E+00  0.14580188262E+04  0.14580188262E+04  0.00000000000E+00 0.  1.
          2   -1    0    0  501    0  0.00000000000E+00 -0.00000000000E+00 -0.10592046165E+03  0.10592046165E+03  0.00000000000E+00 0. -1.
         23    2    1    2    0    0  0.46606437741E+02 -0.21902093674E+03  0.13148679176E+04  0.13369405280E+04  0.91596965284E+02 0.  0.
         13    1    3    3    0    0 -0.14455335939E+02 -0.14025764130E+03  0.70168815323E+03  0.71571462683E+03  0.00000000000E+00 0.  1.
        -13    1    3    3    0    0  0.61061773680E+02 -0.78763295436E+02  0.61317976436E+03  0.62122590121E+03  0.00000000000E+00 0. -1.
         22    1    1    2    0    0 -0.46606437741E+02  0.21902093674E+03  0.37230446946E+02  0.22699875980E+03  0.00000000000E+00 0. -1.
<mgrwt>
<rscale>  0 0.78596190E+03</rscale>
<asrwt>0</asrwt>
<pdfrwt beam="1">  1        2 0.16295457E-01 0.78596190E+03</pdfrwt>
<pdfrwt beam="2">  1       -2 0.22431057E+00 0.78596190E+03</pdfrwt>
<totfact> 0.34315551E+01</totfact>
</mgrwt>
</event>
<event>
 6    1  0.1885829E-005  0.1103874E+04  0.7818608E-02  0.9201424E-01
         -1   -1    0    0    0  501 -0.00000000000E+00  0.00000000000E+00  0.67552566076E+03  0.67552566076E+03  0.00000000000E+00 0.  1.
          1   -1    0    0  501    0  0.00000000000E+00 -0.00000000000E+00 -0.45095901975E+03  0.45095901975E+03  0.00000000000E+00 0. -1.
         23    2    1    2    0    0  0.10450922544E+03 -0.13692521682E+03 -0.41797429830E+03  0.46125573353E+03  0.91562243697E+02 0.  0.
         11    1    3    3    0    0  0.77681811267E+01  0.19333312220E+01 -0.10628318693E+03  0.10658423069E+03  0.00000000000E+00 0.  1.
        -11    1    3    3    0    0  0.96741044313E+02 -0.13885854805E+03 -0.31169111137E+03  0.35467150284E+03  0.00000000000E+00 0. -1.
         22    1    1    2    0    0 -0.10450922544E+03  0.13692521682E+03  0.64254093931E+03  0.66522894698E+03  0.00000000000E+00 0.  1.
<mgrwt>
<rscale>  0 0.11038739E+04</rscale>
<asrwt>0</asrwt>
<pdfrwt beam="1">  1        1 0.69378311E-01 0.11038739E+04</pdfrwt>
<pdfrwt beam="2">  1       -1 0.10392702E+00 0.11038739E+04</pdfrwt>
<totfact> 0.44376322E+01</totfact>
</mgrwt>
</event>
<event>
 6    1  0.1885829E-005  0.4790461E+04  0.7818608E-02  0.7861669E-01
         -2   -1    0    0    0  501 -0.00000000000E+00  0.00000000000E+00  0.14955269782E+04  0.14955269782E+04  0.00000000000E+00 0.  1.
          2   -1    0    0  501    0  0.00000000000E+00 -0.00000000000E+00 -0.38361919696E+04  0.38361919696E+04  0.00000000000E+00 0. -1.
         23    2    1    2    0    0 -0.92129167431E+03  0.16619953330E+03 -0.36235346240E+04  0.37435895047E+04  0.89769561889E+02 0.  0.
         11    1    3    3    0    0 -0.43846546120E+03  0.40746723423E+02 -0.16031551987E+04  0.16625338635E+04  0.00000000000E+00 0. -1.
        -11    1    3    3    0    0 -0.48282621311E+03  0.12545280987E+03 -0.20203794253E+04  0.20810556412E+04  0.00000000000E+00 0.  1.
         22    1    1    2    0    0  0.92129167431E+03 -0.16619953330E+03  0.12828696325E+04  0.15881294431E+04  0.00000000000E+00 0.  1.
<mgrwt>
<rscale>  0 0.47904608E+04</rscale>
<asrwt>0</asrwt>
<pdfrwt beam="1">  1        2 0.59018337E+00 0.47904608E+04</pdfrwt>
<pdfrwt beam="2">  1       -2 0.23008108E+00 0.47904608E+04</pdfrwt>
<totfact> 0.29025934E-02</totfact>
</mgrwt>
</event>
<event>
 6    1  0.1885829E-005  0.2884259E+04  0.7818608E-02  0.8277576E-01
         -2   -1    0    0    0  501 -0.00000000000E+00  0.00000000000E+00  0.70076719117E+03  0.70076719117E+03  0.00000000000E+00 0. -1.
          2   -1    0    0  501    0  0.00000000000E+00 -0.00000000000E+00 -0.29678011887E+04  0.29678011887E+04  0.00000000000E+00 0.  1.
         23    2    1    2    0    0  0.60765302884E+03 -0.11314259461E+04 -0.19650587308E+04  0.23492670737E+04  0.90736392281E+02 0.  0.
         11    1    3    3    0    0  0.21822164906E+03 -0.49812533527E+03 -0.85034165198E+03  0.10093713206E+04  0.00000000000E+00 0.  1.
        -11    1    3    3    0    0  0.38943137978E+03 -0.63330061079E+03 -0.11147170789E+04  0.13398957531E+04  0.00000000000E+00 0. -1.
         22    1    1    2    0    0 -0.60765302884E+03  0.11314259461E+04 -0.30197526671E+03  0.13193013062E+04  0.00000000000E+00 0. -1.
<mgrwt>
<rscale>  0 0.28842591E+04</rscale>
<asrwt>0</asrwt>
<pdfrwt beam="1">  1        2 0.45658481E+00 0.28842591E+04</pdfrwt>
<pdfrwt beam="2">  1       -2 0.10781033E+00 0.28842591E+04</pdfrwt>
<totfact> 0.10865913E+00</totfact>
</mgrwt>
</event>
<event>
 6    1  0.1885829E-005  0.2466584E+04  0.7818608E-02  0.8414988E-01
         -2   -1    0    0    0  501 -0.00000000000E+00  0.00000000000E+00  0.19392583892E+04  0.19392583892E+04  0.00000000000E+00 0.  1.
          2   -1    0    0  501    0  0.00000000000E+00 -0.00000000000E+00 -0.78432526481E+03  0.78432526481E+03  0.00000000000E+00 0. -1.
         23    2    1    2    0    0  0.77864895041E+02  0.98646849675E+03  0.13870483041E+04  0.17071878189E+04  0.10679051434E+03 0.  0.
         13    1    3    3    0    0  0.84444771631E+02  0.52273957550E+03  0.68540073134E+03  0.86611878272E+03  0.00000000000E+00 0.  1.
        -13    1    3    3    0    0 -0.65798765897E+01  0.46372892125E+03  0.70164757278E+03  0.84106903614E+03  0.00000000000E+00 0. -1.
         22    1    1    2    0    0 -0.77864895041E+02 -0.98646849675E+03 -0.23211517977E+03  0.10163958351E+04  0.00000000000E+00 0. -1.
<mgrwt>
<rscale>  0 0.24665842E+04</rscale>
<asrwt>0</asrwt>
<pdfrwt beam="1">  1        2 0.12066543E+00 0.24665842E+04</pdfrwt>
<pdfrwt beam="2">  1       -2 0.29834744E+00 0.24665842E+04</pdfrwt>
<totfact> 0.10290950E+00</totfact>
</mgrwt>
</event>
<event>
 6    1  0.1885829E-005  0.2349704E+04  0.7818608E-02  0.8458577E-01
         -2   -1    0    0    0  501 -0.00000000000E+00  0.00000000000E+00  0.10208934116E+04  0.10208934116E+04  0.00000000000E+00 0.  1.
          2   -1    0    0  501    0  0.00000000000E+00 -0.00000000000E+00 -0.13520291477E+04  0.13520291477E+04  0.00000000000E+00 0. -1.
         23    2    1    2    0    0 -0.98872399842E+03  0.53120636145E+03 -0.51065560598E+03  0.12362683783E+04  0.88515602338E+02 0.  0.
         11    1    3    3    0    0 -0.25340318518E+03  0.13635556581E+03 -0.89212916627E+02  0.30127223417E+03  0.00000000000E+00 0. -1.
        -11    1    3    3    0    0 -0.73532081323E+03  0.39485079565E+03 -0.42144268935E+03  0.93499614416E+03  0.00000000000E+00 0.  1.
         22    1    1    2    0    0  0.98872399842E+03 -0.53120636145E+03  0.17951986993E+03  0.11366541810E+04  0.00000000000E+00 0.  1.
<mgrwt>
<rscale>  0 0.23497044E+04</rscale>
<asrwt>0</asrwt>
<pdfrwt beam="1">  1        2 0.20800448E+00 0.23497044E+04</pdfrwt>
<pdfrwt beam="2">  1       -2 0.15706053E+00 0.23497044E+04</pdfrwt>
<totfact> 0.36889234E+00</totfact>
</mgrwt>
</event>
<event>
 6    1  0.1885829E-005  0.2938444E+04  0.7818608E-02  0.8261530E-01
          2   -1    0    0  501    0  0.00000000000E+00  0.00000000000E+00  0.15715681318E+04  0.15715681318E+04  0.00000000000E+00 0. -1.
         -2   -1    0    0    0  501 -0.00000000000E+00 -0.00000000000E+00 -0.13735411724E+04  0.13735411724E+04  0.00000000000E+00 0.  1.
         23    2    1    2    0    0 -0.10315002249E+04  0.19035701013E+03 -0.92998303061E+03  0.14047732880E+04  0.91055193192E+02 0.  0.
         13    1    3    3    0    0 -0.58144481353E+03  0.61518850454E+02 -0.52244841459E+03  0.78410138760E+03  0.00000000000E+00 0. -1.
        -13    1    3    3    0    0 -0.45005541134E+03  0.12883815968E+03 -0.40753461602E+03  0.62067190038E+03  0.00000000000E+00 0.  1.
         22    1    1    2    0    0  0.10315002249E+04 -0.19035701013E+03  0.11280099900E+04  0.15403360162E+04  0.00000000000E+00 0. -1.
<mgrwt>
<rscale>  0 0.29384442E+04</rscale>
<asrwt>0</asrwt>
<pdfrwt beam="1">  1        2 0.24177971E+00 0.29384442E+04</pdfrwt>
<pdfrwt beam="2">  1       -2 0.21131403E+00 0.29384442E+04</pdfrwt>
<totfact> 0.11178493E+00</totfact>
</mgrwt>
</event>
<event>
 6    1  0.1885829E-005  0.2306412E+04  0.7818608E-02  0.8475397E-01
         -2   -1    0    0    0  501 -0.00000000000E+00  0.00000000000E+00  0.80508770593E+03  0.80508770593E+03  0.00000000000E+00 0.  1.
          2   -1    0    0  501    0  0.00000000000E+00 -0.00000000000E+00 -0.16518496802E+04  0.16518496802E+04  0.00000000000E+00 0. -1.
         23    2    1    2    0    0 -0.66338633485E+03 -0.62118676821E+03  0.32916317172E+03  0.97074951805E+03  0.89731838887E+02 0.  0.
         13    1    3    3    0    0 -0.58912132114E+03 -0.50820629938E+03  0.28113141832E+03  0.82726806304E+03  0.00000000000E+00 0.  1.
        -13    1    3    3    0    0 -0.74265013709E+02 -0.11298046882E+03  0.48031753399E+02  0.14348145501E+03  0.00000000000E+00 0. -1.
         22    1    1    2    0    0  0.66338633485E+03  0.62118676821E+03 -0.11759251460E+04  0.14861878681E+04  0.00000000000E+00 0. -1.
<mgrwt>
<rscale>  0 0.23064118E+04</rscale>
<asrwt>0</asrwt>
<pdfrwt beam="1">  1        2 0.25413072E+00 0.23064118E+04</pdfrwt>
<pdfrwt beam="2">  1       -2 0.12385965E+00 0.23064118E+04</pdfrwt>
<totfact> 0.46385515E+00</totfact>
</mgrwt>
</event>
<event>
 6    1  0.1885829E-005  0.2219518E+04  0.7818608E-02  0.8510348E-01
         -2   -1    0    0    0  501 -0.00000000000E+00  0.00000000000E+00  0.88926123812E+03  0.88926123812E+03  0.00000000000E+00 0.  1.
          2   -1    0    0  501    0  0.00000000000E+00 -0.00000000000E+00 -0.13849307720E+04  0.13849307720E+04  0.00000000000E+00 0. -1.
         23    2    1    2    0    0  0.45275719709E+03  0.54361905071E+03 -0.11212748459E+04  0.13297912698E+04  0.10284351870E+03 0.  0.
         11    1    3    3    0    0  0.10904524983E+03  0.93425010559E+02 -0.29405116016E+03  0.32723872616E+03  0.00000000000E+00 0.  1.
        -11    1    3    3    0    0  0.34371194727E+03  0.45019404015E+03 -0.82722368573E+03  0.10025525436E+04  0.00000000000E+00 0. -1.
         22    1    1    2    0    0 -0.45275719709E+03 -0.54361905071E+03  0.62560531205E+03  0.94440074030E+03  0.00000000000E+00 0.  1.
<mgrwt>
<rscale>  0 0.22195182E+04</rscale>
<asrwt>0</asrwt>
<pdfrwt beam="1">  1        2 0.21306627E+00 0.22195182E+04</pdfrwt>
<pdfrwt beam="2">  1       -2 0.13680942E+00 0.22195182E+04</pdfrwt>
<totfact> 0.51371663E+00</totfact>
</mgrwt>
</event>
<event>
 6    1  0.1885829E-005  0.2175664E+04  0.7818608E-02  0.8528626E-01
          2   -1    0    0  501    0  0.00000000000E+00  0.00000000000E+00  0.14395994955E+04  0.14395994955E+04  0.00000000000E+00 0. -1.
         -2   -1    0    0    0  501 -0.00000000000E+00 -0.00000000000E+00 -0.82201893994E+03  0.82201893994E+03  0.00000000000E+00 0.  1.
         23    2    1    2    0    0  0.97051624045E+03 -0.29384597526E+03  0.71264741523E+03  0.12431465713E+04  0.96435622310E+02 0.  0.
         13    1    3    3    0    0  0.77814736911E+03 -0.27457619689E+03  0.57053243608E+03  0.10032012144E+04  0.00000000000E+00 0.  1.
        -13    1    3    3    0    0  0.19236887134E+03 -0.19269778363E+02  0.14211497915E+03  0.23994535694E+03  0.00000000000E+00 0. -1.
         22    1    1    2    0    0 -0.97051624045E+03  0.29384597526E+03 -0.95066859668E+02  0.10184718641E+04  0.00000000000E+00 0.  1.
<mgrwt>
<rscale>  0 0.21756636E+04</rscale>
<asrwt>0</asrwt>
<pdfrwt beam="1">  1        2 0.22147685E+00 0.21756636E+04</pdfrwt>
<pdfrwt beam="2">  1       -2 0.12646445E+00 0.21756636E+04</pdfrwt>
<totfact> 0.58589765E+00</totfact>
</mgrwt>
</event>
<event>
 6    1  0.1885829E-005  0.3862245E+04  0.7818608E-02  0.8032928E-01
          2   -1    0    0  501    0  0.00000000000E+00  0.00000000000E+00  0.22746309243E+04  0.22746309243E+04  0.00000000000E+00 0. -1.
         -2   -1    0    0    0  501 -0.00000000000E+00 -0.00000000000E+00 -0.16394894841E+04  0.16394894841E+04  0.00000000000E+00 0.  1.
         23    2    1    2    0    0  0.13955642715E+04  0.66706121543E+03 -0.85209123700E+03  0.17683265374E+04  0.91372674190E+02 0.  0.
         11    1    3    3    0    0  0.62437689030E+03  0.25910146947E+03 -0.33991760453E+03  0.75665319037E+03  0.00000000000E+00 0. -1.
        -11    1    3    3    0    0  0.77118738117E+03  0.40795974595E+03 -0.51217363247E+03  0.10116733470E+04  0.00000000000E+00 0.  1.
         22    1    1    2    0    0 -0.13955642715E+04 -0.66706121543E+03  0.14872326772E+04  0.21457938711E+04  0.00000000000E+00 0. -1.
<mgrwt>
<rscale>  0 0.38622447E+04</rscale>
<asrwt>0</asrwt>
<pdfrwt beam="1">  1        2 0.34994322E+00 0.38622447E+04</pdfrwt>
<pdfrwt beam="2">  1       -2 0.25222915E+00 0.38622447E+04</pdfrwt>
<totfact> 0.23278714E-01</totfact>
</mgrwt>
</event>
<event>
 6    1  0.1885829E-005  0.1341665E+04  0.7818608E-02  0.8997162E-01
          2   -1    0    0  501    0  0.00000000000E+00  0.00000000000E+00  0.29652057093E+04  0.29652057093E+04  0.00000000000E+00 0. -1.
         -2   -1    0    0    0  501 -0.00000000000E+00 -0.00000000000E+00 -0.15176556349E+03  0.15176556349E+03  0.00000000000E+00 0.  1.
         23    2    1    2    0    0  0.27802901751E+03 -0.35093848617E+03  0.25641218393E+04  0.26045090073E+04  0.91040686155E+02 0.  0.
         11    1    3    3    0    0  0.13098998878E+03 -0.16098928019E+03  0.14506047799E+04  0.14653771367E+04  0.00000000000E+00 0. -1.
        -11    1    3    3    0    0  0.14703902873E+03 -0.18994920599E+03  0.11135170594E+04  0.11391318705E+04  0.00000000000E+00 0.  1.
         22    1    1    2    0    0 -0.27802901751E+03  0.35093848617E+03  0.24931830657E+03  0.51246226558E+03  0.00000000000E+00 0.  1.
<mgrwt>
<rscale>  0 0.13416648E+04</rscale>
<asrwt>0</asrwt>
<pdfrwt beam="1">  1        2 0.45618545E+00 0.13416648E+04</pdfrwt>
<pdfrwt beam="2">  1       -2 0.23348550E-01 0.13416648E+04</pdfrwt>
<totfact> 0.29329119E+01</totfact>
</mgrwt>
</event>
<event>
 6    1  0.1885829E-005  0.1168076E+04  0.7818608E-02  0.9141268E-01
         -1   -1    0    0    0  501 -0.00000000000E+00  0.00000000000E+00  0.64601667698E+03  0.64601667698E+03  0.00000000000E+00 0.  1.
          1   -1    0    0  501    0  0.00000000000E+00 -0.00000000000E+00 -0.52800509590E+03  0.52800509590E+03  0.00000000000E+00 0. -1.
         23    2    1    2    0    0 -0.72811444606E+02  0.11690643612E+03  0.62606974026E+03  0.64762675544E+03  0.92132911672E+02 0.  0.
         11    1    3    3    0    0 -0.10706613530E+02 -0.13114016170E+02  0.12859234044E+03  0.12970196226E+03  0.00000000000E+00 0.  1.
        -11    1    3    3    0    0 -0.62104831075E+02  0.13002045229E+03  0.49747739983E+03  0.51792479318E+03  0.00000000000E+00 0. -1.
         22    1    1    2    0    0  0.72811444606E+02 -0.11690643612E+03 -0.50805815918E+03  0.52639501744E+03  0.00000000000E+00 0. -1.
<mgrwt>
<rscale>  0 0.11680755E+04</rscale>
<asrwt>0</asrwt>
<pdfrwt beam="1">  1        1 0.81231554E-01 0.11680755E+04</pdfrwt>
<pdfrwt beam="2">  1       -1 0.99387180E-01 0.11680755E+04</pdfrwt>
<totfact> 0.39415187E+01</totfact>
</mgrwt>
</event>
<event>
 6    1  0.1885829E-005  0.8155451E+03  0.7818608E-02  0.9537785E-01
         -2   -1    0    0    0  501 -0.00000000000E+00  0.00000000000E+00  0.22036235406E+03  0.22036235406E+03  0.00000000000E+00 0.  1.
          2   -1    0    0  501    0  0.00000000000E+00 -0.00000000000E+00 -0.75456839737E+03  0.75456839737E+03  0.00000000000E+00 0. -1.
         23    2    1    2    0    0  0.35025653537E+03 -0.15817446083E+03 -0.13033879507E+03  0.41742958117E+03  0.97777569547E+02 0.  0.
         13    1    3    3    0    0  0.51469521206E+02 -0.23486771322E+02  0.15566924228E+02  0.58677671820E+02  0.00000000000E+00 0.  1.
        -13    1    3    3    0    0  0.29878701417E+03 -0.13468768951E+03 -0.14590571929E+03  0.35875190935E+03  0.00000000000E+00 0. -1.
         22    1    1    2    0    0 -0.35025653537E+03  0.15817446083E+03 -0.40386724824E+03  0.55750117025E+03  0.00000000000E+00 0. -1.
<mgrwt>
<rscale>  0 0.81554514E+03</rscale>
<asrwt>0</asrwt>
<pdfrwt beam="1">  1        2 0.11608745E+00 0.81554514E+03</pdfrwt>
<pdfrwt beam="2">  1       -2 0.33901901E-01 0.81554514E+03</pdfrwt>
<totfact> 0.30427808E+02</totfact>
</mgrwt>
</event>
<event>
 6    1  0.1885829E-005  0.2712515E+04  0.7818608E-02  0.8330956E-01
         -2   -1    0    0    0  501 -0.00000000000E+00  0.00000000000E+00  0.14893266715E+04  0.14893266715E+04  0.00000000000E+00 0.  1.
          2   -1    0    0  501    0  0.00000000000E+00 -0.00000000000E+00 -0.12350779022E+04  0.12350779022E+04  0.00000000000E+00 0. -1.
         23    2    1    2    0    0  0.89798281318E+03 -0.14545964754E+02  0.11460303666E+04  0.14587588352E+04  0.89481954731E+02 0.  0.
         11    1    3    3    0    0  0.27142136384E+03 -0.41321543751E+02  0.31998514653E+03  0.42162485781E+03  0.00000000000E+00 0.  1.
        -11    1    3    3    0    0  0.62656144935E+03  0.26775578997E+02  0.82604522011E+03  0.10371339774E+04  0.00000000000E+00 0. -1.
         22    1    1    2    0    0 -0.89798281318E+03  0.14545964754E+02 -0.89178159734E+03  0.12656457384E+04  0.00000000000E+00 0. -1.
<mgrwt>
<rscale>  0 0.27125150E+04</rscale>
<asrwt>0</asrwt>
<pdfrwt beam="1">  1        2 0.19001198E+00 0.27125150E+04</pdfrwt>
<pdfrwt beam="2">  1       -2 0.22912718E+00 0.27125150E+04</pdfrwt>
<totfact> 0.13697198E+00</totfact>
</mgrwt>
</event>
<event>
 6    1  0.1885829E-005  0.1848241E+04  0.7818608E-02  0.8681058E-01
          2   -1    0    0  501    0  0.00000000000E+00  0.00000000000E+00  0.59405267234E+03  0.59405267234E+03  0.00000000000E+00 0. -1.
         -2   -1    0    0    0  501 -0.00000000000E+00 -0.00000000000E+00 -0.14375805939E+04  0.14375805939E+04  0.00000000000E+00 0.  1.
         23    2    1    2    0    0  0.38319639176E+01 -0.49281014660E+03 -0.12793030435E+04  0.13737757730E+04  0.88130999212E+02 0.  0.
         13    1    3    3    0    0  0.37698159464E+02 -0.40027371707E+03 -0.10189764255E+04  0.10954237333E+04  0.00000000000E+00 0.  1.
        -13    1    3    3    0    0 -0.33866195546E+02 -0.92536429533E+02 -0.26032661796E+03  0.27835203971E+03  0.00000000000E+00 0. -1.
         22    1    1    2    0    0 -0.38319639176E+01  0.49281014660E+03  0.43577512189E+03  0.65785749323E+03  0.00000000000E+00 0. -1.
<mgrwt>
<rscale>  0 0.18482409E+04</rscale>
<asrwt>0</asrwt>
<pdfrwt beam="1">  1        2 0.91392720E-01 0.18482409E+04</pdfrwt>
<pdfrwt beam="2">  1       -2 0.22116624E+00 0.18482409E+04</pdfrwt>
<totfact> 0.45841930E+00</totfact>
</mgrwt>
</event>
<event>
 6    1  0.1885829E-005  0.1424634E+04  0.7818608E-02  0.8936178E-01
          4   -1    0    0  501    0  0.00000000000E+00  0.00000000000E+00  0.49222791045E+03  0.49222791045E+03  0.00000000000E+00 0. -1.
         -4   -1    0    0    0  501 -0.00000000000E+00 -0.00000000000E+00 -0.10308144040E+04  0.10308144040E+04  0.00000000000E+00 0.  1.
         23    2    1    2    0    0  0.29531441779E+03  0.59868312207E+03 -0.13487338933E+02  0.67371245616E+03  0.89858106350E+02 0.  0.
         13    1    3    3    0    0  0.19637316280E+03  0.30041615363E+03 -0.19113958426E+02  0.35941289325E+03  0.00000000000E+00 0. -1.
        -13    1    3    3    0    0  0.98941254992E+02  0.29826696843E+03  0.56266194929E+01  0.31429956291E+03  0.00000000000E+00 0.  1.
         22    1    1    2    0    0 -0.29531441779E+03 -0.59868312207E+03 -0.52509915460E+03  0.84932985828E+03  0.00000000000E+00 0. -1.
<mgrwt>
<rscale>  0 0.14246342E+04</rscale>
<asrwt>0</asrwt>
<pdfrwt beam="1">  1        4 0.75727372E-01 0.14246342E+04</pdfrwt>
<pdfrwt beam="2">  1       -4 0.15858683E+00 0.14246342E+04</pdfrwt>
<totfact> 0.78189742E-01</totfact>
</mgrwt>
</event>
<event>
 6    1  0.1885829E-005  0.2910172E+04  0.7818608E-02  0.8269857E-01
          2   -1    0    0  501    0  0.00000000000E+00  0.00000000000E+00  0.19543953651E+04  0.19543953651E+04  0.00000000000E+00 0. -1.
         -2   -1    0    0    0  501 -0.00000000000E+00 -0.00000000000E+00 -0.10833406561E+04  0.10833406561E+04  0.00000000000E+00 0.  1.
         23    2    1    2    0    0 -0.77611284666E+03  0.90698819012E+03 -0.42994368002E+03  0.12720702726E+04  0.91282433596E+02 0.  0.
         13    1    3    3    0    0 -0.14775233757E+03  0.12863446964E+03 -0.89623752200E+02  0.21542979597E+03  0.00000000000E+00 0.  1.
        -13    1    3    3    0    0 -0.62836050909E+03  0.77835372048E+03 -0.34031992782E+03  0.10566404766E+04  0.00000000000E+00 0. -1.
         22    1    1    2    0    0  0.77611284666E+03 -0.90698819012E+03  0.13009983890E+04  0.17656657486E+04  0.00000000000E+00 0. -1.
<mgrwt>
<rscale>  0 0.29101725E+04</rscale>
<asrwt>0</asrwt>
<pdfrwt beam="1">  1        2 0.30067621E+00 0.29101725E+04</pdfrwt>
<pdfrwt beam="2">  1       -2 0.16666779E+00 0.29101725E+04</pdfrwt>
<totfact> 0.13755256E+00</totfact>
</mgrwt>
</event>
<event>
 6    1  0.1885829E-005  0.1829213E+04  0.7818608E-02  0.8690917E-01
          1   -1    0    0  501    0  0.00000000000E+00  0.00000000000E+00  0.13595720966E+04  0.13595720966E+04  0.00000000000E+00 0. -1.
         -1   -1    0    0    0  501 -0.00000000000E+00 -0.00000000000E+00 -0.61527116267E+03  0.61527116267E+03  0.00000000000E+00 0.  1.
         23    2    1    2    0    0  0.61164758012E+03 -0.38556818852E+03 -0.22760525199E+03  0.76348979123E+03  0.91306737501E+02 0.  0.
         13    1    3    3    0    0  0.47686886937E+03 -0.27180626787E+03 -0.13952788443E+03  0.56634847608E+03  0.00000000000E+00 0. -1.
        -13    1    3    3    0    0  0.13477871075E+03 -0.11376192066E+03 -0.88077367561E+02  0.19714131515E+03  0.00000000000E+00 0.  1.
         22    1    1    2    0    0 -0.61164758012E+03  0.38556818852E+03  0.97190618587E+03  0.12113534680E+04  0.00000000000E+00 0. -1.
<mgrwt>
<rscale>  0 0.18292135E+04</rscale>
<asrwt>0</asrwt>
<pdfrwt beam="1">  1        1 0.20916494E+00 0.18292135E+04</pdfrwt>
<pdfrwt beam="2">  1       -1 0.94657102E-01 0.18292135E+04</pdfrwt>
<totfact> 0.83365023E+00</totfact>
</mgrwt>
</event>
<event>
 6    1  0.1885829E-005  0.2302467E+04  0.7818608E-02  0.8476949E-01
          2   -1    0    0  501    0  0.00000000000E+00  0.00000000000E+00  0.19805251300E+04  0.19805251300E+04  0.00000000000E+00 0. -1.
         -2   -1    0    0    0  501 -0.00000000000E+00 -0.00000000000E+00 -0.66918523034E+03  0.66918523034E+03  0.00000000000E+00 0.  1.
         23    2    1    2    0    0 -0.31239025361E+03 -0.80172777942E+03  0.15331113979E+04  0.17611510206E+04  0.10424613317E+03 0.  0.
         11    1    3    3    0    0 -0.14155657301E+03 -0.23444426722E+03  0.45952545751E+03  0.53494487931E+03  0.00000000000E+00 0.  1.
        -11    1    3    3    0    0 -0.17083368060E+03 -0.56728351220E+03  0.10735859403E+04  0.12262061413E+04  0.00000000000E+00 0. -1.
         22    1    1    2    0    0  0.31239025361E+03  0.80172777942E+03 -0.22177149819E+03  0.88855933975E+03  0.00000000000E+00 0.  1.
<mgrwt>
<rscale>  0 0.23024666E+04</rscale>
<asrwt>0</asrwt>
<pdfrwt beam="1">  1        2 0.30469617E+00 0.23024666E+04</pdfrwt>
<pdfrwt beam="2">  1       -2 0.10295157E+00 0.23024666E+04</pdfrwt>
<totfact> 0.47847456E+00</totfact>
</mgrwt>
</event>
<event>
 6    1  0.2073684E-005  0.2475973E+04  0.7818608E-02  0.8411596E-01
         -2   -1    0    0    0  501 -0.00000000000E+00  0.00000000000E+00  0.10898312598E+04  0.10898312598E+04  0.00000000000E+00 0.  1.
          2   -1    0    0  501    0  0.00000000000E+00 -0.00000000000E+00 -0.14062826292E+04  0.14062826292E+04  0.00000000000E+00 0. -1.
         23    2    1    2    0    0 -0.65268807372E+03  0.88738143367E+03 -0.72425648893E+03  0.13214852048E+04  0.91258721741E+02 0.  0.
         11    1    3    3    0    0 -0.22186198603E+03  0.23596047951E+03 -0.22973198388E+03  0.39708547336E+03  0.00000000000E+00 0. -1.
        -11    1    3    3    0    0 -0.43082608769E+03  0.65142095416E+03 -0.49452450505E+03  0.92439973142E+03  0.00000000000E+00 0.  1.
         22    1    1    2    0    0  0.65268807372E+03 -0.88738143367E+03  0.40780511953E+03  0.11746286843E+04  0.00000000000E+00 0.  1.
<mgrwt>
<rscale>  0 0.24759732E+04</rscale>
<asrwt>0</asrwt>
<pdfrwt beam="1">  1        2 0.21635117E+00 0.24759732E+04</pdfrwt>
<pdfrwt beam="2">  1       -2 0.16766635E+00 0.24759732E+04</pdfrwt>
<totfact> 0.28408578E+00</totfact>
</mgrwt>
</event>
<event>
 6    1  0.1885829E-005  0.1214786E+04  0.7818608E-02  0.9100012E-01
         -2   -1    0    0    0  501 -0.00000000000E+00  0.00000000000E+00  0.25068349890E+03  0.25068349890E+03  0.00000000000E+00 0.  1.
          2   -1    0    0  501    0  0.00000000000E+00 -0.00000000000E+00 -0.14716802995E+04  0.14716802995E+04  0.00000000000E+00 0. -1.
         23    2    1    2    0    0  0.22685032262E+03  0.55442687311E+03 -0.72332334712E+03  0.94356402131E+03  0.90918487306E+02 0.  0.
         11    1    3    3    0    0  0.99478408048E+02  0.27147992569E+03 -0.41791070214E+03  0.50817975037E+03  0.00000000000E+00 0. -1.
        -11    1    3    3    0    0  0.12737191457E+03  0.28294694741E+03 -0.30541264498E+03  0.43538427094E+03  0.00000000000E+00 0.  1.
         22    1    1    2    0    0 -0.22685032262E+03 -0.55442687311E+03 -0.49767345351E+03  0.77879977711E+03  0.00000000000E+00 0.  1.
<mgrwt>
<rscale>  0 0.12147855E+04</rscale>
<asrwt>0</asrwt>
<pdfrwt beam="1">  1        2 0.22641235E+00 0.12147855E+04</pdfrwt>
<pdfrwt beam="2">  1       -2 0.38566693E-01 0.12147855E+04</pdfrwt>
<totfact> 0.82421666E+01</totfact>
</mgrwt>
</event>
<event>
 6    1  0.1885829E-005  0.2922208E+04  0.7818608E-02  0.8266301E-01
         -2   -1    0    0    0  501 -0.00000000000E+00  0.00000000000E+00  0.79165237305E+03  0.79165237305E+03  0.00000000000E+00 0.  1.
          2   -1    0    0  501    0  0.00000000000E+00 -0.00000000000E+00 -0.26966688043E+04  0.26966688043E+04  0.00000000000E+00 0. -1.
         23    2    1    2    0    0  0.77613068318E+01  0.78072223722E+03  0.51899950027E+03  0.94166833768E+03  0.88268495718E+02 0.  0.
         11    1    3    3    0    0  0.42042072874E+02  0.36661273470E+03  0.27005336227E+03  0.45727590316E+03  0.00000000000E+00 0. -1.
        -11    1    3    3    0    0 -0.34280766042E+02  0.41410950251E+03  0.24894613800E+03  0.48439243452E+03  0.00000000000E+00 0.  1.
         22    1    1    2    0    0 -0.77613068318E+01 -0.78072223722E+03 -0.24240159316E+04  0.25466528397E+04  0.00000000000E+00 0. -1.
<mgrwt>
<rscale>  0 0.29222076E+04</rscale>
<asrwt>0</asrwt>
<pdfrwt beam="1">  1        2 0.41487213E+00 0.29222076E+04</pdfrwt>
<pdfrwt beam="2">  1       -2 0.12179267E+00 0.29222076E+04</pdfrwt>
<totfact> 0.11756462E+00</totfact>
</mgrwt>
</event>
<event>
 6    1  0.1885829E-005  0.1622549E+04  0.7818608E-02  0.8806814E-01
          1   -1    0    0  501    0  0.00000000000E+00  0.00000000000E+00  0.29925070610E+04  0.29925070610E+04  0.00000000000E+00 0. -1.
         -1   -1    0    0    0  501 -0.00000000000E+00 -0.00000000000E+00 -0.21993813904E+03  0.21993813904E+03  0.00000000000E+00 0.  1.
         23    2    1    2    0    0 -0.56263416590E+03 -0.49941842144E+03  0.19762980737E+04  0.21169894829E+04  0.99571232961E+02 0.  0.
         11    1    3    3    0    0 -0.40332626360E+03 -0.33413547617E+03  0.14863240665E+04  0.15759053975E+04  0.00000000000E+00 0. -1.
        -11    1    3    3    0    0 -0.15930790231E+03 -0.16528294528E+03  0.48997400718E+03  0.54108408538E+03  0.00000000000E+00 0.  1.
         22    1    1    2    0    0  0.56263416590E+03  0.49941842144E+03  0.79627084825E+03  0.10954557171E+04  0.00000000000E+00 0.  1.
<mgrwt>
<rscale>  0 0.16225491E+04</rscale>
<asrwt>0</asrwt>
<pdfrwt beam="1">  1        1 0.46038567E+00 0.16225491E+04</pdfrwt>
<pdfrwt beam="2">  1       -1 0.33836639E-01 0.16225491E+04</pdfrwt>
<totfact> 0.48020510E+00</totfact>
</mgrwt>
</event>
<event>
 6    1  0.1885829E-005  0.1694833E+04  0.7818608E-02  0.8764317E-01
          2   -1    0    0  501    0  0.00000000000E+00  0.00000000000E+00  0.79050625814E+03  0.79050625814E+03  0.00000000000E+00 0. -1.
         -2   -1    0    0    0  501 -0.00000000000E+00 -0.00000000000E+00 -0.90842392854E+03  0.90842392854E+03  0.00000000000E+00 0.  1.
         23    2    1    2    0    0 -0.19904134229E+03  0.11399225568E+03  0.75608843553E+03  0.79532719669E+03  0.90906199780E+02 0.  0.
         13    1    3    3    0    0 -0.14685841207E+03  0.54704772114E+02  0.38023196972E+03  0.41126190692E+03  0.00000000000E+00 0.  1.
        -13    1    3    3    0    0 -0.52182930217E+02  0.59287483567E+02  0.37585646581E+03  0.38406528977E+03  0.00000000000E+00 0. -1.
         22    1    1    2    0    0  0.19904134229E+03 -0.11399225568E+03 -0.87400610593E+03  0.90360298998E+03  0.00000000000E+00 0.  1.
<mgrwt>
<rscale>  0 0.16948331E+04</rscale>
<asrwt>0</asrwt>
<pdfrwt beam="1">  1        2 0.12161635E+00 0.16948331E+04</pdfrwt>
<pdfrwt beam="2">  1       -2 0.13975753E+00 0.16948331E+04</pdfrwt>
<totfact> 0.12015829E+01</totfact>
</mgrwt>
</event>
<event>
 6    1  0.1885829E-005  0.2409372E+04  0.7818608E-02  0.8436003E-01
          1   -1    0    0  501    0  0.00000000000E+00  0.00000000000E+00  0.13316371111E+04  0.13316371111E+04  0.00000000000E+00 0.  1.
         -1   -1    0    0    0  501 -0.00000000000E+00 -0.00000000000E+00 -0.10898373889E+04  0.10898373889E+04  0.00000000000E+00 0. -1.
         23    2    1    2    0    0  0.72619523432E+03  0.94363150737E+03  0.29234049571E+03  0.12296883153E+04  0.94183052645E+02 0.  0.
         13    1    3    3    0    0  0.24622587655E+03  0.38280795011E+03  0.13726400440E+03  0.47540563296E+03  0.00000000000E+00 0. -1.
        -13    1    3    3    0    0  0.47996935778E+03  0.56082355725E+03  0.15507649131E+03  0.75428268238E+03  0.00000000000E+00 0.  1.
         22    1    1    2    0    0 -0.72619523432E+03 -0.94363150737E+03 -0.50540773476E+02  0.11917861846E+04  0.00000000000E+00 0.  1.
<mgrwt>
<rscale>  0 0.24093716E+04</rscale>
<asrwt>0</asrwt>
<pdfrwt beam="1">  1        1 0.20486725E+00 0.24093716E+04</pdfrwt>
<pdfrwt beam="2">  1       -1 0.16766729E+00 0.24093716E+04</pdfrwt>
<totfact> 0.19687071E+00</totfact>
</mgrwt>
</event>
<event>
 6    1  0.1885829E-005  0.1172991E+04  0.7818608E-02  0.9136831E-01
         -4   -1    0    0    0  501 -0.00000000000E+00  0.00000000000E+00  0.55521159436E+03  0.55521159436E+03  0.00000000000E+00 0.  1.
          4   -1    0    0  501    0  0.00000000000E+00 -0.00000000000E+00 -0.61954231454E+03  0.61954231454E+03  0.00000000000E+00 0. -1.
         23    2    1    2    0    0 -0.14484222919E+02  0.18415809523E+03 -0.58600072992E+03  0.62134303457E+03  0.92446278384E+02 0.  0.
         11    1    3    3    0    0 -0.35107163007E+02  0.14543130980E+03 -0.34000185150E+03  0.37146202738E+03  0.00000000000E+00 0.  1.
        -11    1    3    3    0    0  0.20622940088E+02  0.38726785431E+02 -0.24599887842E+03  0.24988100719E+03  0.00000000000E+00 0. -1.
         22    1    1    2    0    0  0.14484222919E+02 -0.18415809523E+03  0.52167000974E+03  0.55341087432E+03  0.00000000000E+00 0.  1.
<mgrwt>
<rscale>  0 0.11729912E+04</rscale>
<asrwt>0</asrwt>
<pdfrwt beam="1">  1        4 0.95314201E-01 0.11729912E+04</pdfrwt>
<pdfrwt beam="2">  1       -4 0.85417169E-01 0.11729912E+04</pdfrwt>
<totfact> 0.21774019E+00</totfact>
</mgrwt>
</event>
<event>
 6    1  0.1885829E-005  0.1087695E+04  0.7818608E-02  0.9217269E-01
          1   -1    0    0  501    0  0.00000000000E+00  0.00000000000E+00  0.21974333365E+04  0.21974333365E+04  0.00000000000E+00 0. -1.
         -1   -1    0    0    0  501 -0.00000000000E+00 -0.00000000000E+00 -0.13459800949E+03  0.13459800949E+03  0.00000000000E+00 0.  1.
         23    2    1    2    0    0  0.23978355437E+03 -0.43110195941E+03  0.15107257628E+04  0.15916462953E+04  0.87752758465E+02 0.  0.
         11    1    3    3    0    0  0.49758755537E+02 -0.14533519100E+03  0.56772915443E+03  0.58814508778E+03  0.00000000000E+00 0. -1.
        -11    1    3    3    0    0  0.19002479883E+03 -0.28576676841E+03  0.94299660841E+03  0.10035012076E+04  0.00000000000E+00 0.  1.
         22    1    1    2    0    0 -0.23978355437E+03  0.43110195941E+03  0.55210956413E+03  0.74038505060E+03  0.00000000000E+00 0.  1.
<mgrwt>
<rscale>  0 0.10876951E+04</rscale>
<asrwt>0</asrwt>
<pdfrwt beam="1">  1        1 0.33806664E+00 0.10876951E+04</pdfrwt>
<pdfrwt beam="2">  1       -1 0.20707388E-01 0.10876951E+04</pdfrwt>
<totfact> 0.42309312E+01</totfact>
</mgrwt>
</event>
<event>
 6    1  0.1885829E-005  0.2110309E+04  0.7818608E-02  0.8556716E-01
         -2   -1    0    0    0  501 -0.00000000000E+00  0.00000000000E+00  0.39322265560E+03  0.39322265560E+03  0.00000000000E+00 0.  1.
          2   -1    0    0  501    0  0.00000000000E+00 -0.00000000000E+00 -0.28313492345E+04  0.28313492345E+04  0.00000000000E+00 0. -1.
         23    2    1    2    0    0  0.15993383771E+03 -0.43690591192E+03 -0.26650570144E+04  0.27069204332E+04  0.91780899232E+02 0.  0.
         13    1    3    3    0    0  0.66019512629E+02 -0.73150282015E+02 -0.54897529741E+03  0.55774852485E+03  0.00000000000E+00 0. -1.
        -13    1    3    3    0    0  0.93914325083E+02 -0.36375562991E+03 -0.21160817170E+04  0.21491719083E+04  0.00000000000E+00 0.  1.
         22    1    1    2    0    0 -0.15993383771E+03  0.43690591192E+03  0.22693043545E+03  0.51765145692E+03  0.00000000000E+00 0.  1.
<mgrwt>
<rscale>  0 0.21103087E+04</rscale>
<asrwt>0</asrwt>
<pdfrwt beam="1">  1        2 0.43559219E+00 0.21103087E+04</pdfrwt>
<pdfrwt beam="2">  1       -2 0.60495794E-01 0.21103087E+04</pdfrwt>
<totfact> 0.51925931E+00</totfact>
</mgrwt>
</event>
<event>
 6    1  0.1885829E-005  0.1584950E+04  0.7818608E-02  0.8829848E-01
          2   -1    0    0  501    0  0.00000000000E+00  0.00000000000E+00  0.64895499887E+03  0.64895499887E+03  0.00000000000E+00 0. -1.
         -2   -1    0    0    0  501 -0.00000000000E+00 -0.00000000000E+00 -0.96773504567E+03  0.96773504567E+03  0.00000000000E+00 0.  1.
         23    2    1    2    0    0 -0.44581669705E+03  0.54258386685E+03  0.20906076779E+03  0.73818807785E+03  0.89807871097E+02 0.  0.
         11    1    3    3    0    0 -0.31128949789E+03  0.32236635213E+03  0.10734234270E+03  0.46080754661E+03  0.00000000000E+00 0. -1.
        -11    1    3    3    0    0 -0.13452719917E+03  0.22021751472E+03  0.10171842509E+03  0.27738053124E+03  0.00000000000E+00 0.  1.
         22    1    1    2    0    0  0.44581669705E+03 -0.54258386685E+03 -0.52784081459E+03  0.87850196670E+03  0.00000000000E+00 0.  1.
<mgrwt>
<rscale>  0 0.15849498E+04</rscale>
<asrwt>0</asrwt>
<pdfrwt beam="1">  1        2 0.99839231E-01 0.15849498E+04</pdfrwt>
<pdfrwt beam="2">  1       -2 0.14888231E+00 0.15849498E+04</pdfrwt>
<totfact> 0.13210106E+01</totfact>
</mgrwt>
</event>
<event>
 6    1  0.1885829E-005  0.3425154E+04  0.7818608E-02  0.8131760E-01
          2   -1    0    0  501    0  0.00000000000E+00  0.00000000000E+00  0.25983700694E+04  0.25983700694E+04  0.00000000000E+00 0. -1.
         -2   -1    0    0    0  501 -0.00000000000E+00 -0.00000000000E+00 -0.11287536244E+04  0.11287536244E+04  0.00000000000E+00 0.  1.
         23    2    1    2    0    0  0.15350465720E+04 -0.62150039094E+03  0.12048293828E+04  0.20500002927E+04  0.90866077913E+02 0.  0.
         13    1    3    3    0    0  0.24211762531E+03 -0.67234990447E+02  0.16352551351E+03  0.29980340558E+03  0.00000000000E+00 0.  1.
        -13    1    3    3    0    0  0.12929289467E+04 -0.55426540049E+03  0.10413038693E+04  0.17501968871E+04  0.00000000000E+00 0. -1.
         22    1    1    2    0    0 -0.15350465720E+04  0.62150039094E+03  0.26478706224E+03  0.16771234011E+04  0.00000000000E+00 0.  1.
<mgrwt>
<rscale>  0 0.34251538E+04</rscale>
<asrwt>0</asrwt>
<pdfrwt beam="1">  1        2 0.39974924E+00 0.34251538E+04</pdfrwt>
<pdfrwt beam="2">  1       -2 0.17365440E+00 0.34251538E+04</pdfrwt>
<totfact> 0.50624126E-01</totfact>
</mgrwt>
</event>
<event>
 6    1  0.1885829E-005  0.3948969E+04  0.7818608E-02  0.8014921E-01
         -1   -1    0    0    0  501 -0.00000000000E+00  0.00000000000E+00  0.11890919293E+04  0.11890919293E+04  0.00000000000E+00 0.  1.
          1   -1    0    0  501    0  0.00000000000E+00 -0.00000000000E+00 -0.32786270105E+04  0.32786270105E+04  0.00000000000E+00 0. -1.
         23    2    1    2    0    0 -0.56624302263E+02 -0.10349584090E+04 -0.29451222038E+04  0.31237046004E+04  0.97161798378E+02 0.  0.
         11    1    3    3    0    0 -0.57661378827E+02 -0.72996649337E+03 -0.21965238735E+04  0.23153602405E+04  0.00000000000E+00 0.  1.
        -11    1    3    3    0    0  0.10370765640E+01 -0.30499191568E+03 -0.74859833028E+03  0.80834435994E+03  0.00000000000E+00 0. -1.
         22    1    1    2    0    0  0.56624302263E+02  0.10349584090E+04  0.85558712259E+03  0.13440143394E+04  0.00000000000E+00 0.  1.
<mgrwt>
<rscale>  0 0.39489689E+04</rscale>
<asrwt>0</asrwt>
<pdfrwt beam="1">  1        1 0.50440416E+00 0.39489689E+04</pdfrwt>
<pdfrwt beam="2">  1       -1 0.18293722E+00 0.39489689E+04</pdfrwt>
<totfact> 0.57709788E-02</totfact>
</mgrwt>
</event>
<event>
 6    1  0.1885829E-005  0.1111524E+04  0.7818608E-02  0.9194032E-01
         -3   -1    0    0    0  501 -0.00000000000E+00  0.00000000000E+00  0.31082105023E+03  0.31082105023E+03  0.00000000000E+00 0.  1.
          3   -1    0    0  501    0  0.00000000000E+00 -0.00000000000E+00 -0.99372750100E+03  0.99372750100E+03  0.00000000000E+00 0. -1.
         23    2    1    2    0    0  0.72733391008E+02  0.30243182816E+03  0.19127113769E+03  0.37667915686E+03  0.92452053799E+02 0.  0.
         13    1    3    3    0    0  0.80328439956E+02  0.21595908359E+03  0.10142792073E+03  0.25175108174E+03  0.00000000000E+00 0. -1.
        -13    1    3    3    0    0 -0.75950489479E+01  0.86472744563E+02  0.89843216958E+02  0.12492807512E+03  0.00000000000E+00 0.  1.
         22    1    1    2    0    0 -0.72733391008E+02 -0.30243182816E+03 -0.87417758845E+03  0.92786939437E+03  0.00000000000E+00 0. -1.
<mgrwt>
<rscale>  0 0.11115240E+04</rscale>
<asrwt>0</asrwt>
<pdfrwt beam="1">  1        3 0.15288115E+00 0.11115240E+04</pdfrwt>
<pdfrwt beam="2">  1       -3 0.47818624E-01 0.11115240E+04</pdfrwt>
<totfact> 0.34814970E+00</totfact>
</mgrwt>
</event>
<event>
 6    1  0.1885829E-005  0.4398649E+04  0.7818608E-02  0.7928625E-01
          1   -1    0    0  501    0  0.00000000000E+00  0.00000000000E+00  0.16157441795E+04  0.16157441795E+04  0.00000000000E+00 0. -1.
         -1   -1    0    0    0  501 -0.00000000000E+00 -0.00000000000E+00 -0.29936843348E+04  0.29936843348E+04  0.00000000000E+00 0.  1.
         23    2    1    2    0    0 -0.32999935596E+03 -0.21532765543E+04 -0.38064256842E+03  0.22135775234E+04  0.97658552865E+02 0.  0.
         13    1    3    3    0    0 -0.22221525123E+03 -0.15097414530E+04 -0.31096389283E+03  0.15573687474E+04  0.00000000000E+00 0.  1.
        -13    1    3    3    0    0 -0.10778410473E+03 -0.64353510125E+03 -0.69678675587E+02  0.65620877592E+03  0.00000000000E+00 0. -1.
         22    1    1    2    0    0  0.32999935596E+03  0.21532765543E+04 -0.99729758684E+03  0.23958509909E+04  0.00000000000E+00 0.  1.
<mgrwt>
<rscale>  0 0.43986489E+04</rscale>
<asrwt>0</asrwt>
<pdfrwt beam="1">  1        1 0.24857603E+00 0.43986489E+04</pdfrwt>
<pdfrwt beam="2">  1       -1 0.46056682E+00 0.43986489E+04</pdfrwt>
<totfact> 0.11300096E-02</totfact>
</mgrwt>
</event>
<event>
 6    1  0.1885829E-005  0.2365647E+04  0.7818608E-02  0.8452478E-01
          1   -1    0    0  501    0  0.00000000000E+00  0.00000000000E+00  0.12812074552E+04  0.12812074552E+04  0.00000000000E+00 0.  1.
         -1   -1    0    0    0  501 -0.00000000000E+00 -0.00000000000E+00 -0.10919941271E+04  0.10919941271E+04  0.00000000000E+00 0. -1.
         23    2    1    2    0    0  0.19952408314E+03  0.29156194300E+03  0.12253220523E+04  0.12785146340E+04  0.91473008142E+02 0.  0.
         11    1    3    3    0    0  0.38524764208E+02  0.12781835561E+03  0.51344291534E+03  0.53051420038E+03  0.00000000000E+00 0. -1.
        -11    1    3    3    0    0  0.16099931893E+03  0.16374358739E+03  0.71187913697E+03  0.74800043367E+03  0.00000000000E+00 0.  1.
         22    1    1    2    0    0 -0.19952408314E+03 -0.29156194300E+03 -0.10361087242E+04  0.10946869482E+04  0.00000000000E+00 0. -1.
<mgrwt>
<rscale>  0 0.23656466E+04</rscale>
<asrwt>0</asrwt>
<pdfrwt beam="1">  1        1 0.19710884E+00 0.23656466E+04</pdfrwt>
<pdfrwt beam="2">  1       -1 0.16799910E+00 0.23656466E+04</pdfrwt>
<totfact> 0.21350786E+00</totfact>
</mgrwt>
</event>
<event>
 6    1  0.1885829E-005  0.4832448E+04  0.7818608E-02  0.7854886E-01
         -2   -1    0    0    0  501 -0.00000000000E+00  0.00000000000E+00  0.23497353457E+04  0.23497353457E+04  0.00000000000E+00 0.  1.
          2   -1    0    0  501    0  0.00000000000E+00 -0.00000000000E+00 -0.24845945215E+04  0.24845945215E+04  0.00000000000E+00 0. -1.
         23    2    1    2    0    0  0.64231488426E+03  0.15190175998E+04  0.16978946675E+04  0.23687732305E+04  0.90870438542E+02 0.  0.
         11    1    3    3    0    0  0.21310627767E+03  0.48604808394E+03  0.60730294088E+03  0.80651961382E+03  0.00000000000E+00 0. -1.
        -11    1    3    3    0    0  0.42920860659E+03  0.10329695158E+04  0.10905917266E+04  0.15622536166E+04  0.00000000000E+00 0.  1.
         22    1    1    2    0    0 -0.64231488426E+03 -0.15190175998E+04 -0.18327538433E+04  0.24655566368E+04  0.00000000000E+00 0. -1.
<mgrwt>
<rscale>  0 0.48324485E+04</rscale>
<asrwt>0</asrwt>
<pdfrwt beam="1">  1        2 0.38224531E+00 0.48324485E+04</pdfrwt>
<pdfrwt beam="2">  1       -2 0.36149775E+00 0.48324485E+04</pdfrwt>
<totfact> 0.34493000E-02</totfact>
</mgrwt>
</event>
<event>
 6    1  0.1885829E-005  0.1844112E+04  0.7818608E-02  0.8683187E-01
          2   -1    0    0  501    0  0.00000000000E+00  0.00000000000E+00  0.18619761114E+04  0.18619761114E+04  0.00000000000E+00 0. -1.
         -2   -1    0    0    0  501 -0.00000000000E+00 -0.00000000000E+00 -0.45660483870E+03  0.45660483870E+03  0.00000000000E+00 0.  1.
         23    2    1    2    0    0 -0.44116215123E+03 -0.49635692636E+03  0.15045584130E+04  0.16471404607E+04  0.91550189907E+02 0.  0.
         13    1    3    3    0    0 -0.85720196671E+02 -0.57747305417E+02  0.18558935090E+03  0.21242907185E+03  0.00000000000E+00 0. -1.
        -13    1    3    3    0    0 -0.35544195455E+03 -0.43860962095E+03  0.13189690621E+04  0.14347113889E+04  0.00000000000E+00 0.  1.
         22    1    1    2    0    0  0.44116215123E+03  0.49635692636E+03 -0.99187140252E+02  0.67144048941E+03  0.00000000000E+00 0.  1.
<mgrwt>
<rscale>  0 0.18441120E+04</rscale>
<asrwt>0</asrwt>
<pdfrwt beam="1">  1        2 0.28645786E+00 0.18441120E+04</pdfrwt>
<pdfrwt beam="2">  1       -2 0.70246900E-01 0.18441120E+04</pdfrwt>
<totfact> 0.13832173E+01</totfact>
</mgrwt>
</event>
<event>
 6    1  0.1885829E-005  0.2373186E+04  0.7818608E-02  0.8449611E-01
          2   -1    0    0  501    0  0.00000000000E+00  0.00000000000E+00  0.12208109484E+04  0.12208109484E+04  0.00000000000E+00 0. -1.
         -2   -1    0    0    0  501 -0.00000000000E+00 -0.00000000000E+00 -0.11533343813E+04  0.11533343813E+04  0.00000000000E+00 0.  1.
         23    2    1    2    0    0 -0.25430962090E+03  0.11466173443E+04  0.19055769730E+03  0.11932331051E+04  0.89934918351E+02 0.  0.
         13    1    3    3    0    0 -0.10866473190E+03  0.35828887876E+03  0.91874711174E+02  0.38551252529E+03  0.00000000000E+00 0. -1.
        -13    1    3    3    0    0 -0.14564488900E+03  0.78832846557E+03  0.98682986125E+02  0.80772057982E+03  0.00000000000E+00 0.  1.
         22    1    1    2    0    0  0.25430962090E+03 -0.11466173443E+04 -0.12308113011E+03  0.11809122246E+04  0.00000000000E+00 0.  1.
<mgrwt>
<rscale>  0 0.23731862E+04</rscale>
<asrwt>0</asrwt>
<pdfrwt beam="1">  1        2 0.18781707E+00 0.23731862E+04</pdfrwt>
<pdfrwt beam="2">  1       -2 0.17743606E+00 0.23731862E+04</pdfrwt>
<totfact> 0.31338552E+00</totfact>
</mgrwt>
</event>
<event>
 6    1  0.1885829E-005  0.2746922E+04  0.7818608E-02  0.8319939E-01
         -2   -1    0    0    0  501 -0.00000000000E+00  0.00000000000E+00  0.14049115108E+04  0.14049115108E+04  0.00000000000E+00 0.  1.
          2   -1    0    0  501    0  0.00000000000E+00 -0.00000000000E+00 -0.13427140578E+04  0.13427140578E+04  0.00000000000E+00 0. -1.
         23    2    1    2    0    0 -0.62830566929E+03 -0.37868245547E+03 -0.11284950111E+04  0.13490845573E+04  0.91431594076E+02 0.  0.
         13    1    3    3    0    0 -0.22828020946E+03 -0.16754549067E+03 -0.50213690414E+03  0.57647620591E+03  0.00000000000E+00 0. -1.
        -13    1    3    3    0    0 -0.40002545983E+03 -0.21113696480E+03 -0.62635810696E+03  0.77260835134E+03  0.00000000000E+00 0.  1.
         22    1    1    2    0    0  0.62830566929E+03  0.37868245547E+03  0.11906924641E+04  0.13985410113E+04  0.00000000000E+00 0.  1.
<mgrwt>
<rscale>  0 0.27469215E+04</rscale>
<asrwt>0</asrwt>
<pdfrwt beam="1">  1        2 0.20657139E+00 0.27469215E+04</pdfrwt>
<pdfrwt beam="2">  1       -2 0.21614023E+00 0.27469215E+04</pdfrwt>
<totfact> 0.14270437E+00</totfact>
</mgrwt>
</event>
<event>
 6    1  0.1885829E-005  0.1246867E+04  0.7818608E-02  0.9072795E-01
         -2   -1    0    0    0  501 -0.00000000000E+00  0.00000000000E+00  0.13549592563E+03  0.13549592563E+03  0.00000000000E+00 0.  1.
          2   -1    0    0  501    0  0.00000000000E+00 -0.00000000000E+00 -0.28684923097E+04  0.28684923097E+04  0.00000000000E+00 0. -1.
         23    2    1    2    0    0 -0.36258391414E+02  0.26869165528E+03 -0.27174289506E+04  0.27324146329E+04  0.90331321842E+02 0.  0.
         11    1    3    3    0    0 -0.24297855424E+02  0.26034491791E+03 -0.23147245116E+04  0.23294461631E+04  0.00000000000E+00 0.  1.
        -11    1    3    3    0    0 -0.11960535990E+02  0.83467373718E+01 -0.40270443896E+03  0.40296846974E+03  0.00000000000E+00 0. -1.
         22    1    1    2    0    0  0.36258391414E+02 -0.26869165528E+03 -0.15567433453E+02  0.27157360245E+03  0.00000000000E+00 0.  1.
<mgrwt>
<rscale>  0 0.12468665E+04</rscale>
<asrwt>0</asrwt>
<pdfrwt beam="1">  1        2 0.44130650E+00 0.12468665E+04</pdfrwt>
<pdfrwt beam="2">  1       -2 0.20845527E-01 0.12468665E+04</pdfrwt>
<totfact> 0.41500014E+01</totfact>
</mgrwt>
</event>
<event>
 6    1  0.1885829E-005  0.2223316E+04  0.7818608E-02  0.8508786E-01
          2   -1    0    0  501    0  0.00000000000E+00  0.00000000000E+00  0.19827044749E+04  0.19827044749E+04  0.00000000000E+00 0. -1.
         -2   -1    0    0    0  501 -0.00000000000E+00 -0.00000000000E+00 -0.62328152352E+03  0.62328152352E+03  0.00000000000E+00 0.  1.
         23    2    1    2    0    0  0.48668204161E+03 -0.29730505759E+03  0.17967560654E+04  0.18872997251E+04  0.91204095750E+02 0.  0.
         11    1    3    3    0    0  0.22236762672E+03 -0.11943792535E+03  0.93739986295E+03  0.97078899998E+03  0.00000000000E+00 0. -1.
        -11    1    3    3    0    0  0.26431441489E+03 -0.17786713223E+03  0.85935620245E+03  0.91651072516E+03  0.00000000000E+00 0.  1.
         22    1    1    2    0    0 -0.48668204161E+03  0.29730505759E+03 -0.43733311397E+03  0.71868627333E+03  0.00000000000E+00 0.  1.
<mgrwt>
<rscale>  0 0.22233156E+04</rscale>
<asrwt>0</asrwt>
<pdfrwt beam="1">  1        2 0.30503146E+00 0.22233156E+04</pdfrwt>
<pdfrwt beam="2">  1       -2 0.95889466E-01 0.22233156E+04</pdfrwt>
<totfact> 0.56822801E+00</totfact>
</mgrwt>
</event>
<event>
 6    1  0.1885829E-005  0.1510098E+04  0.7818608E-02  0.8877766E-01
         -1   -1    0    0    0  501 -0.00000000000E+00  0.00000000000E+00  0.67480040607E+03  0.67480040607E+03  0.00000000000E+00 0.  1.
          1   -1    0    0  501    0  0.00000000000E+00 -0.00000000000E+00 -0.84484083825E+03  0.84484083825E+03  0.00000000000E+00 0. -1.
         23    2    1    2    0    0  0.21670248456E+02  0.18016260806E+03  0.64935911321E+03  0.68038932744E+03  0.91291916298E+02 0.  0.
         11    1    3    3    0    0  0.50148559235E+02  0.76624192569E+02  0.36831803317E+03  0.37953170940E+03  0.00000000000E+00 0.  1.
        -11    1    3    3    0    0 -0.28478310780E+02  0.10353841549E+03  0.28104108004E+03  0.30085761804E+03  0.00000000000E+00 0. -1.
         22    1    1    2    0    0 -0.21670248456E+02 -0.18016260806E+03 -0.81939954539E+03  0.83925191688E+03  0.00000000000E+00 0. -1.
<mgrwt>
<rscale>  0 0.15100979E+04</rscale>
<asrwt>0</asrwt>
<pdfrwt beam="1">  1        1 0.12997551E+00 0.15100979E+04</pdfrwt>
<pdfrwt beam="2">  1       -1 0.10381545E+00 0.15100979E+04</pdfrwt>
<totfact> 0.17098784E+01</totfact>
</mgrwt>
</event>
<event>
 6    1  0.1885829E-005  0.2072437E+04  0.7818608E-02  0.8573483E-01
          2   -1    0    0  501    0  0.00000000000E+00  0.00000000000E+00  0.26646829751E+04  0.26646829751E+04  0.00000000000E+00 0. -1.
         -2   -1    0    0    0  501 -0.00000000000E+00 -0.00000000000E+00 -0.40295565304E+03  0.40295565304E+03  0.00000000000E+00 0.  1.
         23    2    1    2    0    0 -0.92186751930E+03  0.34829170789E+03  0.16008100308E+04  0.18810643562E+04  0.68289973201E+02 0.  0.
         13    1    3    3    0    0 -0.54649701297E+03  0.23993149848E+03  0.98953585007E+03  0.11555982467E+04  0.00000000000E+00 0.  1.
        -13    1    3    3    0    0 -0.37537050632E+03  0.10836020941E+03  0.61127418078E+03  0.72546610954E+03  0.00000000000E+00 0. -1.
         22    1    1    2    0    0  0.92186751930E+03 -0.34829170789E+03  0.66091729116E+03  0.11865742719E+04  0.00000000000E+00 0.  1.
<mgrwt>
<rscale>  0 0.20724373E+04</rscale>
<asrwt>0</asrwt>
<pdfrwt beam="1">  1        2 0.40995122E+00 0.20724373E+04</pdfrwt>
<pdfrwt beam="2">  1       -2 0.61993179E-01 0.20724373E+04</pdfrwt>
<totfact> 0.62246259E+00</totfact>
</mgrwt>
</event>
<event>
 6    1  0.1885829E-005  0.2013840E+04  0.7818608E-02  0.8600177E-01
          2   -1    0    0  501    0  0.00000000000E+00  0.00000000000E+00  0.35053458238E+04  0.35053458238E+04  0.00000000000E+00 0.  1.
         -2   -1    0    0    0  501 -0.00000000000E+00 -0.00000000000E+00 -0.28924047113E+03  0.28924047113E+03  0.00000000000E+00 0. -1.
         23    2    1    2    0    0 -0.95849144660E+03  0.16200778485E+03  0.11313645180E+04  0.14943478891E+04  0.90208457095E+02 0.  0.
         11    1    3    3    0    0 -0.51756616658E+03  0.13296650198E+03  0.62252411809E+03  0.82042129729E+03  0.00000000000E+00 0. -1.
        -11    1    3    3    0    0 -0.44092528001E+03  0.29041282861E+02  0.50884039987E+03  0.67392659185E+03  0.00000000000E+00 0.  1.
         22    1    1    2    0    0  0.95849144660E+03 -0.16200778485E+03  0.20847408347E+04  0.23002384058E+04  0.00000000000E+00 0.  1.
<mgrwt>
<rscale>  0 0.20138400E+04</rscale>
<asrwt>0</asrwt>
<pdfrwt beam="1">  1        2 0.53928395E+00 0.20138400E+04</pdfrwt>
<pdfrwt beam="2">  1       -2 0.44498536E-01 0.20138400E+04</pdfrwt>
<totfact> 0.36021979E+00</totfact>
</mgrwt>
</event>
<event>
 6    1  0.1885829E-005  0.2222627E+04  0.7818608E-02  0.8509069E-01
         -1   -1    0    0    0  501 -0.00000000000E+00  0.00000000000E+00  0.49101699830E+04  0.49101699830E+04  0.00000000000E+00 0.  1.
          1   -1    0    0  501    0  0.00000000000E+00 -0.00000000000E+00 -0.25152229669E+03  0.25152229669E+03  0.00000000000E+00 0. -1.
         23    2    1    2    0    0 -0.54864688608E+03  0.95402589338E+03  0.20077820427E+04  0.22914540542E+04  0.91619542061E+02 0.  0.
         11    1    3    3    0    0 -0.34237557888E+03  0.67519838505E+03  0.13456774211E+04  0.15440082959E+04  0.00000000000E+00 0.  1.
        -11    1    3    3    0    0 -0.20627130720E+03  0.27882750832E+03  0.66210462163E+03  0.74744575827E+03  0.00000000000E+00 0. -1.
         22    1    1    2    0    0  0.54864688608E+03 -0.95402589338E+03  0.26508656436E+04  0.28702382256E+04  0.00000000000E+00 0. -1.
<mgrwt>
<rscale>  0 0.22226266E+04</rscale>
<asrwt>0</asrwt>
<pdfrwt beam="1">  1        1 0.38695741E-01 0.22226266E+04</pdfrwt>
<pdfrwt beam="2">  1       -1 0.75541070E+00 0.22226266E+04</pdfrwt>
<totfact> 0.12088104E-02</totfact>
</mgrwt>
</event>
<event>
 6    1  0.1885829E-005  0.2569859E+04  0.7818608E-02  0.8378512E-01
         -1   -1    0    0    0  501 -0.00000000000E+00  0.00000000000E+00  0.13814259349E+04  0.13814259349E+04  0.00000000000E+00 0.  1.
          1   -1    0    0  501    0  0.00000000000E+00 -0.00000000000E+00 -0.11951737773E+04  0.11951737773E+04  0.00000000000E+00 0. -1.
         23    2    1    2    0    0  0.45175816797E+03  0.11075669715E+04  0.55936567169E+03  0.13236018139E+04  0.90784186667E+02 0.  0.
         11    1    3    3    0    0  0.10745476330E+03  0.37596903039E+03  0.18031899193E+03  0.43059746495E+03  0.00000000000E+00 0. -1.
        -11    1    3    3    0    0  0.34430340468E+03  0.73159794108E+03  0.37904667976E+03  0.89300434899E+03  0.00000000000E+00 0.  1.
         22    1    1    2    0    0 -0.45175816797E+03 -0.11075669715E+04 -0.37311351413E+03  0.12529978983E+04  0.00000000000E+00 0. -1.
<mgrwt>
<rscale>  0 0.25698592E+04</rscale>
<asrwt>0</asrwt>
<pdfrwt beam="1">  1        1 0.18387289E+00 0.25698592E+04</pdfrwt>
<pdfrwt beam="2">  1       -1 0.21252707E+00 0.25698592E+04</pdfrwt>
<totfact> 0.11756545E+00</totfact>
</mgrwt>
</event>
<event>
 6    1  0.1885829E-005  0.2245064E+04  0.7818608E-02  0.8499902E-01
         -2   -1    0    0    0  501 -0.00000000000E+00  0.00000000000E+00  0.81694796581E+03  0.81694796581E+03  0.00000000000E+00 0.  1.
          2   -1    0    0  501    0  0.00000000000E+00 -0.00000000000E+00 -0.15424216684E+04  0.15424216684E+04  0.00000000000E+00 0. -1.
         23    2    1    2    0    0  0.53084535070E+03  0.95974991395E+03 -0.12328767238E+03  0.11081523475E+04  0.99423796696E+02 0.  0.
         11    1    3    3    0    0  0.17891606217E+03  0.38587107127E+03 -0.85903956091E+02  0.43392041968E+03  0.00000000000E+00 0. -1.
        -11    1    3    3    0    0  0.35192928853E+03  0.57387884269E+03 -0.37383716294E+02  0.67423192779E+03  0.00000000000E+00 0.  1.
         22    1    1    2    0    0 -0.53084535070E+03 -0.95974991395E+03 -0.60218603024E+03  0.12512172868E+04  0.00000000000E+00 0.  1.
<mgrwt>
<rscale>  0 0.22450641E+04</rscale>
<asrwt>0</asrwt>
<pdfrwt beam="1">  1        2 0.23729564E+00 0.22450641E+04</pdfrwt>
<pdfrwt beam="2">  1       -2 0.12568430E+00 0.22450641E+04</pdfrwt>
<totfact> 0.51750896E+00</totfact>
</mgrwt>
</event>
<event>
 6    1  0.1885829E-005  0.2450551E+04  0.7818608E-02  0.8420817E-01
          2   -1    0    0  501    0  0.00000000000E+00  0.00000000000E+00  0.36605058618E+04  0.36605058618E+04  0.00000000000E+00 0. -1.
         -2   -1    0    0    0  501 -0.00000000000E+00 -0.00000000000E+00 -0.41013449420E+03  0.41013449420E+03  0.00000000000E+00 0.  1.
         23    2    1    2    0    0  0.10162198132E+04  0.36063664226E+03  0.66671624673E+03  0.12709912208E+04  0.90258702465E+02 0.  0.
         11    1    3    3    0    0  0.25397096153E+03  0.85519921714E+02  0.12125499879E+03  0.29413888054E+03  0.00000000000E+00 0. -1.
        -11    1    3    3    0    0  0.76224885163E+03  0.27511672054E+03  0.54546124793E+03  0.97685234029E+03  0.00000000000E+00 0.  1.
         22    1    1    2    0    0 -0.10162198132E+04 -0.36063664226E+03  0.25836551209E+04  0.27996491352E+04  0.00000000000E+00 0. -1.
<mgrwt>
<rscale>  0 0.24505507E+04</rscale>
<asrwt>0</asrwt>
<pdfrwt beam="1">  1        2 0.56315473E+00 0.24505507E+04</pdfrwt>
<pdfrwt beam="2">  1       -2 0.63097617E-01 0.24505507E+04</pdfrwt>
<totfact> 0.13033016E+00</totfact>
</mgrwt>
</event>
<event>
 6    1  0.1885829E-005  0.9823629E+03  0.7818608E-02  0.9328103E-01
          2   -1    0    0  501    0  0.00000000000E+00  0.00000000000E+00  0.48717217273E+03  0.48717217273E+03  0.00000000000E+00 0. -1.
         -2   -1    0    0    0  501 -0.00000000000E+00 -0.00000000000E+00 -0.49522367625E+03  0.49522367625E+03  0.00000000000E+00 0.  1.
         23    2    1    2    0    0 -0.46102584801E+03 -0.55166681906E+01  0.15336044477E+03  0.49389909032E+03  0.88552917731E+02 0.  0.
         13    1    3    3    0    0 -0.22937215477E+03 -0.46220467364E+02  0.67646954402E+02  0.24356524265E+03  0.00000000000E+00 0.  1.
        -13    1    3    3    0    0 -0.23165369324E+03  0.40703799173E+02  0.85713490370E+02  0.25033384767E+03  0.00000000000E+00 0. -1.
         22    1    1    2    0    0  0.46102584801E+03  0.55166681906E+01 -0.16141194830E+03  0.48849675865E+03  0.00000000000E+00 0.  1.
<mgrwt>
<rscale>  0 0.98236285E+03</rscale>
<asrwt>0</asrwt>
<pdfrwt beam="1">  1        2 0.74949565E-01 0.98236285E+03</pdfrwt>
<pdfrwt beam="2">  1       -2 0.76188258E-01 0.98236285E+03</pdfrwt>
<totfact> 0.97874821E+01</totfact>
</mgrwt>
</event>
<event>
 6    1  0.1885829E-005  0.2063165E+04  0.7818608E-02  0.8577646E-01
         -2   -1    0    0    0  501 -0.00000000000E+00  0.00000000000E+00  0.66590758830E+03  0.66590758830E+03  0.00000000000E+00 0. -1.
          2   -1    0    0  501    0  0.00000000000E+00 -0.00000000000E+00 -0.15980625642E+04  0.15980625642E+04  0.00000000000E+00 0.  1.
         23    2    1    2    0    0  0.84785463843E+03 -0.57344398769E+03 -0.34438052425E+03  0.10836421045E+04  0.89368731756E+02 0.  0.
         11    1    3    3    0    0  0.60509704034E+03 -0.37508521948E+03 -0.27036730438E+03  0.76153123992E+03  0.00000000000E+00 0.  1.
        -11    1    3    3    0    0  0.24275759810E+03 -0.19835876821E+03 -0.74013219864E+02  0.32211086457E+03  0.00000000000E+00 0. -1.
         22    1    1    2    0    0 -0.84785463843E+03  0.57344398769E+03 -0.58777445169E+03  0.11803280480E+04  0.00000000000E+00 0.  1.
<mgrwt>
<rscale>  0 0.20631645E+04</rscale>
<asrwt>0</asrwt>
<pdfrwt beam="1">  1        2 0.24585577E+00 0.20631645E+04</pdfrwt>
<pdfrwt beam="2">  1       -2 0.10244732E+00 0.20631645E+04</pdfrwt>
<totfact> 0.80583647E+00</totfact>
</mgrwt>
</event>
<event>
 6    1  0.1885829E-005  0.2708653E+04  0.7818608E-02  0.8332203E-01
         -2   -1    0    0    0  501 -0.00000000000E+00  0.00000000000E+00  0.47266337127E+03  0.47266337127E+03  0.00000000000E+00 0.  1.
          2   -1    0    0  501    0  0.00000000000E+00 -0.00000000000E+00 -0.38805643221E+04  0.38805643221E+04  0.00000000000E+00 0. -1.
         23    2    1    2    0    0  0.11920020797E+04 -0.47619489627E+03 -0.10197056521E+04  0.16419351377E+04  0.92308409563E+02 0.  0.
         13    1    3    3    0    0  0.41877000492E+03 -0.21480204917E+03 -0.37988191907E+03  0.60482932285E+03  0.00000000000E+00 0.  1.
        -13    1    3    3    0    0  0.77323207476E+03 -0.26139284710E+03 -0.63982373301E+03  0.10371058149E+04  0.00000000000E+00 0. -1.
         22    1    1    2    0    0 -0.11920020797E+04  0.47619489627E+03 -0.23881952987E+04  0.27112925556E+04  0.00000000000E+00 0. -1.
<mgrwt>
<rscale>  0 0.27086533E+04</rscale>
<asrwt>0</asrwt>
<pdfrwt beam="1">  1        2 0.59700990E+00 0.27086533E+04</pdfrwt>
<pdfrwt beam="2">  1       -2 0.72717442E-01 0.27086533E+04</pdfrwt>
<totfact> 0.63878978E-01</totfact>
</mgrwt>
</event>
<event>
 6    1  0.1885829E-005  0.5445445E+03  0.7818608E-02  0.1002765E+00
         -2   -1    0    0    0  501 -0.00000000000E+00  0.00000000000E+00  0.53329995935E+02  0.53329995935E+02  0.00000000000E+00 0.  1.
          2   -1    0    0  501    0  0.00000000000E+00 -0.00000000000E+00 -0.13900653197E+04  0.13900653197E+04  0.00000000000E+00 0. -1.
         23    2    1    2    0    0  0.75703818146E+02  0.20653512813E+02 -0.13570752374E+04  0.13623314658E+04  0.90200815192E+02 0.  0.
         13    1    3    3    0    0 -0.23772642900E+00  0.24123257889E+02 -0.76701505687E+03  0.76739434814E+03  0.00000000000E+00 0.  1.
        -13    1    3    3    0    0  0.75941544575E+02 -0.34697450758E+01 -0.59006018049E+03  0.59493711762E+03  0.00000000000E+00 0. -1.
         22    1    1    2    0    0 -0.75703818146E+02 -0.20653512813E+02  0.20339913588E+02  0.81063849885E+02  0.00000000000E+00 0.  1.
<mgrwt>
<rscale>  0 0.54454450E+03</rscale>
<asrwt>0</asrwt>
<pdfrwt beam="1">  1        2 0.21385617E+00 0.54454450E+03</pdfrwt>
<pdfrwt beam="2">  1       -2 0.82046160E-02 0.54454450E+03</pdfrwt>
<totfact> 0.14084456E+03</totfact>
</mgrwt>
</event>
<event>
 6    1  0.1885829E-005  0.2926328E+04  0.7818608E-02  0.8265087E-01
          2   -1    0    0  501    0  0.00000000000E+00  0.00000000000E+00  0.14484586764E+04  0.14484586764E+04  0.00000000000E+00 0. -1.
         -2   -1    0    0    0  501 -0.00000000000E+00 -0.00000000000E+00 -0.14780182606E+04  0.14780182606E+04  0.00000000000E+00 0.  1.
         23    2    1    2    0    0  0.33238831710E+03  0.87298991790E+02  0.14060419002E+04  0.14503147748E+04  0.91411232631E+02 0.  0.
         13    1    3    3    0    0  0.86222361262E+02  0.60087674212E+02  0.33947103083E+03  0.35536657826E+03  0.00000000000E+00 0. -1.
        -13    1    3    3    0    0  0.24616595584E+03  0.27211317578E+02  0.10665708694E+04  0.10949481965E+04  0.00000000000E+00 0.  1.
         22    1    1    2    0    0 -0.33238831710E+03 -0.87298991790E+02 -0.14356014844E+04  0.14761621622E+04  0.00000000000E+00 0.  1.
<mgrwt>
<rscale>  0 0.29263276E+04</rscale>
<asrwt>0</asrwt>
<pdfrwt beam="1">  1        2 0.22283980E+00 0.29263276E+04</pdfrwt>
<pdfrwt beam="2">  1       -2 0.22738742E+00 0.29263276E+04</pdfrwt>
<totfact> 0.10382085E+00</totfact>
</mgrwt>
</event>
<event>
 6    1  0.1885829E-005  0.2076556E+04  0.7818608E-02  0.8571642E-01
         -1   -1    0    0    0  501 -0.00000000000E+00  0.00000000000E+00  0.60714170465E+03  0.60714170465E+03  0.00000000000E+00 0.  1.
          1   -1    0    0  501    0  0.00000000000E+00 -0.00000000000E+00 -0.17755671997E+04  0.17755671997E+04  0.00000000000E+00 0. -1.
         23    2    1    2    0    0 -0.49629100504E+02  0.96992130448E+03 -0.10002955500E+04  0.13970730371E+04  0.89506978239E+02 0.  0.
         13    1    3    3    0    0 -0.36302679479E+02  0.44523346808E+03 -0.52113006583E+03  0.68638711465E+03  0.00000000000E+00 0.  1.
        -13    1    3    3    0    0 -0.13326421025E+02  0.52468783639E+03 -0.47916548414E+03  0.71068592244E+03  0.00000000000E+00 0. -1.
         22    1    1    2    0    0  0.49629100504E+02 -0.96992130448E+03 -0.16812994513E+03  0.98563586732E+03  0.00000000000E+00 0.  1.
<mgrwt>
<rscale>  0 0.20765557E+04</rscale>
<asrwt>0</asrwt>
<pdfrwt beam="1">  1        1 0.27316418E+00 0.20765557E+04</pdfrwt>
<pdfrwt beam="2">  1       -1 0.93406417E-01 0.20765557E+04</pdfrwt>
<totfact> 0.43379320E+00</totfact>
</mgrwt>
</event>
<event>
 6    1  0.1885829E-005  0.2983654E+04  0.7818608E-02  0.8248414E-01
          2   -1    0    0  501    0  0.00000000000E+00  0.00000000000E+00  0.11699262278E+04  0.11699262278E+04  0.00000000000E+00 0. -1.
         -2   -1    0    0    0  501 -0.00000000000E+00 -0.00000000000E+00 -0.19022971628E+04  0.19022971628E+04  0.00000000000E+00 0.  1.
         23    2    1    2    0    0  0.41374986137E+03  0.13955337900E+04 -0.36041171004E+02  0.14586625313E+04  0.87714921367E+02 0.  0.
         11    1    3    3    0    0  0.27968550317E+02  0.20090866979E+03 -0.52014551827E+01  0.20291276091E+03  0.00000000000E+00 0. -1.
        -11    1    3    3    0    0  0.38578131106E+03  0.11946251202E+04 -0.30839715821E+02  0.12557497704E+04  0.00000000000E+00 0.  1.
         22    1    1    2    0    0 -0.41374986137E+03 -0.13955337900E+04 -0.69632976394E+03  0.16135608594E+04  0.00000000000E+00 0.  1.
<mgrwt>
<rscale>  0 0.29836537E+04</rscale>
<asrwt>0</asrwt>
<pdfrwt beam="1">  1        2 0.17998865E+00 0.29836537E+04</pdfrwt>
<pdfrwt beam="2">  1       -2 0.29266110E+00 0.29836537E+04</pdfrwt>
<totfact> 0.59650818E-01</totfact>
</mgrwt>
</event>
<event>
 6    1  0.1885829E-005  0.2197391E+04  0.7818608E-02  0.8519515E-01
          2   -1    0    0  501    0  0.00000000000E+00  0.00000000000E+00  0.30320012319E+04  0.30320012319E+04  0.00000000000E+00 0. -1.
         -2   -1    0    0    0  501 -0.00000000000E+00 -0.00000000000E+00 -0.39813037809E+03  0.39813037809E+03  0.00000000000E+00 0.  1.
         23    2    1    2    0    0 -0.43460318031E+03 -0.29389136455E+03  0.28226796086E+04  0.28725468143E+04  0.93557304389E+02 0.  0.
         11    1    3    3    0    0 -0.21133306937E+03 -0.18255929405E+03  0.16685610730E+04  0.16917699655E+04  0.00000000000E+00 0. -1.
        -11    1    3    3    0    0 -0.22327011094E+03 -0.11133207050E+03  0.11541185356E+04  0.11807768488E+04  0.00000000000E+00 0.  1.
         22    1    1    2    0    0  0.43460318031E+03  0.29389136455E+03 -0.18880875477E+03  0.55758479568E+03  0.00000000000E+00 0.  1.
<mgrwt>
<rscale>  0 0.21973910E+04</rscale>
<asrwt>0</asrwt>
<pdfrwt beam="1">  1        2 0.46646171E+00 0.21973910E+04</pdfrwt>
<pdfrwt beam="2">  1       -2 0.61250829E-01 0.21973910E+04</pdfrwt>
<totfact> 0.37724781E+00</totfact>
</mgrwt>
</event>
<event>
 6    1  0.1885829E-005  0.2750224E+04  0.7818608E-02  0.8318891E-01
          2   -1    0    0  501    0  0.00000000000E+00  0.00000000000E+00  0.31209308416E+04  0.31209308416E+04  0.00000000000E+00 0. -1.
         -2   -1    0    0    0  501 -0.00000000000E+00 -0.00000000000E+00 -0.60588748410E+03  0.60588748410E+03  0.00000000000E+00 0.  1.
         23    2    1    2    0    0  0.88436593694E+03  0.82410710842E+03  0.21428439918E+04  0.24619910630E+04  0.91454822818E+02 0.  0.
         11    1    3    3    0    0  0.47459280493E+03  0.46943039623E+03  0.10990853359E+04  0.12859206053E+04  0.00000000000E+00 0.  1.
        -11    1    3    3    0    0  0.40977313201E+03  0.35467671219E+03  0.10437586559E+04  0.11760704578E+04  0.00000000000E+00 0. -1.
         22    1    1    2    0    0 -0.88436593694E+03 -0.82410710842E+03  0.37219936568E+03  0.12648272627E+04  0.00000000000E+00 0.  1.
<mgrwt>
<rscale>  0 0.27502239E+04</rscale>
<asrwt>0</asrwt>
<pdfrwt beam="1">  1        2 0.48014320E+00 0.27502239E+04</pdfrwt>
<pdfrwt beam="2">  1       -2 0.93213461E-01 0.27502239E+04</pdfrwt>
<totfact> 0.12415544E+00</totfact>
</mgrwt>
</event>
<event>
 6    1  0.1885829E-005  0.3143966E+04  0.7818608E-02  0.8203774E-01
          2   -1    0    0  501    0  0.00000000000E+00  0.00000000000E+00  0.16855652600E+04  0.16855652600E+04  0.00000000000E+00 0. -1.
         -2   -1    0    0    0  501 -0.00000000000E+00 -0.00000000000E+00 -0.14660547854E+04  0.14660547854E+04  0.00000000000E+00 0.  1.
         23    2    1    2    0    0 -0.60468932167E+03  0.10259619135E+04 -0.91667514918E+03  0.15056659769E+04  0.92139464786E+02 0.  0.
         13    1    3    3    0    0 -0.10522233615E+03  0.25430999263E+03 -0.20543191500E+03  0.34343497795E+03  0.00000000000E+00 0.  1.
        -13    1    3    3    0    0 -0.49946698552E+03  0.77165192091E+03 -0.71124323418E+03  0.11622309989E+04  0.00000000000E+00 0. -1.
         22    1    1    2    0    0  0.60468932167E+03 -0.10259619135E+04  0.11361856238E+04  0.16459540685E+04  0.00000000000E+00 0. -1.
<mgrwt>
<rscale>  0 0.31439663E+04</rscale>
<asrwt>0</asrwt>
<pdfrwt beam="1">  1        2 0.25931773E+00 0.31439663E+04</pdfrwt>
<pdfrwt beam="2">  1       -2 0.22554689E+00 0.31439663E+04</pdfrwt>
<totfact> 0.77062788E-01</totfact>
</mgrwt>
</event>
<event>
 6    1  0.1885829E-005  0.4684747E+04  0.7818608E-02  0.7879068E-01
          2   -1    0    0  501    0  0.00000000000E+00  0.00000000000E+00  0.26563703313E+04  0.26563703313E+04  0.00000000000E+00 0. -1.
         -2   -1    0    0    0  501 -0.00000000000E+00 -0.00000000000E+00 -0.20654928660E+04  0.20654928660E+04  0.00000000000E+00 0.  1.
         23    2    1    2    0    0  0.22420602537E+04 -0.38655199981E+03  0.85358019486E+03  0.24316078940E+04  0.88663248150E+02 0.  0.
         13    1    3    3    0    0  0.75827220459E+03 -0.88750983164E+02  0.27945417590E+03  0.81298715223E+03  0.00000000000E+00 0. -1.
        -13    1    3    3    0    0  0.14837880491E+04 -0.29780101665E+03  0.57412601897E+03  0.16186207418E+04  0.00000000000E+00 0.  1.
         22    1    1    2    0    0 -0.22420602537E+04  0.38655199981E+03 -0.26270272955E+03  0.22902553032E+04  0.00000000000E+00 0.  1.
<mgrwt>
<rscale>  0 0.46847472E+04</rscale>
<asrwt>0</asrwt>
<pdfrwt beam="1">  1        2 0.40867236E+00 0.46847472E+04</pdfrwt>
<pdfrwt beam="2">  1       -2 0.31776813E+00 0.46847472E+04</pdfrwt>
<totfact> 0.52006126E-02</totfact>
</mgrwt>
</event>
<event>
 6    1  0.1885829E-005  0.4160355E+04  0.7818608E-02  0.7972957E-01
         -1   -1    0    0    0  501 -0.00000000000E+00  0.00000000000E+00  0.14338401179E+04  0.14338401179E+04  0.00000000000E+00 0.  1.
          1   -1    0    0  501    0  0.00000000000E+00 -0.00000000000E+00 -0.30178662961E+04  0.30178662961E+04  0.00000000000E+00 0. -1.
         23    2    1    2    0    0 -0.43097868634E+03 -0.14635554703E+04 -0.23036596570E+04  0.27648129419E+04  0.98007885889E+02 0.  0.
         11    1    3    3    0    0 -0.99040302765E+02 -0.48646059206E+03 -0.71680777473E+03  0.87193249459E+03  0.00000000000E+00 0. -1.
        -11    1    3    3    0    0 -0.33193838358E+03 -0.97709487823E+03 -0.15868518822E+04  0.18928804473E+04  0.00000000000E+00 0.  1.
         22    1    1    2    0    0  0.43097868634E+03  0.14635554703E+04  0.71963347880E+03  0.16868934722E+04  0.00000000000E+00 0.  1.
<mgrwt>
<rscale>  0 0.41603547E+04</rscale>
<asrwt>0</asrwt>
<pdfrwt beam="1">  1        1 0.46428711E+00 0.41603547E+04</pdfrwt>
<pdfrwt beam="2">  1       -1 0.22059079E+00 0.41603547E+04</pdfrwt>
<totfact> 0.48839401E-02</totfact>
</mgrwt>
</event>
<event>
 6    1  0.1885829E-005  0.1724509E+04  0.7818608E-02  0.8747508E-01
         -1   -1    0    0    0  501 -0.00000000000E+00  0.00000000000E+00  0.49394333496E+03  0.49394333496E+03  0.00000000000E+00 0.  1.
          1   -1    0    0  501    0  0.00000000000E+00 -0.00000000000E+00 -0.15051982895E+04  0.15051982895E+04  0.00000000000E+00 0. -1.
         23    2    1    2    0    0 -0.29846704642E+03  0.19518071910E+03 -0.14139887041E+04  0.14612080189E+04  0.92664600282E+02 0.  0.
         13    1    3    3    0    0 -0.58646388940E+02  0.28468033659E+02 -0.42573501871E+03  0.43069726494E+03  0.00000000000E+00 0. -1.
        -13    1    3    3    0    0 -0.23982065748E+03  0.16671268545E+03 -0.98825368541E+03  0.10305107539E+04  0.00000000000E+00 0.  1.
         22    1    1    2    0    0  0.29846704642E+03 -0.19518071910E+03  0.40273374961E+03  0.53793360555E+03  0.00000000000E+00 0.  1.
<mgrwt>
<rscale>  0 0.17245088E+04</rscale>
<asrwt>0</asrwt>
<pdfrwt beam="1">  1        1 0.23156897E+00 0.17245088E+04</pdfrwt>
<pdfrwt beam="2">  1       -1 0.75991282E-01 0.17245088E+04</pdfrwt>
<totfact> 0.10715341E+01</totfact>
</mgrwt>
</event>
<event>
 6    1  0.1885829E-005  0.2782919E+04  0.7818608E-02  0.8308591E-01
         -2   -1    0    0    0  501 -0.00000000000E+00  0.00000000000E+00  0.29791080759E+04  0.29791080759E+04  0.00000000000E+00 0.  1.
          2   -1    0    0  501    0  0.00000000000E+00 -0.00000000000E+00 -0.64991236263E+03  0.64991236263E+03  0.00000000000E+00 0. -1.
         23    2    1    2    0    0 -0.44619019328E+02  0.13721368499E+04  0.14494316341E+04  0.19984575828E+04  0.90720760960E+02 0.  0.
         11    1    3    3    0    0  0.15248395955E+02  0.85121109453E+03  0.88241135514E+03  0.12261495181E+04  0.00000000000E+00 0. -1.
        -11    1    3    3    0    0 -0.59867415283E+02  0.52092575532E+03  0.56702027901E+03  0.77230806468E+03  0.00000000000E+00 0.  1.
         22    1    1    2    0    0  0.44619019328E+02 -0.13721368499E+04  0.87976407908E+03  0.16305628557E+04  0.00000000000E+00 0. -1.
<mgrwt>
<rscale>  0 0.27829187E+04</rscale>
<asrwt>0</asrwt>
<pdfrwt beam="1">  1        2 0.99986519E-01 0.27829187E+04</pdfrwt>
<pdfrwt beam="2">  1       -2 0.45832431E+00 0.27829187E+04</pdfrwt>
<totfact> 0.11964436E-01</totfact>
</mgrwt>
</event>
<event>
 6    1  0.1885829E-005  0.7535920E+04  0.7818608E-02  0.7524557E-01
         -2   -1    0    0    0  501 -0.00000000000E+00  0.00000000000E+00  0.44407901188E+04  0.44407901188E+04  0.00000000000E+00 0.  1.
          2   -1    0    0  501    0  0.00000000000E+00 -0.00000000000E+00 -0.31970712066E+04  0.31970712066E+04  0.00000000000E+00 0. -1.
         23    2    1    2    0    0  0.44312912704E+03  0.31192350237E+04 -0.14717159804E+04  0.34785852811E+04  0.92828199944E+02 0.  0.
         13    1    3    3    0    0  0.32443814383E+03  0.21177439560E+04 -0.96026154821E+03  0.23478078741E+04  0.00000000000E+00 0. -1.
        -13    1    3    3    0    0  0.11869098321E+03  0.10014910676E+04 -0.51145443222E+03  0.11307774070E+04  0.00000000000E+00 0.  1.
         22    1    1    2    0    0 -0.44312912704E+03 -0.31192350237E+04  0.27154348927E+04  0.41592760443E+04  0.00000000000E+00 0. -1.
<mgrwt>
<rscale>  0 0.75359199E+04</rscale>
<asrwt>0</asrwt>
<pdfrwt beam="1">  1        2 0.49185711E+00 0.75359199E+04</pdfrwt>
<pdfrwt beam="2">  1       -2 0.68319848E+00 0.75359199E+04</pdfrwt>
<totfact> 0.20931949E-04</totfact>
</mgrwt>
</event>
<event>
 6    1  0.1885829E-005  0.1396761E+04  0.7818608E-02  0.8956167E-01
          2   -1    0    0  501    0  0.00000000000E+00  0.00000000000E+00  0.20107108503E+04  0.20107108503E+04  0.00000000000E+00 0. -1.
         -2   -1    0    0    0  501 -0.00000000000E+00 -0.00000000000E+00 -0.24256852197E+03  0.24256852197E+03  0.00000000000E+00 0.  1.
         23    2    1    2    0    0  0.31385628762E+03  0.54068357771E+03  0.39211899949E+03  0.74189434456E+03  0.76193229621E+02 0.  0.
         13    1    3    3    0    0  0.66384018803E+02  0.17540824272E+03  0.97727449657E+02  0.21148414594E+03  0.00000000000E+00 0. -1.
        -13    1    3    3    0    0  0.24747226882E+03  0.36527533499E+03  0.29439154983E+03  0.53041019862E+03  0.00000000000E+00 0.  1.
         22    1    1    2    0    0 -0.31385628762E+03 -0.54068357771E+03  0.13760233288E+04  0.15113850277E+04  0.00000000000E+00 0. -1.
<mgrwt>
<rscale>  0 0.13967608E+04</rscale>
<asrwt>0</asrwt>
<pdfrwt beam="1">  1        2 0.30934012E+00 0.13967608E+04</pdfrwt>
<pdfrwt beam="2">  1       -2 0.37318235E-01 0.13967608E+04</pdfrwt>
<totfact> 0.43466618E+01</totfact>
</mgrwt>
</event>
<event>
 6    1  0.1885829E-005  0.8227589E+03  0.7818608E-02  0.9527647E-01
          2   -1    0    0  501    0  0.00000000000E+00  0.00000000000E+00  0.49062314228E+03  0.49062314228E+03  0.00000000000E+00 0. -1.
         -2   -1    0    0    0  501 -0.00000000000E+00 -0.00000000000E+00 -0.34493487476E+03  0.34493487476E+03  0.00000000000E+00 0.  1.
         23    2    1    2    0    0 -0.39086504500E+02 -0.31078228860E+03 -0.19111566027E+03  0.37561207292E+03  0.80286038494E+02 0.  0.
         13    1    3    3    0    0 -0.23676106760E+02 -0.18550045399E+02 -0.11224793295E+02  0.32103865813E+02  0.00000000000E+00 0.  1.
        -13    1    3    3    0    0 -0.15410397739E+02 -0.29223224320E+03 -0.17989086697E+03  0.34350820710E+03  0.00000000000E+00 0. -1.
         22    1    1    2    0    0  0.39086504500E+02  0.31078228860E+03  0.33680392779E+03  0.45994594413E+03  0.00000000000E+00 0. -1.
<mgrwt>
<rscale>  0 0.82275885E+03</rscale>
<asrwt>0</asrwt>
<pdfrwt beam="1">  1        2 0.75480483E-01 0.82275885E+03</pdfrwt>
<pdfrwt beam="2">  1       -2 0.53066904E-01 0.82275885E+03</pdfrwt>
<totfact> 0.21217625E+02</totfact>
</mgrwt>
</event>
<event>
 6    1  0.1885829E-005  0.2109543E+04  0.7818608E-02  0.8557051E-01
          2   -1    0    0  501    0  0.00000000000E+00  0.00000000000E+00  0.14983521355E+04  0.14983521355E+04  0.00000000000E+00 0. -1.
         -2   -1    0    0    0  501 -0.00000000000E+00 -0.00000000000E+00 -0.74251086797E+03  0.74251086797E+03  0.00000000000E+00 0.  1.
         23    2    1    2    0    0 -0.92551529017E+03 -0.19963787045E+03 -0.11065627335E+03  0.95740991900E+03  0.89191426286E+02 0.  0.
         11    1    3    3    0    0 -0.34788727669E+02 -0.35139781234E+01 -0.21389488932E+02  0.40989191891E+02  0.00000000000E+00 0.  1.
        -11    1    3    3    0    0 -0.89072656250E+03 -0.19612389232E+03 -0.89266784421E+02  0.91642072711E+03  0.00000000000E+00 0. -1.
         22    1    1    2    0    0  0.92551529017E+03  0.19963787045E+03  0.86649754083E+03  0.12834530844E+04  0.00000000000E+00 0. -1.
<mgrwt>
<rscale>  0 0.21095428E+04</rscale>
<asrwt>0</asrwt>
<pdfrwt beam="1">  1        2 0.23051571E+00 0.21095428E+04</pdfrwt>
<pdfrwt beam="2">  1       -2 0.11423244E+00 0.21095428E+04</pdfrwt>
<totfact> 0.70221189E+00</totfact>
</mgrwt>
</event>
<event>
 6    1  0.1885829E-005  0.2995678E+04  0.7818608E-02  0.8244966E-01
          2   -1    0    0  501    0  0.00000000000E+00  0.00000000000E+00  0.15989254988E+04  0.15989254988E+04  0.00000000000E+00 0. -1.
         -2   -1    0    0    0  501 -0.00000000000E+00 -0.00000000000E+00 -0.14031434214E+04  0.14031434214E+04  0.00000000000E+00 0.  1.
         23    2    1    2    0    0  0.78154672762E+03 -0.11278339374E+04 -0.50028435582E+03  0.14634548824E+04  0.92688071356E+02 0.  0.
         11    1    3    3    0    0  0.59837832485E+03 -0.79124719138E+03 -0.35494760176E+03  0.10536206801E+04  0.00000000000E+00 0.  1.
        -11    1    3    3    0    0  0.18316840277E+03 -0.33658674598E+03 -0.14533675406E+03  0.40983420236E+03  0.00000000000E+00 0. -1.
         22    1    1    2    0    0 -0.78154672762E+03  0.11278339374E+04  0.69606643321E+03  0.15386140377E+04  0.00000000000E+00 0.  1.
<mgrwt>
<rscale>  0 0.29956781E+04</rscale>
<asrwt>0</asrwt>
<pdfrwt beam="1">  1        2 0.24598854E+00 0.29956781E+04</pdfrwt>
<pdfrwt beam="2">  1       -2 0.21586822E+00 0.29956781E+04</pdfrwt>
<totfact> 0.10041997E+00</totfact>
</mgrwt>
</event>
<event>
 6    1  0.1885829E-005  0.1005465E+04  0.7818608E-02  0.9302571E-01
         -2   -1    0    0    0  501 -0.00000000000E+00  0.00000000000E+00  0.42564507047E+03  0.42564507047E+03  0.00000000000E+00 0.  1.
          2   -1    0    0  501    0  0.00000000000E+00 -0.00000000000E+00 -0.59378126311E+03  0.59378126311E+03  0.00000000000E+00 0. -1.
         23    2    1    2    0    0  0.81068435150E+02  0.31234875372E+03 -0.46942355645E+03  0.57794257315E+03  0.97597681218E+02 0.  0.
         13    1    3    3    0    0  0.63199352464E+02  0.12952010972E+03 -0.27491593136E+03  0.31040036451E+03  0.00000000000E+00 0.  1.
        -13    1    3    3    0    0  0.17869082686E+02  0.18282864400E+03 -0.19450762508E+03  0.26754220863E+03  0.00000000000E+00 0. -1.
         22    1    1    2    0    0 -0.81068435150E+02 -0.31234875372E+03  0.30128736381E+03  0.44148376042E+03  0.00000000000E+00 0.  1.
<mgrwt>
<rscale>  0 0.10054652E+04</rscale>
<asrwt>0</asrwt>
<pdfrwt beam="1">  1        2 0.91350964E-01 0.10054652E+04</pdfrwt>
<pdfrwt beam="2">  1       -2 0.65483857E-01 0.10054652E+04</pdfrwt>
<totfact> 0.10778537E+02</totfact>
</mgrwt>
</event>
<event>
 6    1  0.1885829E-005  0.3437302E+04  0.7818608E-02  0.8128811E-01
         -2   -1    0    0    0  501 -0.00000000000E+00  0.00000000000E+00  0.10397235699E+04  0.10397235699E+04  0.00000000000E+00 0.  1.
          2   -1    0    0  501    0  0.00000000000E+00 -0.00000000000E+00 -0.28409101991E+04  0.28409101991E+04  0.00000000000E+00 0. -1.
         23    2    1    2    0    0  0.33544987888E+03  0.11951253558E+04  0.43868074457E+03  0.13198024412E+04  0.92663103369E+02 0.  0.
         11    1    3    3    0    0  0.11447199674E+03  0.28662560899E+03  0.84705339028E+02  0.32005167118E+03  0.00000000000E+00 0. -1.
        -11    1    3    3    0    0  0.22097788214E+03  0.90849974683E+03  0.35397540554E+03  0.99975077000E+03  0.00000000000E+00 0.  1.
         22    1    1    2    0    0 -0.33544987888E+03 -0.11951253558E+04 -0.22398673738E+04  0.25608313279E+04  0.00000000000E+00 0. -1.
<mgrwt>
<rscale>  0 0.34373020E+04</rscale>
<asrwt>0</asrwt>
<pdfrwt beam="1">  1        2 0.43706310E+00 0.34373020E+04</pdfrwt>
<pdfrwt beam="2">  1       -2 0.15995747E+00 0.34373020E+04</pdfrwt>
<totfact> 0.45442168E-01</totfact>
</mgrwt>
</event>
<event>
 6    1  0.1885829E-005  0.1529330E+04  0.7818608E-02  0.8865179E-01
          2   -1    0    0  501    0  0.00000000000E+00  0.00000000000E+00  0.80475264175E+03  0.80475264175E+03  0.00000000000E+00 0. -1.
         -2   -1    0    0    0  501 -0.00000000000E+00 -0.00000000000E+00 -0.72657467761E+03  0.72657467761E+03  0.00000000000E+00 0.  1.
         23    2    1    2    0    0  0.45046026187E+03 -0.22812696948E+03  0.61055900149E+03  0.79757945348E+03  0.91620568569E+02 0.  0.
         13    1    3    3    0    0  0.21333344767E+03 -0.90231375651E+02  0.34676648665E+03  0.41701301815E+03  0.00000000000E+00 0.  1.
        -13    1    3    3    0    0  0.23712681421E+03 -0.13789559383E+03  0.26379251484E+03  0.38056643533E+03  0.00000000000E+00 0. -1.
         22    1    1    2    0    0 -0.45046026187E+03  0.22812696948E+03 -0.53238103735E+03  0.73374786587E+03  0.00000000000E+00 0.  1.
<mgrwt>
<rscale>  0 0.15293304E+04</rscale>
<asrwt>0</asrwt>
<pdfrwt beam="1">  1        2 0.12380810E+00 0.15293304E+04</pdfrwt>
<pdfrwt beam="2">  1       -2 0.11178072E+00 0.15293304E+04</pdfrwt>
<totfact> 0.20820615E+01</totfact>
</mgrwt>
</event>
<event>
 6    1  0.1885829E-005  0.3212245E+04  0.7818608E-02  0.8185591E-01
         -2   -1    0    0    0  501 -0.00000000000E+00  0.00000000000E+00  0.11132400434E+04  0.11132400434E+04  0.00000000000E+00 0.  1.
          2   -1    0    0  501    0  0.00000000000E+00 -0.00000000000E+00 -0.23172267940E+04  0.23172267940E+04  0.00000000000E+00 0. -1.
         23    2    1    2    0    0 -0.53374585848E+03 -0.15116016798E+04 -0.51981675563E+03  0.16875058906E+04  0.87420773510E+02 0.  0.
         11    1    3    3    0    0 -0.19752620329E+03 -0.44330253936E+03 -0.14581503309E+03  0.50675020105E+03  0.00000000000E+00 0. -1.
        -11    1    3    3    0    0 -0.33621965519E+03 -0.10682991404E+04 -0.37400172254E+03  0.11807556896E+04  0.00000000000E+00 0.  1.
         22    1    1    2    0    0  0.53374585848E+03  0.15116016798E+04 -0.68416999496E+03  0.17429609467E+04  0.00000000000E+00 0.  1.
<mgrwt>
<rscale>  0 0.32122451E+04</rscale>
<asrwt>0</asrwt>
<pdfrwt beam="1">  1        2 0.35649642E+00 0.32122451E+04</pdfrwt>
<pdfrwt beam="2">  1       -2 0.17126770E+00 0.32122451E+04</pdfrwt>
<totfact> 0.77835848E-01</totfact>
</mgrwt>
</event>
<event>
 6    1  0.1885829E-005  0.1381731E+04  0.7818608E-02  0.8967150E-01
         -2   -1    0    0    0  501 -0.00000000000E+00  0.00000000000E+00  0.48250217676E+03  0.48250217676E+03  0.00000000000E+00 0.  1.
          2   -1    0    0  501    0  0.00000000000E+00 -0.00000000000E+00 -0.98920848760E+03  0.98920848760E+03  0.00000000000E+00 0. -1.
         23    2    1    2    0    0 -0.22951348233E+03 -0.12043748956E+02 -0.94509398880E+03  0.97673061765E+03  0.89322792839E+02 0.  0.
         11    1    3    3    0    0 -0.13892129138E+03 -0.35030832736E+02 -0.43039384069E+03  0.45361342853E+03  0.00000000000E+00 0.  1.
        -11    1    3    3    0    0 -0.90592190953E+02  0.22987083780E+02 -0.51470014812E+03  0.52311718912E+03  0.00000000000E+00 0. -1.
         22    1    1    2    0    0  0.22951348233E+03  0.12043748956E+02  0.43838767796E+03  0.49498004672E+03  0.00000000000E+00 0.  1.
<mgrwt>
<rscale>  0 0.13817312E+04</rscale>
<asrwt>0</asrwt>
<pdfrwt beam="1">  1        2 0.15218592E+00 0.13817312E+04</pdfrwt>
<pdfrwt beam="2">  1       -2 0.74231105E-01 0.13817312E+04</pdfrwt>
<totfact> 0.40763488E+01</totfact>
</mgrwt>
</event>
<event>
 6    1  0.1885829E-005  0.3073818E+04  0.7818608E-02  0.8222960E-01
         -2   -1    0    0    0  501 -0.00000000000E+00  0.00000000000E+00  0.12252582217E+04  0.12252582217E+04  0.00000000000E+00 0.  1.
          2   -1    0    0  501    0  0.00000000000E+00 -0.00000000000E+00 -0.19278298640E+04  0.19278298640E+04  0.00000000000E+00 0. -1.
         23    2    1    2    0    0 -0.76219966539E+03  0.13070094105E+04 -0.62418641057E+03  0.16380414945E+04  0.65949476697E+02 0.  0.
         13    1    3    3    0    0 -0.55879195416E+03  0.96975774604E+03 -0.49211125479E+03  0.12226414115E+04  0.00000000000E+00 0. -1.
        -13    1    3    3    0    0 -0.20340771123E+03  0.33725166449E+03 -0.13207515578E+03  0.41540008301E+03  0.00000000000E+00 0.  1.
         22    1    1    2    0    0  0.76219966539E+03 -0.13070094105E+04 -0.78385231718E+02  0.15150465913E+04  0.00000000000E+00 0. -1.
<mgrwt>
<rscale>  0 0.30738181E+04</rscale>
<asrwt>0</asrwt>
<pdfrwt beam="1">  1        2 0.29658921E+00 0.30738181E+04</pdfrwt>
<pdfrwt beam="2">  1       -2 0.18850127E+00 0.30738181E+04</pdfrwt>
<totfact> 0.98923005E-01</totfact>
</mgrwt>
</event>
<event>
 6    1  0.1885829E-005  0.1305485E+04  0.7818608E-02  0.9025227E-01
          2   -1    0    0  501    0  0.00000000000E+00  0.00000000000E+00  0.48440485023E+04  0.48440485023E+04  0.00000000000E+00 0. -1.
         -2   -1    0    0    0  501 -0.00000000000E+00 -0.00000000000E+00 -0.87957991235E+02  0.87957991235E+02  0.00000000000E+00 0.  1.
         23    2    1    2    0    0 -0.39384112684E+03 -0.23786709053E+03  0.41203606778E+04  0.41472492018E+04  0.10301573268E+03 0.  0.
         11    1    3    3    0    0 -0.19760144568E+03 -0.59902533700E+02  0.18454881672E+04  0.18570032903E+04  0.00000000000E+00 0.  1.
        -11    1    3    3    0    0 -0.19623968115E+03 -0.17796455683E+03  0.22748725106E+04  0.22902459115E+04  0.00000000000E+00 0. -1.
         22    1    1    2    0    0  0.39384112684E+03  0.23786709053E+03  0.63572983327E+03  0.78475729169E+03  0.00000000000E+00 0.  1.
<mgrwt>
<rscale>  0 0.13054850E+04</rscale>
<asrwt>0</asrwt>
<pdfrwt beam="1">  1        2 0.74523803E+00 0.13054850E+04</pdfrwt>
<pdfrwt beam="2">  1       -2 0.13532002E-01 0.13054850E+04</pdfrwt>
<totfact> 0.23074158E+00</totfact>
</mgrwt>
</event>
<event>
 6    1  0.1885829E-005  0.1981681E+04  0.7818608E-02  0.8615234E-01
         -1   -1    0    0    0  501 -0.00000000000E+00  0.00000000000E+00  0.46978401823E+03  0.46978401823E+03  0.00000000000E+00 0.  1.
          1   -1    0    0  501    0  0.00000000000E+00 -0.00000000000E+00 -0.20898221648E+04  0.20898221648E+04  0.00000000000E+00 0. -1.
         23    2    1    2    0    0 -0.77173039674E+03 -0.22812757624E+02 -0.13912405415E+02  0.77754891023E+03  0.91107220442E+02 0.  0.
         13    1    3    3    0    0 -0.49600029750E+03 -0.47113908553E+02  0.20284182069E+02  0.49864562923E+03  0.00000000000E+00 0. -1.
        -13    1    3    3    0    0 -0.27573009923E+03  0.24301150929E+02 -0.34196587484E+02  0.27890328100E+03  0.00000000000E+00 0.  1.
         22    1    1    2    0    0  0.77173039674E+03  0.22812757624E+02 -0.16061257412E+04  0.17820572728E+04  0.00000000000E+00 0. -1.
<mgrwt>
<rscale>  0 0.19816812E+04</rscale>
<asrwt>0</asrwt>
<pdfrwt beam="1">  1        1 0.32151110E+00 0.19816812E+04</pdfrwt>
<pdfrwt beam="2">  1       -1 0.72274464E-01 0.19816812E+04</pdfrwt>
<totfact> 0.46464524E+00</totfact>
</mgrwt>
</event>
<event>
 6    1  0.1885829E-005  0.1898552E+04  0.7818608E-02  0.8655577E-01
         -2   -1    0    0    0  501 -0.00000000000E+00  0.00000000000E+00  0.35353935255E+03  0.35353935255E+03  0.00000000000E+00 0.  1.
          2   -1    0    0  501    0  0.00000000000E+00 -0.00000000000E+00 -0.25488686945E+04  0.25488686945E+04  0.00000000000E+00 0. -1.
         23    2    1    2    0    0 -0.23326999603E+03  0.56399986629E+03  0.71303274737E+01  0.61694543837E+03  0.89778015913E+02 0.  0.
         13    1    3    3    0    0 -0.33684421699E+02  0.36236227832E+02  0.17866430823E+02  0.52601462176E+02  0.00000000000E+00 0. -1.
        -13    1    3    3    0    0 -0.19958557433E+03  0.52776363845E+03 -0.10736103349E+02  0.56434397620E+03  0.00000000000E+00 0.  1.
         22    1    1    2    0    0  0.23326999603E+03 -0.56399986629E+03 -0.22024596694E+04  0.22854626087E+04  0.00000000000E+00 0. -1.
<mgrwt>
<rscale>  0 0.18985525E+04</rscale>
<asrwt>0</asrwt>
<pdfrwt beam="1">  1        2 0.39213365E+00 0.18985525E+04</pdfrwt>
<pdfrwt beam="2">  1       -2 0.54390669E-01 0.18985525E+04</pdfrwt>
<totfact> 0.97269900E+00</totfact>
</mgrwt>
</event>
<event>
 6    1  0.1885829E-005  0.1220594E+04  0.7818608E-02  0.9095019E-01
          2   -1    0    0  501    0  0.00000000000E+00  0.00000000000E+00  0.41699902313E+04  0.41699902313E+04  0.00000000000E+00 0. -1.
         -2   -1    0    0    0  501 -0.00000000000E+00 -0.00000000000E+00 -0.89319775186E+02  0.89319775186E+02  0.00000000000E+00 0.  1.
         23    2    1    2    0    0  0.59785593938E+03  0.17252544749E+01  0.24157547210E+04  0.24903048890E+04  0.91174926729E+02 0.  0.
         11    1    3    3    0    0  0.49950078548E+03 -0.27511486059E+02  0.19251924539E+04  0.19891264166E+04  0.00000000000E+00 0. -1.
        -11    1    3    3    0    0  0.98355153904E+02  0.29236740534E+02  0.49056226710E+03  0.50117847240E+03  0.00000000000E+00 0.  1.
         22    1    1    2    0    0 -0.59785593938E+03 -0.17252544749E+01  0.16649157351E+04  0.17690051175E+04  0.00000000000E+00 0. -1.
<mgrwt>
<rscale>  0 0.12205943E+04</rscale>
<asrwt>0</asrwt>
<pdfrwt beam="1">  1        2 0.64153681E+00 0.12205943E+04</pdfrwt>
<pdfrwt beam="2">  1       -2 0.13741507E-01 0.12205943E+04</pdfrwt>
<totfact> 0.10348027E+01</totfact>
</mgrwt>
</event>
<event>
 6    1  0.1885829E-005  0.2825854E+04  0.7818608E-02  0.8295286E-01
          2   -1    0    0  501    0  0.00000000000E+00  0.00000000000E+00  0.27786882895E+04  0.27786882895E+04  0.00000000000E+00 0. -1.
         -2   -1    0    0    0  501 -0.00000000000E+00 -0.00000000000E+00 -0.71845509806E+03  0.71845509806E+03  0.00000000000E+00 0.  1.
         23    2    1    2    0    0  0.46193679800E+03 -0.88042088920E+03  0.22710470816E+04  0.24807925408E+04  0.90278656676E+02 0.  0.
         13    1    3    3    0    0  0.30627470377E+03 -0.58486825758E+03  0.16109982033E+04  0.17410313851E+04  0.00000000000E+00 0. -1.
        -13    1    3    3    0    0  0.15566209422E+03 -0.29555263161E+03  0.66004887836E+03  0.73976115568E+03  0.00000000000E+00 0.  1.
         22    1    1    2    0    0 -0.46193679800E+03  0.88042088920E+03 -0.21081389019E+03  0.10163508468E+04  0.00000000000E+00 0.  1.
<mgrwt>
<rscale>  0 0.28258540E+04</rscale>
<asrwt>0</asrwt>
<pdfrwt beam="1">  1        2 0.42749050E+00 0.28258540E+04</pdfrwt>
<pdfrwt beam="2">  1       -2 0.11053155E+00 0.28258540E+04</pdfrwt>
<totfact> 0.13426497E+00</totfact>
</mgrwt>
</event>
<event>
 6    1  0.1885829E-005  0.9879935E+03  0.7818608E-02  0.9321812E-01
          2   -1    0    0  501    0  0.00000000000E+00  0.00000000000E+00  0.21899744579E+04  0.21899744579E+04  0.00000000000E+00 0.  1.
         -2   -1    0    0    0  501 -0.00000000000E+00 -0.00000000000E+00 -0.11143180408E+03  0.11143180408E+03  0.00000000000E+00 0. -1.
         23    2    1    2    0    0  0.14359499622E+03 -0.43189940068E+03  0.14610389350E+04  0.15342899357E+04  0.11069878999E+03 0.  0.
         13    1    3    3    0    0  0.88869824667E+02 -0.35804766155E+03  0.12663814975E+04  0.13190216340E+04  0.00000000000E+00 0. -1.
        -13    1    3    3    0    0  0.54725171552E+02 -0.73851739124E+02  0.19465743744E+03  0.21526830171E+03  0.00000000000E+00 0.  1.
         22    1    1    2    0    0 -0.14359499622E+03  0.43189940068E+03  0.61750371888E+03  0.76711632630E+03  0.00000000000E+00 0. -1.
<mgrwt>
<rscale>  0 0.98799353E+03</rscale>
<asrwt>0</asrwt>
<pdfrwt beam="1">  1        2 0.33691911E+00 0.98799353E+03</pdfrwt>
<pdfrwt beam="2">  1       -2 0.17143356E-01 0.98799353E+03</pdfrwt>
<totfact> 0.14708692E+02</totfact>
</mgrwt>
</event>
<event>
 6    1  0.1885829E-005  0.8100309E+03  0.7818608E-02  0.9545610E-01
         -2   -1    0    0    0  501 -0.00000000000E+00  0.00000000000E+00  0.23646576098E+03  0.23646576098E+03  0.00000000000E+00 0.  1.
          2   -1    0    0  501    0  0.00000000000E+00 -0.00000000000E+00 -0.69370516035E+03  0.69370516035E+03  0.00000000000E+00 0. -1.
         23    2    1    2    0    0 -0.12849346781E+03 -0.23358150718E+03  0.11074455004E+03  0.30273434401E+03  0.91174754816E+02 0.  0.
         13    1    3    3    0    0 -0.34355448091E+02 -0.73459832302E+02  0.81007344063E+02  0.11462475111E+03  0.00000000000E+00 0.  1.
        -13    1    3    3    0    0 -0.94138019714E+02 -0.16012167488E+03  0.29737205976E+02  0.18810959290E+03  0.00000000000E+00 0. -1.
         22    1    1    2    0    0  0.12849346781E+03  0.23358150718E+03 -0.56798394941E+03  0.62743657731E+03  0.00000000000E+00 0. -1.
<mgrwt>
<rscale>  0 0.81003091E+03</rscale>
<asrwt>0</asrwt>
<pdfrwt beam="1">  1        2 0.10672387E+00 0.81003091E+03</pdfrwt>
<pdfrwt beam="2">  1       -2 0.36379349E-01 0.81003091E+03</pdfrwt>
<totfact> 0.29625956E+02</totfact>
</mgrwt>
</event>
<event>
 6    1  0.1885829E-005  0.1683661E+04  0.7818608E-02  0.8770738E-01
          2   -1    0    0  501    0  0.00000000000E+00  0.00000000000E+00  0.87525823337E+03  0.87525823337E+03  0.00000000000E+00 0. -1.
         -2   -1    0    0    0  501 -0.00000000000E+00 -0.00000000000E+00 -0.80967989474E+03  0.80967989474E+03  0.00000000000E+00 0.  1.
         23    2    1    2    0    0 -0.20225015274E+03 -0.48592523636E+03 -0.62142392676E+03  0.81948993656E+03  0.91474585278E+02 0.  0.
         11    1    3    3    0    0 -0.74745794079E+02 -0.29583197296E+03 -0.36616671450E+03  0.47663566040E+03  0.00000000000E+00 0. -1.
        -11    1    3    3    0    0 -0.12750435866E+03 -0.19009326341E+03 -0.25525721227E+03  0.34285427616E+03  0.00000000000E+00 0.  1.
         22    1    1    2    0    0  0.20225015274E+03  0.48592523636E+03  0.68700226539E+03  0.86544819155E+03  0.00000000000E+00 0. -1.
<mgrwt>
<rscale>  0 0.16836615E+04</rscale>
<asrwt>0</asrwt>
<pdfrwt beam="1">  1        2 0.13465511E+00 0.16836615E+04</pdfrwt>
<pdfrwt beam="2">  1       -2 0.12456614E+00 0.16836615E+04</pdfrwt>
<totfact> 0.14047589E+01</totfact>
</mgrwt>
</event>
<event>
 6    1  0.1885829E-005  0.2526727E+04  0.7818608E-02  0.8393525E-01
          2   -1    0    0  501    0  0.00000000000E+00  0.00000000000E+00  0.24189062318E+04  0.24189062318E+04  0.00000000000E+00 0. -1.
         -2   -1    0    0    0  501 -0.00000000000E+00 -0.00000000000E+00 -0.65983820729E+03  0.65983820729E+03  0.00000000000E+00 0.  1.
         23    2    1    2    0    0 -0.55220138297E+03  0.41039757710E+03 -0.40803240619E+03  0.80505210824E+03  0.90917071235E+02 0.  0.
         11    1    3    3    0    0 -0.19712455046E+03  0.13918061974E+03 -0.19401890807E+03  0.30963312160E+03  0.00000000000E+00 0.  1.
        -11    1    3    3    0    0 -0.35507683251E+03  0.27121695736E+03 -0.21401349812E+03  0.49541898664E+03  0.00000000000E+00 0. -1.
         22    1    1    2    0    0  0.55220138297E+03 -0.41039757710E+03  0.21671004307E+04  0.22736923309E+04  0.00000000000E+00 0. -1.
<mgrwt>
<rscale>  0 0.25267265E+04</rscale>
<asrwt>0</asrwt>
<pdfrwt beam="1">  1        2 0.37213942E+00 0.25267265E+04</pdfrwt>
<pdfrwt beam="2">  1       -2 0.10151357E+00 0.25267265E+04</pdfrwt>
<totfact> 0.27495427E+00</totfact>
</mgrwt>
</event>
<event>
 6    1  0.1885829E-005  0.1637162E+04  0.7818608E-02  0.8798038E-01
         -2   -1    0    0    0  501 -0.00000000000E+00  0.00000000000E+00  0.27477756966E+03  0.27477756966E+03  0.00000000000E+00 0.  1.
          2   -1    0    0  501    0  0.00000000000E+00 -0.00000000000E+00 -0.24386090124E+04  0.24386090124E+04  0.00000000000E+00 0. -1.
         23    2    1    2    0    0 -0.51671023379E+03 -0.18293955364E+03 -0.83506965176E+02  0.56205994997E+03  0.92095755277E+02 0.  0.
         13    1    3    3    0    0 -0.28091508993E+03 -0.88869000904E+02  0.55321958976E+00  0.29463756231E+03  0.00000000000E+00 0.  1.
        -13    1    3    3    0    0 -0.23579514386E+03 -0.94070552731E+02 -0.84060184765E+02  0.26742238766E+03  0.00000000000E+00 0. -1.
         22    1    1    2    0    0  0.51671023379E+03  0.18293955364E+03 -0.20803244776E+04  0.21513266321E+04  0.00000000000E+00 0. -1.
<mgrwt>
<rscale>  0 0.16371622E+04</rscale>
<asrwt>0</asrwt>
<pdfrwt beam="1">  1        2 0.37517062E+00 0.16371622E+04</pdfrwt>
<pdfrwt beam="2">  1       -2 0.42273472E-01 0.16371622E+04</pdfrwt>
<totfact> 0.19189375E+01</totfact>
</mgrwt>
</event>
<event>
 6    1  0.1885829E-005  0.4288351E+04  0.7818608E-02  0.7948776E-01
         -2   -1    0    0    0  501 -0.00000000000E+00  0.00000000000E+00  0.13422662494E+04  0.13422662494E+04  0.00000000000E+00 0.  1.
          2   -1    0    0  501    0  0.00000000000E+00 -0.00000000000E+00 -0.34251692797E+04  0.34251692797E+04  0.00000000000E+00 0. -1.
         23    2    1    2    0    0  0.21282709752E+04  0.96251811214E+02 -0.78231840868E+03  0.22713742091E+04  0.91197314884E+02 0.  0.
         13    1    3    3    0    0  0.54827320831E+03  0.51796963459E+02 -0.23368047441E+03  0.59824159041E+03  0.00000000000E+00 0. -1.
        -13    1    3    3    0    0  0.15799977669E+04  0.44454847755E+02 -0.54863793427E+03  0.16731326187E+04  0.00000000000E+00 0.  1.
         22    1    1    2    0    0 -0.21282709752E+04 -0.96251811214E+02 -0.13005846217E+04  0.24960613200E+04  0.00000000000E+00 0. -1.
<mgrwt>
<rscale>  0 0.42883513E+04</rscale>
<asrwt>0</asrwt>
<pdfrwt beam="1">  1        2 0.52694911E+00 0.42883513E+04</pdfrwt>
<pdfrwt beam="2">  1       -2 0.20650250E+00 0.42883513E+04</pdfrwt>
<totfact> 0.85046285E-02</totfact>
</mgrwt>
</event>
<event>
 6    1  0.1885829E-005  0.3408029E+04  0.7818608E-02  0.8135939E-01
          1   -1    0    0  501    0  0.00000000000E+00  0.00000000000E+00  0.22237222409E+04  0.22237222409E+04  0.00000000000E+00 0. -1.
         -1   -1    0    0    0  501 -0.00000000000E+00 -0.00000000000E+00 -0.13057678237E+04  0.13057678237E+04  0.00000000000E+00 0.  1.
         23    2    1    2    0    0 -0.96027310264E+02 -0.49893171852E+03  0.21425227094E+04  0.22036991284E+04  0.87932841022E+02 0.  0.
         11    1    3    3    0    0 -0.27946444923E+01 -0.16134450673E+03  0.55376707165E+03  0.57679964419E+03  0.00000000000E+00 0.  1.
        -11    1    3    3    0    0 -0.93232665772E+02 -0.33758721180E+03  0.15887556377E+04  0.16268994843E+04  0.00000000000E+00 0. -1.
         22    1    1    2    0    0  0.96027310264E+02  0.49893171852E+03 -0.12245682922E+04  0.13257909361E+04  0.00000000000E+00 0.  1.
<mgrwt>
<rscale>  0 0.34080287E+04</rscale>
<asrwt>0</asrwt>
<pdfrwt beam="1">  1        1 0.34211111E+00 0.34080287E+04</pdfrwt>
<pdfrwt beam="2">  1       -1 0.20088736E+00 0.34080287E+04</pdfrwt>
<totfact> 0.25606190E-01</totfact>
</mgrwt>
</event>
<event>
 6    1  0.1885829E-005  0.3086982E+04  0.7818608E-02  0.8219320E-01
         -2   -1    0    0    0  501 -0.00000000000E+00  0.00000000000E+00  0.11510799536E+04  0.11510799536E+04  0.00000000000E+00 0.  1.
          2   -1    0    0  501    0  0.00000000000E+00 -0.00000000000E+00 -0.20696777931E+04  0.20696777931E+04  0.00000000000E+00 0. -1.
         23    2    1    2    0    0 -0.82169734710E+03 -0.10844746338E+04 -0.12164362316E+04  0.18279262890E+04  0.10161520983E+03 0.  0.
         13    1    3    3    0    0 -0.56896393958E+03 -0.75528431847E+03 -0.78147643269E+03  0.12267354161E+04  0.00000000000E+00 0.  1.
        -13    1    3    3    0    0 -0.25273340752E+03 -0.32919031533E+03 -0.43495979892E+03  0.60119087290E+03  0.00000000000E+00 0. -1.
         22    1    1    2    0    0  0.82169734710E+03  0.10844746338E+04  0.29783839209E+03  0.13928314576E+04  0.00000000000E+00 0.  1.
<mgrwt>
<rscale>  0 0.30869821E+04</rscale>
<asrwt>0</asrwt>
<pdfrwt beam="1">  1        2 0.31841197E+00 0.30869821E+04</pdfrwt>
<pdfrwt beam="2">  1       -2 0.17708922E+00 0.30869821E+04</pdfrwt>
<totfact> 0.98652105E-01</totfact>
</mgrwt>
</event>
<event>
 6    1  0.1885829E-005  0.4678883E+04  0.7818608E-02  0.7880047E-01
          2   -1    0    0  501    0  0.00000000000E+00  0.00000000000E+00  0.24346615234E+04  0.24346615234E+04  0.00000000000E+00 0. -1.
         -2   -1    0    0    0  501 -0.00000000000E+00 -0.00000000000E+00 -0.22479456572E+04  0.22479456572E+04  0.00000000000E+00 0.  1.
         23    2    1    2    0    0  0.13331084245E+03  0.23219109965E+04  0.33851493536E+03  0.23519237156E+04  0.88940126751E+02 0.  0.
         13    1    3    3    0    0  0.10979536805E+03  0.17539327726E+04  0.29318472282E+03  0.17816544208E+04  0.00000000000E+00 0. -1.
        -13    1    3    3    0    0  0.23515474399E+02  0.56797822393E+03  0.45330212540E+02  0.57026929477E+03  0.00000000000E+00 0.  1.
         22    1    1    2    0    0 -0.13331084245E+03 -0.23219109965E+04 -0.15179906916E+03  0.23306834650E+04  0.00000000000E+00 0. -1.
<mgrwt>
<rscale>  0 0.46788831E+04</rscale>
<asrwt>0</asrwt>
<pdfrwt beam="1">  1        2 0.37456331E+00 0.46788831E+04</pdfrwt>
<pdfrwt beam="2">  1       -2 0.34583779E+00 0.46788831E+04</pdfrwt>
<totfact> 0.46869975E-02</totfact>
</mgrwt>
</event>
<event>
 6    1  0.1885829E-005  0.5466191E+04  0.7818608E-02  0.7760359E-01
         -2   -1    0    0    0  501 -0.00000000000E+00  0.00000000000E+00  0.17534575627E+04  0.17534575627E+04  0.00000000000E+00 0. -1.
          2   -1    0    0  501    0  0.00000000000E+00 -0.00000000000E+00 -0.42600461098E+04  0.42600461098E+04  0.00000000000E+00 0.  1.
         23    2    1    2    0    0  0.78161142374E+03 -0.21333195963E+04  0.41603570729E+03  0.23116525883E+04  0.93182948085E+02 0.  0.
         13    1    3    3    0    0  0.29161386173E+03 -0.74951964712E+03  0.18963753595E+03  0.82630547669E+03  0.00000000000E+00 0. -1.
        -13    1    3    3    0    0  0.48999756202E+03 -0.13837999491E+04  0.22639817134E+03  0.14853471116E+04  0.00000000000E+00 0.  1.
         22    1    1    2    0    0 -0.78161142374E+03  0.21333195963E+04 -0.29226242544E+04  0.37018510842E+04  0.00000000000E+00 0.  1.
<mgrwt>
<rscale>  0 0.54661907E+04</rscale>
<asrwt>0</asrwt>
<pdfrwt beam="1">  1        2 0.65539170E+00 0.54661907E+04</pdfrwt>
<pdfrwt beam="2">  1       -2 0.26976270E+00 0.54661907E+04</pdfrwt>
<totfact> 0.69740439E-03</totfact>
</mgrwt>
</event>
<event>
 6    1  0.1885829E-005  0.1860026E+04  0.7818608E-02  0.8675014E-01
         -2   -1    0    0    0  501 -0.00000000000E+00  0.00000000000E+00  0.45462022866E+03  0.45462022866E+03  0.00000000000E+00 0.  1.
          2   -1    0    0  501    0  0.00000000000E+00 -0.00000000000E+00 -0.19025198700E+04  0.19025198700E+04  0.00000000000E+00 0. -1.
         23    2    1    2    0    0  0.92003771251E+03 -0.11039907852E+03 -0.73652424872E+03  0.11889310856E+04  0.11149801962E+03 0.  0.
         11    1    3    3    0    0  0.39242072455E+03 -0.10124954761E+03 -0.30376522454E+03  0.50647685790E+03  0.00000000000E+00 0.  1.
        -11    1    3    3    0    0  0.52761698795E+03 -0.91495309117E+01 -0.43275902418E+03  0.68245422770E+03  0.00000000000E+00 0. -1.
         22    1    1    2    0    0 -0.92003771251E+03  0.11039907852E+03 -0.71137539261E+03  0.11682090131E+04  0.00000000000E+00 0. -1.
<mgrwt>
<rscale>  0 0.18600258E+04</rscale>
<asrwt>0</asrwt>
<pdfrwt beam="1">  1        2 0.29269537E+00 0.18600258E+04</pdfrwt>
<pdfrwt beam="2">  1       -2 0.69941573E-01 0.18600258E+04</pdfrwt>
<totfact> 0.13242667E+01</totfact>
</mgrwt>
</event>
<event>
 6    1  0.1885829E-005  0.4488083E+04  0.7818608E-02  0.7912727E-01
          2   -1    0    0  501    0  0.00000000000E+00  0.00000000000E+00  0.33239834586E+04  0.33239834586E+04  0.00000000000E+00 0. -1.
         -2   -1    0    0    0  501 -0.00000000000E+00 -0.00000000000E+00 -0.15149657656E+04  0.15149657656E+04  0.00000000000E+00 0.  1.
         23    2    1    2    0    0  0.14941957118E+04  0.16323102491E+04  0.13002808822E+04  0.25682949755E+04  0.91384540641E+02 0.  0.
         11    1    3    3    0    0  0.13538773996E+04  0.14370882789E+04  0.11567323351E+04  0.22882824191E+04  0.00000000000E+00 0.  1.
        -11    1    3    3    0    0  0.14031831217E+03  0.19522197014E+03  0.14354854716E+03  0.28001255641E+03  0.00000000000E+00 0. -1.
         22    1    1    2    0    0 -0.14941957118E+04 -0.16323102491E+04  0.50873681079E+03  0.22706542487E+04  0.00000000000E+00 0.  1.
<mgrwt>
<rscale>  0 0.44880825E+04</rscale>
<asrwt>0</asrwt>
<pdfrwt beam="1">  1        2 0.51138207E+00 0.44880825E+04</pdfrwt>
<pdfrwt beam="2">  1       -2 0.23307166E+00 0.44880825E+04</pdfrwt>
<totfact> 0.66507274E-02</totfact>
</mgrwt>
</event>
<event>
 6    1  0.1885829E-005  0.2764826E+04  0.7818608E-02  0.8314272E-01
         -2   -1    0    0    0  501 -0.00000000000E+00  0.00000000000E+00  0.66374147356E+03  0.66374147356E+03  0.00000000000E+00 0.  1.
          2   -1    0    0  501    0  0.00000000000E+00 -0.00000000000E+00 -0.28792327184E+04  0.28792327184E+04  0.00000000000E+00 0. -1.
         23    2    1    2    0    0  0.61991476257E+03  0.75171273085E+03 -0.23629348029E+04  0.25575271130E+04  0.90098328071E+02 0.  0.
         13    1    3    3    0    0  0.19981772314E+03  0.29237317052E+03 -0.78139698938E+03  0.85789885671E+03  0.00000000000E+00 0.  1.
        -13    1    3    3    0    0  0.42009703942E+03  0.45933956032E+03 -0.15815378135E+04  0.16996282563E+04  0.00000000000E+00 0. -1.
         22    1    1    2    0    0 -0.61991476257E+03 -0.75171273085E+03  0.14744355803E+03  0.98544707893E+03  0.00000000000E+00 0.  1.
<mgrwt>
<rscale>  0 0.27648263E+04</rscale>
<asrwt>0</asrwt>
<pdfrwt beam="1">  1        2 0.44295888E+00 0.27648263E+04</pdfrwt>
<pdfrwt beam="2">  1       -2 0.10211407E+00 0.27648263E+04</pdfrwt>
<totfact> 0.14183531E+00</totfact>
</mgrwt>
</event>
<event>
 6    1  0.1885829E-005  0.1401728E+04  0.7818608E-02  0.8952569E-01
          2   -1    0    0  501    0  0.00000000000E+00  0.00000000000E+00  0.62777576359E+03  0.62777576359E+03  0.00000000000E+00 0. -1.
         -2   -1    0    0    0  501 -0.00000000000E+00 -0.00000000000E+00 -0.78246168281E+03  0.78246168281E+03  0.00000000000E+00 0.  1.
         23    2    1    2    0    0 -0.25122032994E+03 -0.40665936043E+02  0.57692219327E+03  0.63563057656E+03  0.80135137401E+02 0.  0.
         13    1    3    3    0    0 -0.24104697702E+03 -0.18666085821E+02  0.50867870503E+03  0.56321052267E+03  0.00000000000E+00 0.  1.
        -13    1    3    3    0    0 -0.10173352918E+02 -0.21999850222E+02  0.68243488234E+02  0.72420053892E+02  0.00000000000E+00 0. -1.
         22    1    1    2    0    0  0.25122032994E+03  0.40665936043E+02 -0.73160811249E+03  0.77460686983E+03  0.00000000000E+00 0.  1.
<mgrwt>
<rscale>  0 0.14017282E+04</rscale>
<asrwt>0</asrwt>
<pdfrwt beam="1">  1        2 0.96580886E-01 0.14017282E+04</pdfrwt>
<pdfrwt beam="2">  1       -2 0.12037872E+00 0.14017282E+04</pdfrwt>
<totfact> 0.24059305E+01</totfact>
</mgrwt>
</event>
<event>
 6    1  0.1885829E-005  0.3033633E+04  0.7818608E-02  0.8234192E-01
          2   -1    0    0  501    0  0.00000000000E+00  0.00000000000E+00  0.42100715729E+04  0.42100715729E+04  0.00000000000E+00 0. -1.
         -2   -1    0    0    0  501 -0.00000000000E+00 -0.00000000000E+00 -0.54648290653E+03  0.54648290653E+03  0.00000000000E+00 0.  1.
         23    2    1    2    0    0  0.48941838226E+03  0.13425146773E+04  0.10441640242E+04  0.17727211283E+04  0.10191014368E+03 0.  0.
         11    1    3    3    0    0  0.69325612748E+02  0.15145290254E+03  0.86263462653E+02  0.18757773658E+03  0.00000000000E+00 0. -1.
        -11    1    3    3    0    0  0.42009276951E+03  0.11910617748E+04  0.95790056159E+03  0.15851433917E+04  0.00000000000E+00 0.  1.
         22    1    1    2    0    0 -0.48941838226E+03 -0.13425146773E+04  0.26194246421E+04  0.29838333512E+04  0.00000000000E+00 0. -1.
<mgrwt>
<rscale>  0 0.30336329E+04</rscale>
<asrwt>0</asrwt>
<pdfrwt beam="1">  1        2 0.64770330E+00 0.30336329E+04</pdfrwt>
<pdfrwt beam="2">  1       -2 0.84074296E-01 0.30336329E+04</pdfrwt>
<totfact> 0.24011318E-01</totfact>
</mgrwt>
</event>
<event>
 6    1  0.1885829E-005  0.1353108E+04  0.7818608E-02  0.8988479E-01
          2   -1    0    0  501    0  0.00000000000E+00  0.00000000000E+00  0.17071340141E+04  0.17071340141E+04  0.00000000000E+00 0. -1.
         -2   -1    0    0    0  501 -0.00000000000E+00 -0.00000000000E+00 -0.26812510400E+03  0.26812510400E+03  0.00000000000E+00 0.  1.
         23    2    1    2    0    0 -0.16706401468E+03 -0.27673726175E+03 -0.13977035224E+03  0.36372635200E+03  0.90924203217E+02 0.  0.
         13    1    3    3    0    0 -0.58132636951E+02 -0.13542700165E+03 -0.10747926219E+03  0.18240523034E+03  0.00000000000E+00 0.  1.
        -13    1    3    3    0    0 -0.10893137772E+03 -0.14131026010E+03 -0.32291090058E+02  0.18132112166E+03  0.00000000000E+00 0. -1.
         22    1    1    2    0    0  0.16706401468E+03  0.27673726175E+03  0.15787792623E+04  0.16115327661E+04  0.00000000000E+00 0. -1.
<mgrwt>
<rscale>  0 0.13531083E+04</rscale>
<asrwt>0</asrwt>
<pdfrwt beam="1">  1        2 0.26263599E+00 0.13531083E+04</pdfrwt>
<pdfrwt beam="2">  1       -2 0.41250017E-01 0.13531083E+04</pdfrwt>
<totfact> 0.52824247E+01</totfact>
</mgrwt>
</event>
<event>
 6    1  0.1885829E-005  0.2414864E+04  0.7818608E-02  0.8433959E-01
         -2   -1    0    0    0  501 -0.00000000000E+00  0.00000000000E+00  0.13287444625E+04  0.13287444625E+04  0.00000000000E+00 0.  1.
          2   -1    0    0  501    0  0.00000000000E+00 -0.00000000000E+00 -0.10971954680E+04  0.10971954680E+04  0.00000000000E+00 0. -1.
         23    2    1    2    0    0  0.94172097330E+03  0.44947109932E+03  0.72275110575E+03  0.12726220321E+04  0.91296304086E+02 0.  0.
         13    1    3    3    0    0  0.40229427935E+03  0.15264179109E+03  0.26409384575E+03  0.50486212271E+03  0.00000000000E+00 0. -1.
        -13    1    3    3    0    0  0.53942669395E+03  0.29682930824E+03  0.45865726000E+03  0.76775990943E+03  0.00000000000E+00 0.  1.
         22    1    1    2    0    0 -0.94172097330E+03 -0.44947109932E+03 -0.49120211124E+03  0.11533178984E+04  0.00000000000E+00 0. -1.
<mgrwt>
<rscale>  0 0.24148643E+04</rscale>
<asrwt>0</asrwt>
<pdfrwt beam="1">  1        2 0.16879930E+00 0.24148643E+04</pdfrwt>
<pdfrwt beam="2">  1       -2 0.20442222E+00 0.24148643E+04</pdfrwt>
<totfact> 0.24441941E+00</totfact>
</mgrwt>
</event>
<event>
 6    1  0.1885829E-005  0.1322545E+04  0.7818608E-02  0.9011876E-01
         -2   -1    0    0    0  501 -0.00000000000E+00  0.00000000000E+00  0.35344276851E+03  0.35344276851E+03  0.00000000000E+00 0.  1.
          2   -1    0    0  501    0  0.00000000000E+00 -0.00000000000E+00 -0.12372045215E+04  0.12372045215E+04  0.00000000000E+00 0. -1.
         23    2    1    2    0    0  0.38045429650E+03 -0.40971059053E+03 -0.26501263783E+02  0.56717096585E+03  0.91500534425E+02 0.  0.
         11    1    3    3    0    0  0.20155726974E+03 -0.23937632614E+03  0.28097864491E+02  0.31419078359E+03  0.00000000000E+00 0.  1.
        -11    1    3    3    0    0  0.17889702676E+03 -0.17033426439E+03 -0.54599128274E+02  0.25298018226E+03  0.00000000000E+00 0. -1.
         22    1    1    2    0    0 -0.38045429650E+03  0.40971059053E+03 -0.85726048918E+03  0.10234763241E+04  0.00000000000E+00 0. -1.
<mgrwt>
<rscale>  0 0.13225445E+04</rscale>
<asrwt>0</asrwt>
<pdfrwt beam="1">  1        2 0.19033916E+00 0.13225445E+04</pdfrwt>
<pdfrwt beam="2">  1       -2 0.54375811E-01 0.13225445E+04</pdfrwt>
<totfact> 0.56070378E+01</totfact>
</mgrwt>
</event>
<event>
 6    1  0.1885829E-005  0.3362277E+03  0.7818608E-02  0.1068414E+00
         -4   -1    0    0    0  501 -0.00000000000E+00  0.00000000000E+00  0.15822778939E+03  0.15822778939E+03  0.00000000000E+00 0.  1.
          4   -1    0    0  501    0  0.00000000000E+00 -0.00000000000E+00 -0.17861754324E+03  0.17861754324E+03  0.00000000000E+00 0. -1.
         23    2    1    2    0    0 -0.14145622242E+03  0.50576291251E+02 -0.51877151438E+02  0.18335500621E+03  0.91433010260E+02 0.  0.
         11    1    3    3    0    0 -0.78423481736E+02  0.44601789688E+02 -0.73583766077E+02  0.11642221764E+03  0.00000000000E+00 0. -1.
        -11    1    3    3    0    0 -0.63032740680E+02  0.59745015623E+01  0.21706614639E+02  0.66932788569E+02  0.00000000000E+00 0.  1.
         22    1    1    2    0    0  0.14145622242E+03 -0.50576291251E+02  0.31487397594E+02  0.15349032642E+03  0.00000000000E+00 0.  1.
<mgrwt>
<rscale>  0 0.33622766E+03</rscale>
<asrwt>0</asrwt>
<pdfrwt beam="1">  1        4 0.27479622E-01 0.33622766E+03</pdfrwt>
<pdfrwt beam="2">  1       -4 0.24342737E-01 0.33622766E+03</pdfrwt>
<totfact> 0.37895368E+02</totfact>
</mgrwt>
</event>
<event>
 6    1  0.1885829E-005  0.2695540E+04  0.7818608E-02  0.8336454E-01
          2   -1    0    0  501    0  0.00000000000E+00  0.00000000000E+00  0.11627632989E+04  0.11627632989E+04  0.00000000000E+00 0. -1.
         -2   -1    0    0    0  501 -0.00000000000E+00 -0.00000000000E+00 -0.15622128003E+04  0.15622128003E+04  0.00000000000E+00 0.  1.
         23    2    1    2    0    0 -0.11016553750E+04  0.77074697645E+03 -0.13047484398E+03  0.13538295595E+04  0.90196032361E+02 0.  0.
         11    1    3    3    0    0 -0.20937101732E+03  0.18194846505E+03 -0.48092142901E+01  0.27742493646E+03  0.00000000000E+00 0.  1.
        -11    1    3    3    0    0 -0.89228435769E+03  0.58879851140E+03 -0.12566562969E+03  0.10764046230E+04  0.00000000000E+00 0. -1.
         22    1    1    2    0    0  0.11016553750E+04 -0.77074697645E+03 -0.26897465747E+03  0.13711465397E+04  0.00000000000E+00 0. -1.
<mgrwt>
<rscale>  0 0.26955398E+04</rscale>
<asrwt>0</asrwt>
<pdfrwt beam="1">  1        2 0.17888666E+00 0.26955398E+04</pdfrwt>
<pdfrwt beam="2">  1       -2 0.24034043E+00 0.26955398E+04</pdfrwt>
<totfact> 0.12902138E+00</totfact>
</mgrwt>
</event>
<event>
 6    1  0.1885829E-005  0.6383545E+03  0.7818608E-02  0.9828880E-01
          2   -1    0    0  501    0  0.00000000000E+00  0.00000000000E+00  0.86371106610E+03  0.86371106610E+03  0.00000000000E+00 0. -1.
         -2   -1    0    0    0  501 -0.00000000000E+00 -0.00000000000E+00 -0.11794928579E+03  0.11794928579E+03  0.00000000000E+00 0.  1.
         23    2    1    2    0    0  0.22929780109E+03  0.14005496291E+03  0.15124893149E+03  0.32925066340E+03  0.11548543569E+03 0.  0.
         11    1    3    3    0    0  0.20445892038E+02  0.65632104169E+02  0.19973638300E+02  0.71585989033E+02  0.00000000000E+00 0. -1.
        -11    1    3    3    0    0  0.20885190905E+03  0.74422858737E+02  0.13127529319E+03  0.25766467437E+03  0.00000000000E+00 0.  1.
         22    1    1    2    0    0 -0.22929780109E+03 -0.14005496291E+03  0.59451284882E+03  0.65240968849E+03  0.00000000000E+00 0. -1.
<mgrwt>
<rscale>  0 0.63835446E+03</rscale>
<asrwt>0</asrwt>
<pdfrwt beam="1">  1        2 0.13287862E+00 0.63835446E+03</pdfrwt>
<pdfrwt beam="2">  1       -2 0.18146045E-01 0.63835446E+03</pdfrwt>
<totfact> 0.79005887E+02</totfact>
</mgrwt>
</event>
<event>
 6    1  0.1885829E-005  0.2532576E+04  0.7818608E-02  0.8391471E-01
          2   -1    0    0  501    0  0.00000000000E+00  0.00000000000E+00  0.16914662481E+04  0.16914662481E+04  0.00000000000E+00 0. -1.
         -2   -1    0    0    0  501 -0.00000000000E+00 -0.00000000000E+00 -0.94798505701E+03  0.94798505701E+03  0.00000000000E+00 0.  1.
         23    2    1    2    0    0  0.32811510155E+03 -0.70110676398E+03 -0.67002597499E+03  0.10278642851E+04  0.91432856033E+02 0.  0.
         13    1    3    3    0    0  0.29335681262E+03 -0.54214520907E+03 -0.54201331566E+03  0.82082768081E+03  0.00000000000E+00 0. -1.
        -13    1    3    3    0    0  0.34758288932E+02 -0.15896155491E+03 -0.12801265933E+03  0.20703660434E+03  0.00000000000E+00 0.  1.
         22    1    1    2    0    0 -0.32811510155E+03  0.70110676398E+03  0.14135071660E+04  0.16115870199E+04  0.00000000000E+00 0. -1.
<mgrwt>
<rscale>  0 0.25325755E+04</rscale>
<asrwt>0</asrwt>
<pdfrwt beam="1">  1        2 0.26022558E+00 0.25325755E+04</pdfrwt>
<pdfrwt beam="2">  1       -2 0.14584385E+00 0.25325755E+04</pdfrwt>
<totfact> 0.28465091E+00</totfact>
</mgrwt>
</event>
<event>
 6    1  0.1885829E-005  0.1112804E+04  0.7818608E-02  0.9192802E-01
         -2   -1    0    0    0  501 -0.00000000000E+00  0.00000000000E+00  0.57564937568E+03  0.57564937568E+03  0.00000000000E+00 0.  1.
          2   -1    0    0  501    0  0.00000000000E+00 -0.00000000000E+00 -0.53779773923E+03  0.53779773923E+03  0.00000000000E+00 0. -1.
         23    2    1    2    0    0 -0.36329558272E+03 -0.30735263207E+03  0.30010685218E+03  0.57009905055E+03  0.92192645325E+02 0.  0.
         11    1    3    3    0    0 -0.16733547394E+03 -0.15550950662E+03  0.91425286185E+02  0.24605477122E+03  0.00000000000E+00 0. -1.
        -11    1    3    3    0    0 -0.19596010878E+03 -0.15184312545E+03  0.20868156600E+03  0.32404427933E+03  0.00000000000E+00 0.  1.
         22    1    1    2    0    0  0.36329558272E+03  0.30735263207E+03 -0.26225521573E+03  0.54334806436E+03  0.00000000000E+00 0. -1.
<mgrwt>
<rscale>  0 0.11128035E+04</rscale>
<asrwt>0</asrwt>
<pdfrwt beam="1">  1        2 0.82738114E-01 0.11128035E+04</pdfrwt>
<pdfrwt beam="2">  1       -2 0.88561442E-01 0.11128035E+04</pdfrwt>
<totfact> 0.61548770E+01</totfact>
</mgrwt>
</event>
<event>
 6    1  0.1885829E-005  0.4119155E+04  0.7818608E-02  0.7980931E-01
          2   -1    0    0  501    0  0.00000000000E+00  0.00000000000E+00  0.22974252295E+04  0.22974252295E+04  0.00000000000E+00 0. -1.
         -2   -1    0    0    0  501 -0.00000000000E+00 -0.00000000000E+00 -0.18463537050E+04  0.18463537050E+04  0.00000000000E+00 0.  1.
         23    2    1    2    0    0  0.15974291040E+04  0.78817809954E+03  0.12637170715E+04  0.21858725926E+04  0.89742384329E+02 0.  0.
         11    1    3    3    0    0  0.46419326730E+03  0.26353519975E+03  0.41185491363E+03  0.67420372351E+03  0.00000000000E+00 0. -1.
        -11    1    3    3    0    0  0.11332358367E+04  0.52464289979E+03  0.85186215785E+03  0.15116688691E+04  0.00000000000E+00 0.  1.
         22    1    1    2    0    0 -0.15974291040E+04 -0.78817809954E+03 -0.81264554698E+03  0.19579063420E+04  0.00000000000E+00 0.  1.
<mgrwt>
<rscale>  0 0.41191551E+04</rscale>
<asrwt>0</asrwt>
<pdfrwt beam="1">  1        2 0.35345004E+00 0.41191551E+04</pdfrwt>
<pdfrwt beam="2">  1       -2 0.28405442E+00 0.41191551E+04</pdfrwt>
<totfact> 0.14139915E-01</totfact>
</mgrwt>
</event>
<event>
 6    1  0.1885829E-005  0.2921160E+04  0.7818608E-02  0.8266609E-01
          2   -1    0    0  501    0  0.00000000000E+00  0.00000000000E+00  0.16471287557E+04  0.16471287557E+04  0.00000000000E+00 0. -1.
         -2   -1    0    0    0  501 -0.00000000000E+00 -0.00000000000E+00 -0.12951594591E+04  0.12951594591E+04  0.00000000000E+00 0.  1.
         23    2    1    2    0    0 -0.25291507256E+03  0.13570884221E+04  0.65234386907E+03  0.15295320775E+04  0.90889126368E+02 0.  0.
         13    1    3    3    0    0 -0.13664856882E+03  0.73351716776E+03  0.40255736044E+03  0.84780463269E+03  0.00000000000E+00 0.  1.
        -13    1    3    3    0    0 -0.11626650373E+03  0.62357125437E+03  0.24978650863E+03  0.68172744485E+03  0.00000000000E+00 0. -1.
         22    1    1    2    0    0  0.25291507256E+03 -0.13570884221E+04 -0.30037457253E+03  0.14127561372E+04  0.00000000000E+00 0. -1.
<mgrwt>
<rscale>  0 0.29211603E+04</rscale>
<asrwt>0</asrwt>
<pdfrwt beam="1">  1        2 0.25340442E+00 0.29211603E+04</pdfrwt>
<pdfrwt beam="2">  1       -2 0.19925530E+00 0.29211603E+04</pdfrwt>
<totfact> 0.12164486E+00</totfact>
</mgrwt>
</event>
<event>
 6    1  0.1885829E-005  0.1283576E+04  0.7818608E-02  0.9042692E-01
         -2   -1    0    0    0  501 -0.00000000000E+00  0.00000000000E+00  0.61229017140E+03  0.61229017140E+03  0.00000000000E+00 0.  1.
          2   -1    0    0  501    0  0.00000000000E+00 -0.00000000000E+00 -0.67270726667E+03  0.67270726667E+03  0.00000000000E+00 0. -1.
         23    2    1    2    0    0  0.26444286205E+03 -0.38314510407E+03  0.40704810471E+03  0.62525967862E+03  0.92365080476E+02 0.  0.
         13    1    3    3    0    0  0.70635332042E+02 -0.89068566022E+02  0.51486614854E+02  0.12479355390E+03  0.00000000000E+00 0. -1.
        -13    1    3    3    0    0  0.19380753001E+03 -0.29407653804E+03  0.35556148986E+03  0.50046612472E+03  0.00000000000E+00 0.  1.
         22    1    1    2    0    0 -0.26444286205E+03  0.38314510407E+03 -0.46746519998E+03  0.65973775946E+03  0.00000000000E+00 0. -1.
<mgrwt>
<rscale>  0 0.12835763E+04</rscale>
<asrwt>0</asrwt>
<pdfrwt beam="1">  1        2 0.10349343E+00 0.12835763E+04</pdfrwt>
<pdfrwt beam="2">  1       -2 0.94198488E-01 0.12835763E+04</pdfrwt>
<totfact> 0.40200083E+01</totfact>
</mgrwt>
</event>
<event>
 6    1  0.1885829E-005  0.4020047E+04  0.7818608E-02  0.8000515E-01
         -2   -1    0    0    0  501 -0.00000000000E+00  0.00000000000E+00  0.99378261886E+03  0.99378261886E+03  0.00000000000E+00 0.  1.
          2   -1    0    0  501    0  0.00000000000E+00 -0.00000000000E+00 -0.40654701410E+04  0.40654701410E+04  0.00000000000E+00 0. -1.
         23    2    1    2    0    0 -0.49344253467E+03 -0.19105604898E+04 -0.10617637271E+04  0.22426021634E+04  0.90528067528E+02 0.  0.
         13    1    3    3    0    0 -0.33877324365E+03 -0.11972148806E+04 -0.70650771166E+03  0.14308193204E+04  0.00000000000E+00 0.  1.
        -13    1    3    3    0    0 -0.15466929103E+03 -0.71334560925E+03 -0.35525601540E+03  0.81178284307E+03  0.00000000000E+00 0. -1.
         22    1    1    2    0    0  0.49344253467E+03  0.19105604898E+04 -0.20099237951E+04  0.28166505965E+04  0.00000000000E+00 0. -1.
<mgrwt>
<rscale>  0 0.40200465E+04</rscale>
<asrwt>0</asrwt>
<pdfrwt beam="1">  1        2 0.62545693E+00 0.40200465E+04</pdfrwt>
<pdfrwt beam="2">  1       -2 0.15288964E+00 0.40200465E+04</pdfrwt>
<totfact> 0.67548471E-02</totfact>
</mgrwt>
</event>
<event>
 6    1  0.1885829E-005  0.4743098E+04  0.7818608E-02  0.7869407E-01
          2   -1    0    0  501    0  0.00000000000E+00  0.00000000000E+00  0.19288037050E+04  0.19288037050E+04  0.00000000000E+00 0. -1.
         -2   -1    0    0    0  501 -0.00000000000E+00 -0.00000000000E+00 -0.29159235289E+04  0.29159235289E+04  0.00000000000E+00 0.  1.
         23    2    1    2    0    0  0.41079345517E+03 -0.23040793865E+04 -0.10813075701E+03  0.23446962618E+04  0.91516213070E+02 0.  0.
         13    1    3    3    0    0  0.18477311541E+03 -0.80142348780E+03 -0.52397341130E+02  0.82411539988E+03  0.00000000000E+00 0. -1.
        -13    1    3    3    0    0  0.22602033976E+03 -0.15026558987E+04 -0.55733415883E+02  0.15205808619E+04  0.00000000000E+00 0.  1.
         22    1    1    2    0    0 -0.41079345517E+03  0.23040793865E+04 -0.87898906684E+03  0.25000309721E+04  0.00000000000E+00 0.  1.
<mgrwt>
<rscale>  0 0.47430978E+04</rscale>
<asrwt>0</asrwt>
<pdfrwt beam="1">  1        2 0.29673903E+00 0.47430978E+04</pdfrwt>
<pdfrwt beam="2">  1       -2 0.44860362E+00 0.47430978E+04</pdfrwt>
<totfact> 0.19318124E-02</totfact>
</mgrwt>
</event>
<event>
 6    1  0.1885829E-005  0.7897605E+03  0.7818608E-02  0.9574958E-01
         -2   -1    0    0    0  501 -0.00000000000E+00  0.00000000000E+00  0.38809214080E+03  0.38809214080E+03  0.00000000000E+00 0.  1.
          2   -1    0    0  501    0  0.00000000000E+00 -0.00000000000E+00 -0.40178711595E+03  0.40178711595E+03  0.00000000000E+00 0. -1.
         23    2    1    2    0    0  0.26669661186E+03  0.21239853465E+03  0.18163047678E+03  0.39695146126E+03  0.91326952223E+02 0.  0.
         13    1    3    3    0    0  0.10236046413E+03  0.11271271472E+03  0.12379283513E+03  0.19623069767E+03  0.00000000000E+00 0. -1.
        -13    1    3    3    0    0  0.16433614773E+03  0.99685819923E+02  0.57837641647E+02  0.20072076359E+03  0.00000000000E+00 0.  1.
         22    1    1    2    0    0 -0.26669661186E+03 -0.21239853465E+03 -0.19532545193E+03  0.39292779549E+03  0.00000000000E+00 0. -1.
<mgrwt>
<rscale>  0 0.78976053E+03</rscale>
<asrwt>0</asrwt>
<pdfrwt beam="1">  1        2 0.61813402E-01 0.78976053E+03</pdfrwt>
<pdfrwt beam="2">  1       -2 0.59706484E-01 0.78976053E+03</pdfrwt>
<totfact> 0.20869226E+02</totfact>
</mgrwt>
</event>
<event>
 6    1  0.1885829E-005  0.4566403E+04  0.7818608E-02  0.7899114E-01
         -2   -1    0    0    0  501 -0.00000000000E+00  0.00000000000E+00  0.31716968846E+04  0.31716968846E+04  0.00000000000E+00 0.  1.
          2   -1    0    0  501    0  0.00000000000E+00 -0.00000000000E+00 -0.16436026285E+04  0.16436026285E+04  0.00000000000E+00 0. -1.
         23    2    1    2    0    0  0.45698040854E+03 -0.17900874409E+04 -0.64923758016E+03  0.19597753816E+04  0.77239698339E+02 0.  0.
         11    1    3    3    0    0  0.36549331795E+03 -0.15390730884E+04 -0.56131976548E+03  0.16785145862E+04  0.00000000000E+00 0.  1.
        -11    1    3    3    0    0  0.91487090584E+02 -0.25101435252E+03 -0.87917814677E+02  0.28126079544E+03  0.00000000000E+00 0. -1.
         22    1    1    2    0    0 -0.45698040854E+03  0.17900874409E+04  0.21773318362E+04  0.28555241314E+04  0.00000000000E+00 0.  1.
<mgrwt>
<rscale>  0 0.45664031E+04</rscale>
<asrwt>0</asrwt>
<pdfrwt beam="1">  1        2 0.25286194E+00 0.45664031E+04</pdfrwt>
<pdfrwt beam="2">  1       -2 0.48795336E+00 0.45664031E+04</pdfrwt>
<totfact> 0.15660623E-02</totfact>
</mgrwt>
</event>
<event>
 6    1  0.1885829E-005  0.3578195E+04  0.7818608E-02  0.8095505E-01
         -1   -1    0    0    0  501 -0.00000000000E+00  0.00000000000E+00  0.15386832491E+04  0.15386832491E+04  0.00000000000E+00 0.  1.
          1   -1    0    0  501    0  0.00000000000E+00 -0.00000000000E+00 -0.20802652641E+04  0.20802652641E+04  0.00000000000E+00 0. -1.
         23    2    1    2    0    0 -0.65352794076E+03 -0.11137551084E+04 -0.15216542539E+04  0.19978097764E+04  0.90901173799E+02 0.  0.
         11    1    3    3    0    0 -0.28661289330E+03 -0.41606493087E+03 -0.55602709829E+03  0.75128098029E+03  0.00000000000E+00 0. -1.
        -11    1    3    3    0    0 -0.36691504746E+03 -0.69769017753E+03 -0.96562715559E+03  0.12465287961E+04  0.00000000000E+00 0.  1.
         22    1    1    2    0    0  0.65352794076E+03  0.11137551084E+04  0.98007223884E+03  0.16211387369E+04  0.00000000000E+00 0.  1.
<mgrwt>
<rscale>  0 0.35781947E+04</rscale>
<asrwt>0</asrwt>
<pdfrwt beam="1">  1        1 0.32004081E+00 0.35781947E+04</pdfrwt>
<pdfrwt beam="2">  1       -1 0.23672050E+00 0.35781947E+04</pdfrwt>
<totfact> 0.18154005E-01</totfact>
</mgrwt>
</event>
<event>
 6    1  0.1885829E-005  0.1953815E+04  0.7818608E-02  0.8628523E-01
          2   -1    0    0  501    0  0.00000000000E+00  0.00000000000E+00  0.93790045903E+03  0.93790045903E+03  0.00000000000E+00 0.  1.
         -2   -1    0    0    0  501 -0.00000000000E+00 -0.00000000000E+00 -0.10175367564E+04  0.10175367564E+04  0.00000000000E+00 0. -1.
         23    2    1    2    0    0 -0.64129997693E+03  0.37646191358E+03 -0.67090600409E+03  0.10053903225E+04  0.87781555259E+02 0.  0.
         13    1    3    3    0    0 -0.56468719349E+03  0.31133051189E+03 -0.61110183972E+03  0.88839392875E+03  0.00000000000E+00 0. -1.
        -13    1    3    3    0    0 -0.76612783434E+02  0.65131401689E+02 -0.59804164365E+02  0.11699639373E+03  0.00000000000E+00 0.  1.
         22    1    1    2    0    0  0.64129997693E+03 -0.37646191358E+03  0.59126970669E+03  0.95004689297E+03  0.00000000000E+00 0.  1.
<mgrwt>
<rscale>  0 0.19538149E+04</rscale>
<asrwt>0</asrwt>
<pdfrwt beam="1">  1        2 0.14429238E+00 0.19538149E+04</pdfrwt>
<pdfrwt beam="2">  1       -2 0.15654412E+00 0.19538149E+04</pdfrwt>
<totfact> 0.68913042E+00</totfact>
</mgrwt>
</event>
<event>
 6    1  0.1885829E-005  0.5797517E+03  0.7818608E-02  0.9948329E-01
         -1   -1    0    0    0  501 -0.00000000000E+00  0.00000000000E+00  0.17734268162E+03  0.17734268162E+03  0.00000000000E+00 0.  1.
          1   -1    0    0  501    0  0.00000000000E+00 -0.00000000000E+00 -0.47381709403E+03  0.47381709403E+03  0.00000000000E+00 0. -1.
         23    2    1    2    0    0 -0.27704854234E+03 -0.53763585889E+02 -0.15792550743E+03  0.33676795475E+03  0.93945577167E+02 0.  0.
         13    1    3    3    0    0 -0.11783045042E+03 -0.47763767632E+02 -0.25693969106E+02  0.12971342488E+03  0.00000000000E+00 0.  1.
        -13    1    3    3    0    0 -0.15921809192E+03 -0.59998182573E+01 -0.13223153833E+03  0.20705452987E+03  0.00000000000E+00 0. -1.
         22    1    1    2    0    0  0.27704854234E+03  0.53763585889E+02 -0.13854890498E+03  0.31439182090E+03  0.00000000000E+00 0.  1.
<mgrwt>
<rscale>  0 0.57975165E+03</rscale>
<asrwt>0</asrwt>
<pdfrwt beam="1">  1        1 0.72894938E-01 0.57975165E+03</pdfrwt>
<pdfrwt beam="2">  1       -1 0.27283489E-01 0.57975165E+03</pdfrwt>
<totfact> 0.58022482E+02</totfact>
</mgrwt>
</event>
<event>
 6    1  0.1885829E-005  0.1876302E+04  0.7818608E-02  0.8666743E-01
         -2   -1    0    0    0  501 -0.00000000000E+00  0.00000000000E+00  0.61153080134E+03  0.61153080134E+03  0.00000000000E+00 0.  1.
          2   -1    0    0  501    0  0.00000000000E+00 -0.00000000000E+00 -0.14392198864E+04  0.14392198864E+04  0.00000000000E+00 0. -1.
         23    2    1    2    0    0  0.77833087337E+03 -0.24421713377E+03  0.86794436237E+02  0.82530339487E+03  0.90285450466E+02 0.  0.
         13    1    3    3    0    0  0.35537306865E+03 -0.13142601787E+03  0.81346979623E+02  0.38753083386E+03  0.00000000000E+00 0.  1.
        -13    1    3    3    0    0  0.42295780472E+03 -0.11279111589E+03  0.54474566143E+01  0.43777256102E+03  0.00000000000E+00 0. -1.
         22    1    1    2    0    0 -0.77833087337E+03  0.24421713377E+03 -0.91448352130E+03  0.12254472929E+04  0.00000000000E+00 0. -1.
<mgrwt>
<rscale>  0 0.18763020E+04</rscale>
<asrwt>0</asrwt>
<pdfrwt beam="1">  1        2 0.22141844E+00 0.18763020E+04</pdfrwt>
<pdfrwt beam="2">  1       -2 0.94081661E-01 0.18763020E+04</pdfrwt>
<totfact> 0.12295800E+01</totfact>
</mgrwt>
</event>
<event>
 6    1  0.1885829E-005  0.3271427E+04  0.7818608E-02  0.8170204E-01
         -2   -1    0    0    0  501 -0.00000000000E+00  0.00000000000E+00  0.85349858994E+03  0.85349858994E+03  0.00000000000E+00 0.  1.
          2   -1    0    0  501    0  0.00000000000E+00 -0.00000000000E+00 -0.31348135955E+04  0.31348135955E+04  0.00000000000E+00 0. -1.
         23    2    1    2    0    0  0.18244567630E+03  0.24822009726E+03 -0.30984670309E+04  0.31150212408E+04  0.89217417453E+02 0.  0.
         11    1    3    3    0    0  0.16645183267E+03  0.25303593853E+03 -0.28674901485E+04  0.28834411994E+04  0.00000000000E+00 0. -1.
        -11    1    3    3    0    0  0.15993843627E+02 -0.48158412647E+01 -0.23097688235E+03  0.23158004133E+03  0.00000000000E+00 0.  1.
         22    1    1    2    0    0 -0.18244567630E+03 -0.24822009726E+03  0.81715202533E+03  0.87329094464E+03  0.00000000000E+00 0.  1.
<mgrwt>
<rscale>  0 0.32714272E+04</rscale>
<asrwt>0</asrwt>
<pdfrwt beam="1">  1        2 0.48227901E+00 0.32714272E+04</pdfrwt>
<pdfrwt beam="2">  1       -2 0.13130748E+00 0.32714272E+04</pdfrwt>
<totfact> 0.50619524E-01</totfact>
</mgrwt>
</event>
<event>
 6    1  0.1885829E-005  0.2793695E+04  0.7818608E-02  0.8305229E-01
         -2   -1    0    0    0  501 -0.00000000000E+00  0.00000000000E+00  0.68251336376E+03  0.68251336376E+03  0.00000000000E+00 0. -1.
          2   -1    0    0  501    0  0.00000000000E+00 -0.00000000000E+00 -0.28588192674E+04  0.28588192674E+04  0.00000000000E+00 0.  1.
         23    2    1    2    0    0 -0.95171911866E+03  0.96063362760E+03 -0.65325429295E+03  0.15046018055E+04  0.92190967947E+02 0.  0.
         13    1    3    3    0    0 -0.49263131436E+03  0.55416386282E+03 -0.33268304840E+03  0.81268764568E+03  0.00000000000E+00 0.  1.
        -13    1    3    3    0    0 -0.45908780430E+03  0.40646976478E+03 -0.32057124455E+03  0.69191415982E+03  0.00000000000E+00 0. -1.
         22    1    1    2    0    0  0.95171911866E+03 -0.96063362760E+03 -0.15230516107E+04  0.20367308256E+04  0.00000000000E+00 0.  1.
<mgrwt>
<rscale>  0 0.27936946E+04</rscale>
<asrwt>0</asrwt>
<pdfrwt beam="1">  1        2 0.43981836E+00 0.27936946E+04</pdfrwt>
<pdfrwt beam="2">  1       -2 0.10500205E+00 0.27936946E+04</pdfrwt>
<totfact> 0.13621884E+00</totfact>
</mgrwt>
</event>
<event>
 6    1  0.2619703E-005  0.3366748E+04  0.7818608E-02  0.8146116E-01
         -2   -1    0    0    0  501 -0.00000000000E+00  0.00000000000E+00  0.12115377987E+04  0.12115377987E+04  0.00000000000E+00 0.  1.
          2   -1    0    0  501    0  0.00000000000E+00 -0.00000000000E+00 -0.23389685124E+04  0.23389685124E+04  0.00000000000E+00 0. -1.
         23    2    1    2    0    0 -0.13202967487E+04 -0.10365993078E+04 -0.67207610402E+03  0.18112336326E+04  0.10563783652E+03 0.  0.
         13    1    3    3    0    0 -0.75348269252E+03 -0.54787746185E+03 -0.41533832140E+03  0.10200057854E+04  0.00000000000E+00 0.  1.
        -13    1    3    3    0    0 -0.56681405623E+03 -0.48872184594E+03 -0.25673778261E+03  0.79122784712E+03  0.00000000000E+00 0. -1.
         22    1    1    2    0    0  0.13202967487E+04  0.10365993078E+04 -0.45535460964E+03  0.17392726785E+04  0.00000000000E+00 0. -1.
<mgrwt>
<rscale>  0 0.33667484E+04</rscale>
<asrwt>0</asrwt>
<pdfrwt beam="1">  1        2 0.35984131E+00 0.33667484E+04</pdfrwt>
<pdfrwt beam="2">  1       -2 0.18639043E+00 0.33667484E+04</pdfrwt>
<totfact> 0.58666818E-01</totfact>
</mgrwt>
</event>
<event>
 6    1  0.1885829E-005  0.2526303E+04  0.7818608E-02  0.8393675E-01
         -2   -1    0    0    0  501 -0.00000000000E+00  0.00000000000E+00  0.56136441936E+03  0.56136441936E+03  0.00000000000E+00 0.  1.
          2   -1    0    0  501    0  0.00000000000E+00 -0.00000000000E+00 -0.28422733094E+04  0.28422733094E+04  0.00000000000E+00 0. -1.
         23    2    1    2    0    0  0.11539214690E+04 -0.10912380648E+03 -0.47058039211E+03  0.12540489234E+04  0.88034284285E+02 0.  0.
         13    1    3    3    0    0  0.56047667194E+03 -0.91293155351E+02 -0.25378151607E+03  0.62199163813E+03  0.00000000000E+00 0. -1.
        -13    1    3    3    0    0  0.59344479702E+03 -0.17830651125E+02 -0.21679887604E+03  0.63205728528E+03  0.00000000000E+00 0.  1.
         22    1    1    2    0    0 -0.11539214690E+04  0.10912380648E+03 -0.18103284979E+04  0.21495888053E+04  0.00000000000E+00 0. -1.
<mgrwt>
<rscale>  0 0.25263025E+04</rscale>
<asrwt>0</asrwt>
<pdfrwt beam="1">  1        2 0.43727281E+00 0.25263025E+04</pdfrwt>
<pdfrwt beam="2">  1       -2 0.86363758E-01 0.25263025E+04</pdfrwt>
<totfact> 0.22536302E+00</totfact>
</mgrwt>
</event>
<event>
 6    1  0.1885829E-005  0.1771491E+04  0.7818608E-02  0.8721609E-01
         -2   -1    0    0    0  501 -0.00000000000E+00  0.00000000000E+00  0.11893443161E+04  0.11893443161E+04  0.00000000000E+00 0.  1.
          2   -1    0    0  501    0  0.00000000000E+00 -0.00000000000E+00 -0.65964481428E+03  0.65964481428E+03  0.00000000000E+00 0. -1.
         23    2    1    2    0    0  0.73074208181E+02  0.21956456452E+03  0.11553638986E+04  0.11819026478E+04  0.92085246921E+02 0.  0.
         11    1    3    3    0    0  0.49980062281E+02  0.14994956936E+03  0.55478233346E+03  0.57685901007E+03  0.00000000000E+00 0.  1.
        -11    1    3    3    0    0  0.23094145901E+02  0.69614995159E+02  0.60058156514E+03  0.60504363770E+03  0.00000000000E+00 0. -1.
         22    1    1    2    0    0 -0.73074208181E+02 -0.21956456452E+03 -0.62566439679E+03  0.66708648262E+03  0.00000000000E+00 0. -1.
<mgrwt>
<rscale>  0 0.17714907E+04</rscale>
<asrwt>0</asrwt>
<pdfrwt beam="1">  1        2 0.10148382E+00 0.17714907E+04</pdfrwt>
<pdfrwt beam="2">  1       -2 0.18297605E+00 0.17714907E+04</pdfrwt>
<totfact> 0.72197273E+00</totfact>
</mgrwt>
</event>
<event>
 6    1  0.1885829E-005  0.2552058E+04  0.7818608E-02  0.8384671E-01
         -2   -1    0    0    0  501 -0.00000000000E+00  0.00000000000E+00  0.56343371015E+03  0.56343371015E+03  0.00000000000E+00 0.  1.
          2   -1    0    0  501    0  0.00000000000E+00 -0.00000000000E+00 -0.28898701836E+04  0.28898701836E+04  0.00000000000E+00 0. -1.
         23    2    1    2    0    0 -0.19157474526E+02 -0.11657458380E+04 -0.46801430583E+03  0.12594344080E+04  0.88358756909E+02 0.  0.
         11    1    3    3    0    0  0.27637034866E+02 -0.32343458966E+03 -0.10662552817E+03  0.34167637136E+03  0.00000000000E+00 0. -1.
        -11    1    3    3    0    0 -0.46794509392E+02 -0.84231124831E+03 -0.36138877766E+03  0.91775803661E+03  0.00000000000E+00 0.  1.
         22    1    1    2    0    0  0.19157474526E+02  0.11657458380E+04 -0.18584221676E+04  0.21938694858E+04  0.00000000000E+00 0. -1.
<mgrwt>
<rscale>  0 0.25520582E+04</rscale>
<asrwt>0</asrwt>
<pdfrwt beam="1">  1        2 0.44459541E+00 0.25520582E+04</pdfrwt>
<pdfrwt beam="2">  1       -2 0.86682109E-01 0.25520582E+04</pdfrwt>
<totfact> 0.20852237E+00</totfact>
</mgrwt>
</event>
<event>
 6    1  0.1885829E-005  0.3060856E+04  0.7818608E-02  0.8226563E-01
          2   -1    0    0  501    0  0.00000000000E+00  0.00000000000E+00  0.14266791839E+04  0.14266791839E+04  0.00000000000E+00 0. -1.
         -2   -1    0    0    0  501 -0.00000000000E+00 -0.00000000000E+00 -0.16417217792E+04  0.16417217792E+04  0.00000000000E+00 0.  1.
         23    2    1    2    0    0 -0.10860715334E+04  0.29564942467E+02 -0.11854789147E+04  0.16116332701E+04  0.10759218635E+03 0.  0.
         13    1    3    3    0    0 -0.35182058219E+03 -0.31779222982E+02 -0.42724237645E+03  0.55436782852E+03  0.00000000000E+00 0.  1.
        -13    1    3    3    0    0 -0.73425095120E+03  0.61344165449E+02 -0.75823653827E+03  0.10572654416E+04  0.00000000000E+00 0. -1.
         22    1    1    2    0    0  0.10860715334E+04 -0.29564942467E+02  0.97043631944E+03  0.14567676931E+04  0.00000000000E+00 0. -1.
<mgrwt>
<rscale>  0 0.30608563E+04</rscale>
<asrwt>0</asrwt>
<pdfrwt beam="1">  1        2 0.21948911E+00 0.30608563E+04</pdfrwt>
<pdfrwt beam="2">  1       -2 0.25257258E+00 0.30608563E+04</pdfrwt>
<totfact> 0.73735890E-01</totfact>
</mgrwt>
</event>
<event>
 6    1  0.1885829E-005  0.4927864E+03  0.7818608E-02  0.1015679E+00
         -2   -1    0    0    0  501 -0.00000000000E+00  0.00000000000E+00  0.56709898360E+02  0.56709898360E+02  0.00000000000E+00 0.  1.
          2   -1    0    0  501    0  0.00000000000E+00 -0.00000000000E+00 -0.10705294076E+04  0.10705294076E+04  0.00000000000E+00 0. -1.
         23    2    1    2    0    0  0.77091416764E+02 -0.16928502561E+03 -0.86426730539E+03  0.88856302287E+03  0.89363102118E+02 0.  0.
         11    1    3    3    0    0  0.36010905838E+02 -0.19000530193E+02 -0.31522721312E+03  0.31784587677E+03  0.00000000000E+00 0. -1.
        -11    1    3    3    0    0  0.41080510926E+02 -0.15028449542E+03 -0.54904009226E+03  0.57071714610E+03  0.00000000000E+00 0.  1.
         22    1    1    2    0    0 -0.77091416764E+02  0.16928502561E+03 -0.14955220387E+03  0.23867628311E+03  0.00000000000E+00 0.  1.
<mgrwt>
<rscale>  0 0.49278642E+03</rscale>
<asrwt>0</asrwt>
<pdfrwt beam="1">  1        2 0.16469683E+00 0.49278642E+03</pdfrwt>
<pdfrwt beam="2">  1       -2 0.87246001E-02 0.49278642E+03</pdfrwt>
<totfact> 0.19601653E+03</totfact>
</mgrwt>
</event>
<event>
 6    1  0.1885829E-005  0.2758025E+04  0.7818608E-02  0.8316420E-01
         -2   -1    0    0    0  501 -0.00000000000E+00  0.00000000000E+00  0.68878307001E+03  0.68878307001E+03  0.00000000000E+00 0. -1.
          2   -1    0    0  501    0  0.00000000000E+00 -0.00000000000E+00 -0.27609201525E+04  0.27609201525E+04  0.00000000000E+00 0.  1.
         23    2    1    2    0    0 -0.11044110359E+04 -0.82006341665E+03 -0.11254521109E+04  0.17798408991E+04  0.94675385404E+02 0.  0.
         11    1    3    3    0    0 -0.46129513361E+03 -0.29659556046E+03 -0.48445081689E+03  0.73174771661E+03  0.00000000000E+00 0. -1.
        -11    1    3    3    0    0 -0.64311590233E+03 -0.52346785619E+03 -0.64100129399E+03  0.10480931825E+04  0.00000000000E+00 0.  1.
         22    1    1    2    0    0  0.11044110359E+04  0.82006341665E+03 -0.94668497159E+03  0.16698623234E+04  0.00000000000E+00 0.  1.
<mgrwt>
<rscale>  0 0.27580247E+04</rscale>
<asrwt>0</asrwt>
<pdfrwt beam="1">  1        2 0.42475694E+00 0.27580247E+04</pdfrwt>
<pdfrwt beam="2">  1       -2 0.10596663E+00 0.27580247E+04</pdfrwt>
<totfact> 0.15323622E+00</totfact>
</mgrwt>
</event>
<event>
 6    1  0.1885829E-005  0.3731407E+04  0.7818608E-02  0.8061037E-01
         -2   -1    0    0    0  501 -0.00000000000E+00  0.00000000000E+00  0.99240606209E+03  0.99240606209E+03  0.00000000000E+00 0.  1.
          2   -1    0    0  501    0  0.00000000000E+00 -0.00000000000E+00 -0.35074847349E+04  0.35074847349E+04  0.00000000000E+00 0. -1.
         23    2    1    2    0    0  0.16318217715E+04 -0.64121820152E+03 -0.49296091949E+03  0.18235195066E+04  0.90608204860E+02 0.  0.
         11    1    3    3    0    0  0.52104902187E+03 -0.16101989994E+03 -0.14270172435E+03  0.56372269202E+03  0.00000000000E+00 0. -1.
        -11    1    3    3    0    0  0.11107727496E+04 -0.48019830158E+03 -0.35025919513E+03  0.12597968145E+04  0.00000000000E+00 0.  1.
         22    1    1    2    0    0 -0.16318217715E+04  0.64121820152E+03 -0.20221177533E+04  0.26763712904E+04  0.00000000000E+00 0.  1.
<mgrwt>
<rscale>  0 0.37314068E+04</rscale>
<asrwt>0</asrwt>
<pdfrwt beam="1">  1        2 0.53961303E+00 0.37314068E+04</pdfrwt>
<pdfrwt beam="2">  1       -2 0.15267786E+00 0.37314068E+04</pdfrwt>
<totfact> 0.18479542E-01</totfact>
</mgrwt>
</event>
<event>
 6    1  0.1885829E-005  0.1695606E+04  0.7818608E-02  0.8763875E-01
          1   -1    0    0  501    0  0.00000000000E+00  0.00000000000E+00  0.34362416250E+04  0.34362416250E+04  0.00000000000E+00 0. -1.
         -1   -1    0    0    0  501 -0.00000000000E+00 -0.00000000000E+00 -0.20917320004E+03  0.20917320004E+03  0.00000000000E+00 0.  1.
         23    2    1    2    0    0  0.49207196420E+03 -0.46128919994E+03  0.27134796659E+04  0.27976554503E+04  0.94771185975E+02 0.  0.
         11    1    3    3    0    0  0.44988221438E+03 -0.37880201064E+03  0.23733022829E+04  0.24450866439E+04  0.00000000000E+00 0. -1.
        -11    1    3    3    0    0  0.42189749818E+02 -0.82487189299E+02  0.34017738294E+03  0.35256880641E+03  0.00000000000E+00 0.  1.
         22    1    1    2    0    0 -0.49207196420E+03  0.46128919994E+03  0.51358875907E+03  0.84775937469E+03  0.00000000000E+00 0.  1.
<mgrwt>
<rscale>  0 0.16956057E+04</rscale>
<asrwt>0</asrwt>
<pdfrwt beam="1">  1        1 0.52865251E+00 0.16956057E+04</pdfrwt>
<pdfrwt beam="2">  1       -1 0.32180495E-01 0.16956057E+04</pdfrwt>
<totfact> 0.24243087E+00</totfact>
</mgrwt>
</event>
<event>
 6    1  0.1885829E-005  0.5399491E+04  0.7818608E-02  0.7769673E-01
         -2   -1    0    0    0  501 -0.00000000000E+00  0.00000000000E+00  0.23577795562E+04  0.23577795562E+04  0.00000000000E+00 0.  1.
          2   -1    0    0  501    0  0.00000000000E+00 -0.00000000000E+00 -0.30913097138E+04  0.30913097138E+04  0.00000000000E+00 0. -1.
         23    2    1    2    0    0 -0.59602389351E+03 -0.26306999293E+04 -0.46130592333E+03  0.27380133519E+04  0.89929754967E+02 0.  0.
         13    1    3    3    0    0 -0.13495751401E+03 -0.77896535481E+03 -0.12919231639E+03  0.80105630838E+03  0.00000000000E+00 0.  1.
        -13    1    3    3    0    0 -0.46106637949E+03 -0.18517345745E+04 -0.33211360694E+03  0.19369570436E+04  0.00000000000E+00 0. -1.
         22    1    1    2    0    0  0.59602389351E+03  0.26306999293E+04 -0.27222423423E+03  0.27110759180E+04  0.00000000000E+00 0.  1.
<mgrwt>
<rscale>  0 0.53994914E+04</rscale>
<asrwt>0</asrwt>
<pdfrwt beam="1">  1        2 0.47558611E+00 0.53994914E+04</pdfrwt>
<pdfrwt beam="2">  1       -2 0.36273531E+00 0.53994914E+04</pdfrwt>
<totfact> 0.13884108E-02</totfact>
</mgrwt>
</event>
<event>
 6    1  0.1885829E-005  0.3430643E+04  0.7818608E-02  0.8130426E-01
          2   -1    0    0  501    0  0.00000000000E+00  0.00000000000E+00  0.16736450348E+04  0.16736450348E+04  0.00000000000E+00 0. -1.
         -2   -1    0    0    0  501 -0.00000000000E+00 -0.00000000000E+00 -0.17580357035E+04  0.17580357035E+04  0.00000000000E+00 0.  1.
         23    2    1    2    0    0  0.33574976320E+03  0.10750656968E+04 -0.13345256558E+04  0.17490246113E+04  0.98154006494E+02 0.  0.
         13    1    3    3    0    0  0.26110244665E+03  0.73713079186E+03 -0.97713316682E+03  0.12515292716E+04  0.00000000000E+00 0.  1.
        -13    1    3    3    0    0  0.74647316547E+02  0.33793490491E+03 -0.35739248899E+03  0.49749533968E+03  0.00000000000E+00 0. -1.
         22    1    1    2    0    0 -0.33574976320E+03 -0.10750656968E+04  0.12501349871E+04  0.16826561270E+04  0.00000000000E+00 0. -1.
<mgrwt>
<rscale>  0 0.34306429E+04</rscale>
<asrwt>0</asrwt>
<pdfrwt beam="1">  1        2 0.25748385E+00 0.34306429E+04</pdfrwt>
<pdfrwt beam="2">  1       -2 0.27046703E+00 0.34306429E+04</pdfrwt>
<totfact> 0.40362948E-01</totfact>
</mgrwt>
</event>
<event>
 6    1  0.1885829E-005  0.4855034E+04  0.7818608E-02  0.7851267E-01
         -2   -1    0    0    0  501 -0.00000000000E+00  0.00000000000E+00  0.15503816792E+04  0.15503816792E+04  0.00000000000E+00 0. -1.
          2   -1    0    0  501    0  0.00000000000E+00 -0.00000000000E+00 -0.38008948816E+04  0.38008948816E+04  0.00000000000E+00 0.  1.
         23    2    1    2    0    0  0.32300907519E+03  0.21095921938E+04 -0.23981966839E+04  0.32119952568E+04  0.10417345183E+03 0.  0.
         13    1    3    3    0    0  0.64305679993E+02  0.68005478111E+03 -0.81015850484E+03  0.10597011507E+04  0.00000000000E+00 0.  1.
        -13    1    3    3    0    0  0.25870339520E+03  0.14295374127E+04 -0.15880381791E+04  0.21522941061E+04  0.00000000000E+00 0. -1.
         22    1    1    2    0    0 -0.32300907519E+03 -0.21095921938E+04  0.14768348160E+03  0.21392813040E+04  0.00000000000E+00 0. -1.
<mgrwt>
<rscale>  0 0.48550336E+04</rscale>
<asrwt>0</asrwt>
<pdfrwt beam="1">  1        2 0.58475306E+00 0.48550336E+04</pdfrwt>
<pdfrwt beam="2">  1       -2 0.23852026E+00 0.48550336E+04</pdfrwt>
<totfact> 0.27229513E-02</totfact>
</mgrwt>
</event>
<event>
 6    1  0.1885829E-005  0.1817523E+04  0.7818608E-02  0.8697036E-01
         -2   -1    0    0    0  501 -0.00000000000E+00  0.00000000000E+00  0.39092286334E+03  0.39092286334E+03  0.00000000000E+00 0.  1.
          2   -1    0    0  501    0  0.00000000000E+00 -0.00000000000E+00 -0.21125582723E+04  0.21125582723E+04  0.00000000000E+00 0. -1.
         23    2    1    2    0    0 -0.28766507178E+03  0.25409345285E+03 -0.19940918651E+04  0.20327931320E+04  0.92362734044E+02 0.  0.
         11    1    3    3    0    0 -0.22468651104E+03  0.22056675443E+03 -0.17645011022E+04  0.17923721324E+04  0.00000000000E+00 0.  1.
        -11    1    3    3    0    0 -0.62978560735E+02  0.33526698413E+02 -0.22959076296E+03  0.24042099961E+03  0.00000000000E+00 0. -1.
         22    1    1    2    0    0  0.28766507178E+03 -0.25409345285E+03  0.27245645615E+03  0.47068800367E+03  0.00000000000E+00 0.  1.
<mgrwt>
<rscale>  0 0.18175229E+04</rscale>
<asrwt>0</asrwt>
<pdfrwt beam="1">  1        2 0.32500897E+00 0.18175229E+04</pdfrwt>
<pdfrwt beam="2">  1       -2 0.60141979E-01 0.18175229E+04</pdfrwt>
<totfact> 0.14047770E+01</totfact>
</mgrwt>
</event>
<event>
 6    1  0.1885829E-005  0.4007580E+04  0.7818608E-02  0.8003019E-01
          2   -1    0    0  501    0  0.00000000000E+00  0.00000000000E+00  0.38679350300E+04  0.38679350300E+04  0.00000000000E+00 0. -1.
         -2   -1    0    0    0  501 -0.00000000000E+00 -0.00000000000E+00 -0.10380668066E+04  0.10380668066E+04  0.00000000000E+00 0.  1.
         23    2    1    2    0    0  0.10879301450E+04 -0.72397137816E+03  0.32735571993E+04  0.35259342787E+04  0.91155053527E+02 0.  0.
         13    1    3    3    0    0  0.44876208528E+03 -0.34477408650E+03  0.14793215397E+04  0.15838714588E+04  0.00000000000E+00 0. -1.
        -13    1    3    3    0    0  0.63916805972E+03 -0.37919729166E+03  0.17942356596E+04  0.19420628200E+04  0.00000000000E+00 0.  1.
         22    1    1    2    0    0 -0.10879301450E+04  0.72397137816E+03 -0.44368897596E+03  0.13800675578E+04  0.00000000000E+00 0.  1.
<mgrwt>
<rscale>  0 0.40075803E+04</rscale>
<asrwt>0</asrwt>
<pdfrwt beam="1">  1        2 0.59506692E+00 0.40075803E+04</pdfrwt>
<pdfrwt beam="2">  1       -2 0.15970259E+00 0.40075803E+04</pdfrwt>
<totfact> 0.86648950E-02</totfact>
</mgrwt>
</event>
<event>
 6    1  0.1885829E-005  0.1519034E+04  0.7818608E-02  0.8871893E-01
          2   -1    0    0  501    0  0.00000000000E+00  0.00000000000E+00  0.22867302898E+04  0.22867302898E+04  0.00000000000E+00 0. -1.
         -2   -1    0    0    0  501 -0.00000000000E+00 -0.00000000000E+00 -0.25226679921E+03  0.25226679921E+03  0.00000000000E+00 0.  1.
         23    2    1    2    0    0 -0.72314234899E+03 -0.16230511090E+03  0.12770822317E+04  0.14793253581E+04  0.90480289282E+02 0.  0.
         13    1    3    3    0    0 -0.41588369316E+03 -0.99885898342E+02  0.64780940784E+03  0.77626894039E+03  0.00000000000E+00 0.  1.
        -13    1    3    3    0    0 -0.30725865583E+03 -0.62419212556E+02  0.62927282382E+03  0.70305641771E+03  0.00000000000E+00 0. -1.
         22    1    1    2    0    0  0.72314234899E+03  0.16230511090E+03  0.75738125895E+03  0.10596717309E+04  0.00000000000E+00 0.  1.
<mgrwt>
<rscale>  0 0.15190341E+04</rscale>
<asrwt>0</asrwt>
<pdfrwt beam="1">  1        2 0.35180465E+00 0.15190341E+04</pdfrwt>
<pdfrwt beam="2">  1       -2 0.38810278E-01 0.15190341E+04</pdfrwt>
<totfact> 0.27961968E+01</totfact>
</mgrwt>
</event>
<event>
 6    1  0.1885829E-005  0.2466509E+04  0.7818608E-02  0.8415015E-01
         -2   -1    0    0    0  501 -0.00000000000E+00  0.00000000000E+00  0.10031407266E+04  0.10031407266E+04  0.00000000000E+00 0.  1.
          2   -1    0    0  501    0  0.00000000000E+00 -0.00000000000E+00 -0.15161548683E+04  0.15161548683E+04  0.00000000000E+00 0. -1.
         23    2    1    2    0    0 -0.11742589267E+04  0.34830527237E+03 -0.12555852654E+03  0.12346468322E+04  0.91582024100E+02 0.  0.
         11    1    3    3    0    0 -0.70752054720E+03  0.16639481398E+03 -0.91405954171E+02  0.73254870643E+03  0.00000000000E+00 0. -1.
        -11    1    3    3    0    0 -0.46673837947E+03  0.18191045839E+03 -0.34152572367E+02  0.50209812581E+03  0.00000000000E+00 0.  1.
         22    1    1    2    0    0  0.11742589267E+04 -0.34830527237E+03 -0.38745561516E+03  0.12846487626E+04  0.00000000000E+00 0. -1.
<mgrwt>
<rscale>  0 0.24665090E+04</rscale>
<asrwt>0</asrwt>
<pdfrwt beam="1">  1        2 0.23325460E+00 0.24665090E+04</pdfrwt>
<pdfrwt beam="2">  1       -2 0.15432934E+00 0.24665090E+04</pdfrwt>
<totfact> 0.30879513E+00</totfact>
</mgrwt>
</event>
<event>
 6    1  0.1885829E-005  0.1277707E+04  0.7818608E-02  0.9047433E-01
          2   -1    0    0  501    0  0.00000000000E+00  0.00000000000E+00  0.13828996222E+04  0.13828996222E+04  0.00000000000E+00 0. -1.
         -2   -1    0    0    0  501 -0.00000000000E+00 -0.00000000000E+00 -0.29512920872E+03  0.29512920872E+03  0.00000000000E+00 0.  1.
         23    2    1    2    0    0 -0.51841529516E+03  0.85970365535E+02  0.77765977916E+02  0.53949719681E+03  0.94150709182E+02 0.  0.
         13    1    3    3    0    0 -0.11078508217E+03 -0.12566106506E+01  0.50469652668E+02  0.12174604447E+03  0.00000000000E+00 0. -1.
        -13    1    3    3    0    0 -0.40763021299E+03  0.87226976186E+02  0.27296325248E+02  0.41775115235E+03  0.00000000000E+00 0.  1.
         22    1    1    2    0    0  0.51841529516E+03 -0.85970365535E+02  0.10100044356E+04  0.11385316341E+04  0.00000000000E+00 0. -1.
<mgrwt>
<rscale>  0 0.12777074E+04</rscale>
<asrwt>0</asrwt>
<pdfrwt beam="1">  1        2 0.21275378E+00 0.12777074E+04</pdfrwt>
<pdfrwt beam="2">  1       -2 0.45404494E-01 0.12777074E+04</pdfrwt>
<totfact> 0.66810035E+01</totfact>
</mgrwt>
</event>
<event>
 6    1  0.1885829E-005  0.2794152E+04  0.7818608E-02  0.8305086E-01
         -2   -1    0    0    0  501 -0.00000000000E+00  0.00000000000E+00  0.22591477306E+04  0.22591477306E+04  0.00000000000E+00 0.  1.
          2   -1    0    0  501    0  0.00000000000E+00 -0.00000000000E+00 -0.86396347034E+03  0.86396347034E+03  0.00000000000E+00 0. -1.
         23    2    1    2    0    0  0.81257960668E+03 -0.78648777319E+03  0.16122638489E+04  0.19716025459E+04  0.94727219285E+02 0.  0.
         11    1    3    3    0    0  0.70156670233E+03 -0.63094731618E+03  0.13275324553E+04  0.16286905088E+04  0.00000000000E+00 0.  1.
        -11    1    3    3    0    0  0.11101290435E+03 -0.15554045701E+03  0.28473139366E+03  0.34291203716E+03  0.00000000000E+00 0. -1.
         22    1    1    2    0    0 -0.81257960668E+03  0.78648777319E+03 -0.21707958871E+03  0.11515086549E+04  0.00000000000E+00 0. -1.
<mgrwt>
<rscale>  0 0.27941518E+04</rscale>
<asrwt>0</asrwt>
<pdfrwt beam="1">  1        2 0.13291746E+00 0.27941518E+04</pdfrwt>
<pdfrwt beam="2">  1       -2 0.34756119E+00 0.27941518E+04</pdfrwt>
<totfact> 0.43550550E-01</totfact>
</mgrwt>
</event>
<event>
 6    1  0.1885829E-005  0.2643301E+04  0.7818608E-02  0.8353640E-01
         -2   -1    0    0    0  501 -0.00000000000E+00  0.00000000000E+00  0.76525361989E+03  0.76525361989E+03  0.00000000000E+00 0.  1.
          2   -1    0    0  501    0  0.00000000000E+00 -0.00000000000E+00 -0.22825889298E+04  0.22825889298E+04  0.00000000000E+00 0. -1.
         23    2    1    2    0    0  0.85037329043E+01 -0.13175099779E+04 -0.66583099018E+03  0.14790964065E+04  0.92143457956E+02 0.  0.
         11    1    3    3    0    0  0.17879462387E+02 -0.17691813587E+03 -0.60747295699E+02  0.18790938218E+03  0.00000000000E+00 0. -1.
        -11    1    3    3    0    0 -0.93757294828E+01 -0.11405918420E+04 -0.60508369448E+03  0.12911870243E+04  0.00000000000E+00 0.  1.
         22    1    1    2    0    0 -0.85037329043E+01  0.13175099779E+04 -0.85150431974E+03  0.15687461432E+04  0.00000000000E+00 0.  1.
<mgrwt>
<rscale>  0 0.26433005E+04</rscale>
<asrwt>0</asrwt>
<pdfrwt beam="1">  1        2 0.35116753E+00 0.26433005E+04</pdfrwt>
<pdfrwt beam="2">  1       -2 0.11773133E+00 0.26433005E+04</pdfrwt>
<totfact> 0.22754127E+00</totfact>
</mgrwt>
</event>
<event>
 6    1  0.1885829E-005  0.2436468E+04  0.7818608E-02  0.8425975E-01
         -2   -1    0    0    0  501 -0.00000000000E+00  0.00000000000E+00  0.56013564657E+03  0.56013564657E+03  0.00000000000E+00 0.  1.
          2   -1    0    0  501    0  0.00000000000E+00 -0.00000000000E+00 -0.26495252899E+04  0.26495252899E+04  0.00000000000E+00 0. -1.
         23    2    1    2    0    0  0.57656100870E+03 -0.50148251159E+03  0.20103587889E+03  0.79513067595E+03  0.88938523965E+02 0.  0.
         13    1    3    3    0    0  0.34638640205E+03 -0.35177833860E+03  0.10940090378E+03  0.50566797089E+03  0.00000000000E+00 0. -1.
        -13    1    3    3    0    0  0.23017460665E+03 -0.14970417300E+03  0.91634975103E+02  0.28946270506E+03  0.00000000000E+00 0.  1.
         22    1    1    2    0    0 -0.57656100870E+03  0.50148251159E+03 -0.22904255222E+04  0.24145302606E+04  0.00000000000E+00 0. -1.
<mgrwt>
<rscale>  0 0.24364676E+04</rscale>
<asrwt>0</asrwt>
<pdfrwt beam="1">  1        2 0.40761928E+00 0.24364676E+04</pdfrwt>
<pdfrwt beam="2">  1       -2 0.86174715E-01 0.24364676E+04</pdfrwt>
<totfact> 0.29786378E+00</totfact>
</mgrwt>
</event>
<event>
 6    1  0.1885829E-005  0.7394207E+04  0.7818608E-02  0.7538093E-01
         -1   -1    0    0    0  501 -0.00000000000E+00  0.00000000000E+00  0.49337478586E+04  0.49337478586E+04  0.00000000000E+00 0.  1.
          1   -1    0    0  501    0  0.00000000000E+00 -0.00000000000E+00 -0.27704244776E+04  0.27704244776E+04  0.00000000000E+00 0. -1.
         23    2    1    2    0    0  0.33059781424E+04 -0.24253414027E+03 -0.62169585590E+03  0.33746635376E+04  0.11633558051E+03 0.  0.
         11    1    3    3    0    0  0.82927385656E+03 -0.78475693265E+02 -0.10825287402E+03  0.83998348099E+03  0.00000000000E+00 0. -1.
        -11    1    3    3    0    0  0.24767042859E+04 -0.16405844700E+03 -0.51344298188E+03  0.25346800566E+04  0.00000000000E+00 0.  1.
         22    1    1    2    0    0 -0.33059781424E+04  0.24253414027E+03  0.27850192369E+04  0.43295087987E+04  0.00000000000E+00 0.  1.
<mgrwt>
<rscale>  0 0.73942074E+04</rscale>
<asrwt>0</asrwt>
<pdfrwt beam="1">  1        1 0.42621915E+00 0.73942074E+04</pdfrwt>
<pdfrwt beam="2">  1       -1 0.75903813E+00 0.73942074E+04</pdfrwt>
<totfact> 0.62178793E-05</totfact>
</mgrwt>
</event>
<event>
 6    1  0.1885829E-005  0.2005100E+04  0.7818608E-02  0.8604240E-01
          1   -1    0    0  501    0  0.00000000000E+00  0.00000000000E+00  0.32400115350E+04  0.32400115350E+04  0.00000000000E+00 0. -1.
         -1   -1    0    0    0  501 -0.00000000000E+00 -0.00000000000E+00 -0.31021692690E+03  0.31021692690E+03  0.00000000000E+00 0.  1.
         23    2    1    2    0    0 -0.55132512446E+03 -0.63268040900E+03  0.50289875303E+03  0.98233683955E+03  0.88513376113E+02 0.  0.
         11    1    3    3    0    0 -0.82543848273E+02 -0.77839032203E+02  0.10262883329E+03  0.15298718654E+03  0.00000000000E+00 0. -1.
        -11    1    3    3    0    0 -0.46878127619E+03 -0.55484137679E+03  0.40026991974E+03  0.82934965301E+03  0.00000000000E+00 0.  1.
         22    1    1    2    0    0  0.55132512446E+03  0.63268040900E+03  0.24268958551E+04  0.25678916224E+04  0.00000000000E+00 0. -1.
<mgrwt>
<rscale>  0 0.20050999E+04</rscale>
<asrwt>0</asrwt>
<pdfrwt beam="1">  1        1 0.49846329E+00 0.20050999E+04</pdfrwt>
<pdfrwt beam="2">  1       -1 0.47725683E-01 0.20050999E+04</pdfrwt>
<totfact> 0.16171516E+00</totfact>
</mgrwt>
</event>
<event>
 6    1  0.1885829E-005  0.5846534E+03  0.7818608E-02  0.9937767E-01
         -2   -1    0    0    0  501 -0.00000000000E+00  0.00000000000E+00  0.43636956931E+02  0.43636956931E+02  0.00000000000E+00 0.  1.
          2   -1    0    0  501    0  0.00000000000E+00 -0.00000000000E+00 -0.19583148765E+04  0.19583148765E+04  0.00000000000E+00 0. -1.
         23    2    1    2    0    0  0.57064322203E+02  0.25968742270E+03 -0.13352767086E+04  0.13644570039E+04  0.89917365678E+02 0.  0.
         13    1    3    3    0    0 -0.21658924835E+01  0.69400010152E+02 -0.19729743709E+03  0.20915862684E+03  0.00000000000E+00 0. -1.
        -13    1    3    3    0    0  0.59230214686E+02  0.19028741254E+03 -0.11379792715E+04  0.11552983771E+04  0.00000000000E+00 0.  1.
         22    1    1    2    0    0 -0.57064322203E+02 -0.25968742270E+03 -0.57940121095E+03  0.63749482949E+03  0.00000000000E+00 0.  1.
<mgrwt>
<rscale>  0 0.58465341E+03</rscale>
<asrwt>0</asrwt>
<pdfrwt beam="1">  1        2 0.30127917E+00 0.58465341E+03</pdfrwt>
<pdfrwt beam="2">  1       -2 0.67133790E-02 0.58465341E+03</pdfrwt>
<totfact> 0.94645779E+02</totfact>
</mgrwt>
</event>
<event>
 6    1  0.2269537E-005  0.2935760E+04  0.7818608E-02  0.8262317E-01
          2   -1    0    0  501    0  0.00000000000E+00  0.00000000000E+00  0.19354171498E+04  0.19354171498E+04  0.00000000000E+00 0. -1.
         -2   -1    0    0    0  501 -0.00000000000E+00 -0.00000000000E+00 -0.11132856479E+04  0.11132856479E+04  0.00000000000E+00 0.  1.
         23    2    1    2    0    0  0.10658183430E+04 -0.99691178938E+03  0.55938886648E+03  0.15658556888E+04  0.95845073640E+02 0.  0.
         11    1    3    3    0    0  0.47614008799E+03 -0.50580501585E+03  0.28558563853E+03  0.75107073860E+03  0.00000000000E+00 0. -1.
        -11    1    3    3    0    0  0.58967825503E+03 -0.49110677353E+03  0.27380322795E+03  0.81478495022E+03  0.00000000000E+00 0.  1.
         22    1    1    2    0    0 -0.10658183430E+04  0.99691178938E+03  0.26274263542E+03  0.14828471090E+04  0.00000000000E+00 0. -1.
<mgrwt>
<rscale>  0 0.29357603E+04</rscale>
<asrwt>0</asrwt>
<pdfrwt beam="1">  1        2 0.29775648E+00 0.29357603E+04</pdfrwt>
<pdfrwt beam="2">  1       -2 0.17127472E+00 0.29357603E+04</pdfrwt>
<totfact> 0.13037038E+00</totfact>
</mgrwt>
</event>
<event>
 6    1  0.1885829E-005  0.4235025E+04  0.7818608E-02  0.7958743E-01
          2   -1    0    0  501    0  0.00000000000E+00  0.00000000000E+00  0.22327280867E+04  0.22327280867E+04  0.00000000000E+00 0. -1.
         -2   -1    0    0    0  501 -0.00000000000E+00 -0.00000000000E+00 -0.20082428389E+04  0.20082428389E+04  0.00000000000E+00 0.  1.
         23    2    1    2    0    0  0.89284124287E+03  0.34068330088E+03  0.20035475142E+04  0.22214924918E+04  0.87153043010E+02 0.  0.
         13    1    3    3    0    0  0.84194871852E+03  0.31133044200E+03  0.19185267890E+04  0.21181476174E+04  0.00000000000E+00 0.  1.
        -13    1    3    3    0    0  0.50892524347E+02  0.29352858880E+02  0.85020725192E+02  0.10334487443E+03  0.00000000000E+00 0. -1.
         22    1    1    2    0    0 -0.89284124287E+03 -0.34068330088E+03 -0.17790622665E+04  0.20194784337E+04  0.00000000000E+00 0.  1.
<mgrwt>
<rscale>  0 0.42350255E+04</rscale>
<asrwt>0</asrwt>
<pdfrwt beam="1">  1        2 0.34349663E+00 0.42350255E+04</pdfrwt>
<pdfrwt beam="2">  1       -2 0.30896044E+00 0.42350255E+04</pdfrwt>
<totfact> 0.10728530E-01</totfact>
</mgrwt>
</event>
<event>
 6    1  0.1885829E-005  0.1333609E+04  0.7818608E-02  0.9003330E-01
          2   -1    0    0  501    0  0.00000000000E+00  0.00000000000E+00  0.33545691112E+04  0.33545691112E+04  0.00000000000E+00 0. -1.
         -2   -1    0    0    0  501 -0.00000000000E+00 -0.00000000000E+00 -0.13254401954E+03  0.13254401954E+03  0.00000000000E+00 0.  1.
         23    2    1    2    0    0  0.59549108873E+03  0.16645305344E+03  0.98978200859E+03  0.11708175025E+04  0.93962459314E+02 0.  0.
         11    1    3    3    0    0  0.24495081599E+03  0.69160957241E+02  0.49600167210E+03  0.55749600804E+03  0.00000000000E+00 0. -1.
        -11    1    3    3    0    0  0.35054027274E+03  0.97292096199E+02  0.49378033650E+03  0.61332149441E+03  0.00000000000E+00 0.  1.
         22    1    1    2    0    0 -0.59549108873E+03 -0.16645305344E+03  0.22322430831E+04  0.23162956283E+04  0.00000000000E+00 0. -1.
<mgrwt>
<rscale>  0 0.13336087E+04</rscale>
<asrwt>0</asrwt>
<pdfrwt beam="1">  1        2 0.51608749E+00 0.13336087E+04</pdfrwt>
<pdfrwt beam="2">  1       -2 0.20391390E-01 0.13336087E+04</pdfrwt>
<totfact> 0.21026996E+01</totfact>
</mgrwt>
</event>
<event>
 6    1  0.1885829E-005  0.1352094E+04  0.7818608E-02  0.8989245E-01
         -2   -1    0    0    0  501 -0.00000000000E+00  0.00000000000E+00  0.14875485185E+03  0.14875485185E+03  0.00000000000E+00 0. -1.
          2   -1    0    0  501    0  0.00000000000E+00 -0.00000000000E+00 -0.30724335939E+04  0.30724335939E+04  0.00000000000E+00 0.  1.
         23    2    1    2    0    0  0.66595742940E+03  0.91483358265E+02 -0.15435967555E+04  0.16861005681E+04  0.91518738313E+02 0.  0.
         13    1    3    3    0    0  0.59843805273E+03  0.10370769968E+03 -0.13390942757E+04  0.14703934403E+04  0.00000000000E+00 0.  1.
        -13    1    3    3    0    0  0.67519376671E+02 -0.12224341418E+02 -0.20450247979E+03  0.21570712781E+03  0.00000000000E+00 0. -1.
         22    1    1    2    0    0 -0.66595742940E+03 -0.91483358265E+02 -0.13800819865E+04  0.15350878777E+04  0.00000000000E+00 0. -1.
<mgrwt>
<rscale>  0 0.13520938E+04</rscale>
<asrwt>0</asrwt>
<pdfrwt beam="1">  1        2 0.47268210E+00 0.13520938E+04</pdfrwt>
<pdfrwt beam="2">  1       -2 0.22885361E-01 0.13520938E+04</pdfrwt>
<totfact> 0.26042429E+01</totfact>
</mgrwt>
</event>
<event>
 6    1  0.1885829E-005  0.1336605E+04  0.7818608E-02  0.9001030E-01
          2   -1    0    0  501    0  0.00000000000E+00  0.00000000000E+00  0.54782089269E+03  0.54782089269E+03  0.00000000000E+00 0. -1.
         -2   -1    0    0    0  501 -0.00000000000E+00 -0.00000000000E+00 -0.81528144702E+03  0.81528144702E+03  0.00000000000E+00 0.  1.
         23    2    1    2    0    0 -0.54525681566E+03  0.59578193929E+02 -0.51820871345E+03  0.76000268334E+03  0.90604921342E+02 0.  0.
         11    1    3    3    0    0 -0.24822909224E+03  0.59968743585E+01 -0.28896909822E+03  0.38099446776E+03  0.00000000000E+00 0.  1.
        -11    1    3    3    0    0 -0.29702772342E+03  0.53581319571E+02 -0.22923961523E+03  0.37900821558E+03  0.00000000000E+00 0. -1.
         22    1    1    2    0    0  0.54525681566E+03 -0.59578193929E+02  0.25074815912E+03  0.60309965638E+03  0.00000000000E+00 0. -1.
<mgrwt>
<rscale>  0 0.13366050E+04</rscale>
<asrwt>0</asrwt>
<pdfrwt beam="1">  1        2 0.84280138E-01 0.13366050E+04</pdfrwt>
<pdfrwt beam="2">  1       -2 0.12542791E+00 0.13366050E+04</pdfrwt>
<totfact> 0.25697977E+01</totfact>
</mgrwt>
</event>
<event>
 6    1  0.1885829E-005  0.1501072E+04  0.7818608E-02  0.8883740E-01
         -2   -1    0    0    0  501 -0.00000000000E+00  0.00000000000E+00  0.25963617217E+03  0.25963617217E+03  0.00000000000E+00 0. -1.
          2   -1    0    0  501    0  0.00000000000E+00 -0.00000000000E+00 -0.21695908638E+04  0.21695908638E+04  0.00000000000E+00 0.  1.
         23    2    1    2    0    0 -0.50165132438E+03 -0.32616429456E+03 -0.23259165647E+03  0.64833289257E+03  0.90550884212E+02 0.  0.
         11    1    3    3    0    0 -0.26784358646E+03 -0.16958605104E+03 -0.74818277937E+02  0.32572594344E+03  0.00000000000E+00 0. -1.
        -11    1    3    3    0    0 -0.23380773792E+03 -0.15657824352E+03 -0.15777337853E+03  0.32260694913E+03  0.00000000000E+00 0.  1.
         22    1    1    2    0    0  0.50165132438E+03  0.32616429456E+03 -0.16773630352E+04  0.17808941434E+04  0.00000000000E+00 0.  1.
<mgrwt>
<rscale>  0 0.15010720E+04</rscale>
<asrwt>0</asrwt>
<pdfrwt beam="1">  1        2 0.33378321E+00 0.15010720E+04</pdfrwt>
<pdfrwt beam="2">  1       -2 0.39944026E-01 0.15010720E+04</pdfrwt>
<totfact> 0.30804052E+01</totfact>
</mgrwt>
</event>
<event>
 6    1  0.1885829E-005  0.3092984E+04  0.7818608E-02  0.8217666E-01
         -2   -1    0    0    0  501 -0.00000000000E+00  0.00000000000E+00  0.20518839102E+04  0.20518839102E+04  0.00000000000E+00 0.  1.
          2   -1    0    0  501    0  0.00000000000E+00 -0.00000000000E+00 -0.11655810729E+04  0.11655810729E+04  0.00000000000E+00 0. -1.
         23    2    1    2    0    0  0.32049693587E+03 -0.54219232716E+03 -0.10239736711E+04  0.12060358534E+04  0.96486242717E+02 0.  0.
         13    1    3    3    0    0  0.17298006223E+03 -0.36269390642E+03 -0.59108423932E+03  0.71473739909E+03  0.00000000000E+00 0.  1.
        -13    1    3    3    0    0  0.14751687364E+03 -0.17949842074E+03 -0.43288943179E+03  0.49129845431E+03  0.00000000000E+00 0. -1.
         22    1    1    2    0    0 -0.32049693587E+03  0.54219232716E+03  0.19102765083E+04  0.20114291297E+04  0.00000000000E+00 0.  1.
<mgrwt>
<rscale>  0 0.30929837E+04</rscale>
<asrwt>0</asrwt>
<pdfrwt beam="1">  1        2 0.17932016E+00 0.30929837E+04</pdfrwt>
<pdfrwt beam="2">  1       -2 0.31567445E+00 0.30929837E+04</pdfrwt>
<totfact> 0.42963738E-01</totfact>
</mgrwt>
</event>
<event>
 6    1  0.1885829E-005  0.2017490E+04  0.7818608E-02  0.8598487E-01
         -2   -1    0    0    0  501 -0.00000000000E+00  0.00000000000E+00  0.41919541724E+03  0.41919541724E+03  0.00000000000E+00 0. -1.
          2   -1    0    0  501    0  0.00000000000E+00 -0.00000000000E+00 -0.24274263971E+04  0.24274263971E+04  0.00000000000E+00 0.  1.
         23    2    1    2    0    0  0.16433472606E+03 -0.98504871326E+03 -0.11865351182E+04  0.15533658618E+04  0.88051372960E+02 0.  0.
         13    1    3    3    0    0  0.51348949895E+02 -0.34301804191E+03 -0.34907350016E+03  0.49208779729E+03  0.00000000000E+00 0. -1.
        -13    1    3    3    0    0  0.11298577617E+03 -0.64203067135E+03 -0.83746161800E+03  0.10612780645E+04  0.00000000000E+00 0.  1.
         22    1    1    2    0    0 -0.16433472606E+03  0.98504871326E+03 -0.82169586175E+03  0.12932559526E+04  0.00000000000E+00 0. -1.
<mgrwt>
<rscale>  0 0.20174896E+04</rscale>
<asrwt>0</asrwt>
<pdfrwt beam="1">  1        2 0.37345021E+00 0.20174896E+04</pdfrwt>
<pdfrwt beam="2">  1       -2 0.64491603E-01 0.20174896E+04</pdfrwt>
<totfact> 0.79001818E+00</totfact>
</mgrwt>
</event>
<event>
 6    1  0.1885829E-005  0.3630792E+04  0.7818608E-02  0.8083475E-01
          2   -1    0    0  501    0  0.00000000000E+00  0.00000000000E+00  0.28825769442E+04  0.28825769442E+04  0.00000000000E+00 0. -1.
         -2   -1    0    0    0  501 -0.00000000000E+00 -0.00000000000E+00 -0.11433040450E+04  0.11433040450E+04  0.00000000000E+00 0.  1.
         23    2    1    2    0    0 -0.89493065487E+03 -0.12649674644E+04 -0.17592647374E+03  0.15623404067E+04  0.94413236501E+02 0.  0.
         13    1    3    3    0    0 -0.72555194483E+03 -0.10447473095E+04 -0.10946298605E+03  0.12766772147E+04  0.00000000000E+00 0.  1.
        -13    1    3    3    0    0 -0.16937871004E+03 -0.22022015497E+03 -0.66463487689E+02  0.28566319200E+03  0.00000000000E+00 0. -1.
         22    1    1    2    0    0  0.89493065487E+03  0.12649674644E+04  0.19151993730E+04  0.24635405824E+04  0.00000000000E+00 0. -1.
<mgrwt>
<rscale>  0 0.36307916E+04</rscale>
<asrwt>0</asrwt>
<pdfrwt beam="1">  1        2 0.44347337E+00 0.36307916E+04</pdfrwt>
<pdfrwt beam="2">  1       -2 0.17589293E+00 0.36307916E+04</pdfrwt>
<totfact> 0.32406041E-01</totfact>
</mgrwt>
</event>
<event>
 6    1  0.1885829E-005  0.1673186E+04  0.7818608E-02  0.8776807E-01
          2   -1    0    0  501    0  0.00000000000E+00  0.00000000000E+00  0.27176784363E+04  0.27176784363E+04  0.00000000000E+00 0. -1.
         -2   -1    0    0    0  501 -0.00000000000E+00 -0.00000000000E+00 -0.25753162408E+03  0.25753162408E+03  0.00000000000E+00 0.  1.
         23    2    1    2    0    0 -0.32451183208E+02  0.39456997732E+03  0.25396194645E+04  0.25714100495E+04  0.75789655832E+02 0.  0.
         11    1    3    3    0    0  0.15808295320E+02  0.25354119007E+03  0.15986830546E+04  0.16187404197E+04  0.00000000000E+00 0.  1.
        -11    1    3    3    0    0 -0.48259478529E+02  0.14102878725E+03  0.94093640988E+03  0.95266962979E+03  0.00000000000E+00 0. -1.
         22    1    1    2    0    0  0.32451183208E+02 -0.39456997732E+03 -0.79472652307E+02  0.40380001085E+03  0.00000000000E+00 0.  1.
<mgrwt>
<rscale>  0 0.16731864E+04</rscale>
<asrwt>0</asrwt>
<pdfrwt beam="1">  1        2 0.41810435E+00 0.16731864E+04</pdfrwt>
<pdfrwt beam="2">  1       -2 0.39620252E-01 0.16731864E+04</pdfrwt>
<totfact> 0.14936800E+01</totfact>
</mgrwt>
</event>
<event>
 6    1  0.1885829E-005  0.2851322E+04  0.7818608E-02  0.8287510E-01
         -1   -1    0    0    0  501 -0.00000000000E+00  0.00000000000E+00  0.74787071831E+03  0.74787071831E+03  0.00000000000E+00 0.  1.
          1   -1    0    0  501    0  0.00000000000E+00 -0.00000000000E+00 -0.27177283679E+04  0.27177283679E+04  0.00000000000E+00 0. -1.
         23    2    1    2    0    0  0.43788889971E+03 -0.35843855520E+03  0.60266668708E+03  0.83157054630E+03  0.89875199074E+02 0.  0.
         11    1    3    3    0    0  0.26847827053E+03 -0.16462669623E+03  0.31218176212E+03  0.44344107101E+03  0.00000000000E+00 0. -1.
        -11    1    3    3    0    0  0.16941062918E+03 -0.19381185896E+03  0.29048492497E+03  0.38812947529E+03  0.00000000000E+00 0.  1.
         22    1    1    2    0    0 -0.43788889971E+03  0.35843855520E+03 -0.25725243366E+04  0.26340285399E+04  0.00000000000E+00 0. -1.
<mgrwt>
<rscale>  0 0.28513221E+04</rscale>
<asrwt>0</asrwt>
<pdfrwt beam="1">  1        1 0.41811206E+00 0.28513221E+04</pdfrwt>
<pdfrwt beam="2">  1       -1 0.11505703E+00 0.28513221E+04</pdfrwt>
<totfact> 0.56312012E-01</totfact>
</mgrwt>
</event>
<event>
 6    1  0.1885829E-005  0.1338802E+04  0.7818608E-02  0.8999348E-01
          2   -1    0    0  501    0  0.00000000000E+00  0.00000000000E+00  0.10333769626E+04  0.10333769626E+04  0.00000000000E+00 0.  1.
         -2   -1    0    0    0  501 -0.00000000000E+00 -0.00000000000E+00 -0.43362453701E+03  0.43362453701E+03  0.00000000000E+00 0. -1.
         23    2    1    2    0    0 -0.66464930585E+03 -0.40025307787E+02  0.29253276963E+03  0.73369075917E+03  0.96778012794E+02 0.  0.
         11    1    3    3    0    0 -0.24764065919E+03 -0.15268878700E+02  0.16083326913E+03  0.29567951434E+03  0.00000000000E+00 0.  1.
        -11    1    3    3    0    0 -0.41700864666E+03 -0.24756429088E+02  0.13169950050E+03  0.43801124483E+03  0.00000000000E+00 0. -1.
         22    1    1    2    0    0  0.66464930585E+03  0.40025307787E+02  0.30721965594E+03  0.73331074042E+03  0.00000000000E+00 0. -1.
<mgrwt>
<rscale>  0 0.13388019E+04</rscale>
<asrwt>0</asrwt>
<pdfrwt beam="1">  1        2 0.15898107E+00 0.13388019E+04</pdfrwt>
<pdfrwt beam="2">  1       -2 0.66711468E-01 0.13388019E+04</pdfrwt>
<totfact> 0.48396749E+01</totfact>
</mgrwt>
</event>
<event>
 6    1  0.1885829E-005  0.5402553E+04  0.7818608E-02  0.7769242E-01
          2   -1    0    0  501    0  0.00000000000E+00  0.00000000000E+00  0.47983234687E+04  0.47983234687E+04  0.00000000000E+00 0. -1.
         -2   -1    0    0    0  501 -0.00000000000E+00 -0.00000000000E+00 -0.15207176585E+04  0.15207176585E+04  0.00000000000E+00 0.  1.
         23    2    1    2    0    0  0.59471868342E+03  0.60614805560E+03 -0.13591376480E+04  0.16051790508E+04  0.90768172735E+02 0.  0.
         13    1    3    3    0    0  0.27625789687E+03  0.28212249672E+03 -0.71760898641E+03  0.81906909728E+03  0.00000000000E+00 0. -1.
        -13    1    3    3    0    0  0.31846078654E+03  0.32402555888E+03 -0.64152866160E+03  0.78610995353E+03  0.00000000000E+00 0.  1.
         22    1    1    2    0    0 -0.59471868342E+03 -0.60614805560E+03  0.46367434582E+04  0.47138620764E+04  0.00000000000E+00 0. -1.
<mgrwt>
<rscale>  0 0.54025532E+04</rscale>
<asrwt>0</asrwt>
<pdfrwt beam="1">  1        2 0.73820360E+00 0.54025532E+04</pdfrwt>
<pdfrwt beam="2">  1       -2 0.23395657E+00 0.54025532E+04</pdfrwt>
<totfact> 0.33536783E-03</totfact>
</mgrwt>
</event>
<event>
 6    1  0.1885829E-005  0.2375020E+04  0.7818608E-02  0.8448915E-01
         -2   -1    0    0    0  501 -0.00000000000E+00  0.00000000000E+00  0.55880216406E+03  0.55880216406E+03  0.00000000000E+00 0.  1.
          2   -1    0    0  501    0  0.00000000000E+00 -0.00000000000E+00 -0.25235772652E+04  0.25235772652E+04  0.00000000000E+00 0. -1.
         23    2    1    2    0    0 -0.26346584831E+03 -0.53265506955E+03  0.34765142549E+03  0.69481746830E+03  0.93670295542E+02 0.  0.
         13    1    3    3    0    0 -0.90413614849E+02 -0.24574934731E+03  0.10990853610E+03  0.28398459423E+03  0.00000000000E+00 0.  1.
        -13    1    3    3    0    0 -0.17305223346E+03 -0.28690572224E+03  0.23774288939E+03  0.41083287407E+03  0.00000000000E+00 0. -1.
         22    1    1    2    0    0  0.26346584831E+03  0.53265506955E+03 -0.23124265266E+04  0.23875619609E+04  0.00000000000E+00 0. -1.
<mgrwt>
<rscale>  0 0.23750204E+04</rscale>
<asrwt>0</asrwt>
<pdfrwt beam="1">  1        2 0.38824266E+00 0.23750204E+04</pdfrwt>
<pdfrwt beam="2">  1       -2 0.85969563E-01 0.23750204E+04</pdfrwt>
<totfact> 0.35682687E+00</totfact>
</mgrwt>
</event>
<event>
 6    1  0.2001650E-005  0.4252538E+04  0.7818608E-02  0.7955453E-01
          2   -1    0    0  501    0  0.00000000000E+00  0.00000000000E+00  0.25911212715E+04  0.25911212715E+04  0.00000000000E+00 0. -1.
         -2   -1    0    0    0  501 -0.00000000000E+00 -0.00000000000E+00 -0.17448119769E+04  0.17448119769E+04  0.00000000000E+00 0.  1.
         23    2    1    2    0    0  0.25079072463E+03  0.14742301781E+04  0.19631807498E+04  0.24694787344E+04  0.89420119589E+02 0.  0.
         13    1    3    3    0    0  0.18464824994E+03  0.98981517243E+03  0.12565687544E+04  0.16102155403E+04  0.00000000000E+00 0.  1.
        -13    1    3    3    0    0  0.66142474684E+02  0.48441500568E+03  0.70661199543E+03  0.85926319412E+03  0.00000000000E+00 0. -1.
         22    1    1    2    0    0 -0.25079072463E+03 -0.14742301781E+04 -0.11168714552E+04  0.18664545140E+04  0.00000000000E+00 0.  1.
<mgrwt>
<rscale>  0 0.42525378E+04</rscale>
<asrwt>0</asrwt>
<pdfrwt beam="1">  1        2 0.39863404E+00 0.42525378E+04</pdfrwt>
<pdfrwt beam="2">  1       -2 0.26843261E+00 0.42525378E+04</pdfrwt>
<totfact> 0.11795765E-01</totfact>
</mgrwt>
</event>
<event>
 6    1  0.1885829E-005  0.2445499E+04  0.7818608E-02  0.8422663E-01
          2   -1    0    0  501    0  0.00000000000E+00  0.00000000000E+00  0.14445779127E+04  0.14445779127E+04  0.00000000000E+00 0.  1.
         -2   -1    0    0    0  501 -0.00000000000E+00 -0.00000000000E+00 -0.10349853284E+04  0.10349853284E+04  0.00000000000E+00 0. -1.
         23    2    1    2    0    0  0.65464088687E+03 -0.43079493241E+03  0.11543005431E+04  0.13984855803E+04  0.95985466999E+02 0.  0.
         11    1    3    3    0    0  0.32261825043E+03 -0.26955545213E+03  0.61027277548E+03  0.74106378793E+03  0.00000000000E+00 0. -1.
        -11    1    3    3    0    0  0.33202263644E+03 -0.16123948028E+03  0.54402776766E+03  0.65742179238E+03  0.00000000000E+00 0.  1.
         22    1    1    2    0    0 -0.65464088687E+03  0.43079493241E+03 -0.74470795893E+03  0.10810776608E+04  0.00000000000E+00 0. -1.
<mgrwt>
<rscale>  0 0.24454995E+04</rscale>
<asrwt>0</asrwt>
<pdfrwt beam="1">  1        2 0.22224276E+00 0.24454995E+04</pdfrwt>
<pdfrwt beam="2">  1       -2 0.15922851E+00 0.24454995E+04</pdfrwt>
<totfact> 0.31208761E+00</totfact>
</mgrwt>
</event>
<event>
 6    1  0.1885829E-005  0.3302192E+04  0.7818608E-02  0.8162338E-01
         -2   -1    0    0    0  501 -0.00000000000E+00  0.00000000000E+00  0.13675380058E+04  0.13675380058E+04  0.00000000000E+00 0.  1.
          2   -1    0    0  501    0  0.00000000000E+00 -0.00000000000E+00 -0.19934492094E+04  0.19934492094E+04  0.00000000000E+00 0. -1.
         23    2    1    2    0    0  0.88529768865E+03 -0.37358639544E+03  0.10517513921E+04  0.14276298822E+04  0.92883246209E+02 0.  0.
         13    1    3    3    0    0  0.23508766385E+03 -0.14377711055E+03  0.31274387093E+03  0.41682945675E+03  0.00000000000E+00 0. -1.
        -13    1    3    3    0    0  0.65021002480E+03 -0.22980928489E+03  0.73900752116E+03  0.10108004255E+04  0.00000000000E+00 0.  1.
         22    1    1    2    0    0 -0.88529768865E+03  0.37358639544E+03 -0.16776625956E+04  0.19333573330E+04  0.00000000000E+00 0. -1.
<mgrwt>
<rscale>  0 0.33021917E+04</rscale>
<asrwt>0</asrwt>
<pdfrwt beam="1">  1        2 0.30668449E+00 0.33021917E+04</pdfrwt>
<pdfrwt beam="2">  1       -2 0.21039046E+00 0.33021917E+04</pdfrwt>
<totfact> 0.64058728E-01</totfact>
</mgrwt>
</event>
<event>
 6    1  0.1885829E-005  0.1068357E+04  0.7818608E-02  0.9236594E-01
          2   -1    0    0  501    0  0.00000000000E+00  0.00000000000E+00  0.18453716834E+04  0.18453716834E+04  0.00000000000E+00 0. -1.
         -2   -1    0    0    0  501 -0.00000000000E+00 -0.00000000000E+00 -0.15462824458E+03  0.15462824458E+03  0.00000000000E+00 0.  1.
         23    2    1    2    0    0 -0.30725489068E+03 -0.22950039678E+03  0.15376252216E+04  0.15870578153E+04  0.85937110990E+02 0.  0.
         11    1    3    3    0    0 -0.25942209388E+03 -0.21151846298E+03  0.12088813170E+04  0.12543659440E+04  0.00000000000E+00 0. -1.
        -11    1    3    3    0    0 -0.47832796802E+02 -0.17981933801E+02  0.32874390463E+03  0.33269187130E+03  0.00000000000E+00 0.  1.
         22    1    1    2    0    0  0.30725489068E+03  0.22950039678E+03  0.15311821721E+03  0.41294211266E+03  0.00000000000E+00 0.  1.
<mgrwt>
<rscale>  0 0.10683568E+04</rscale>
<asrwt>0</asrwt>
<pdfrwt beam="1">  1        2 0.28390332E+00 0.10683568E+04</pdfrwt>
<pdfrwt beam="2">  1       -2 0.23788962E-01 0.10683568E+04</pdfrwt>
<totfact> 0.12725385E+02</totfact>
</mgrwt>
</event>
<event>
 6    1  0.1885829E-005  0.8260735E+03  0.7818608E-02  0.9523025E-01
          2   -1    0    0  501    0  0.00000000000E+00  0.00000000000E+00  0.54362410269E+03  0.54362410269E+03  0.00000000000E+00 0.  1.
         -2   -1    0    0    0  501 -0.00000000000E+00 -0.00000000000E+00 -0.31381859327E+03  0.31381859327E+03  0.00000000000E+00 0. -1.
         23    2    1    2    0    0  0.27864187213E+03  0.16021492280E+03  0.37672486407E+03  0.50403724727E+03  0.93924485812E+02 0.  0.
         11    1    3    3    0    0  0.10561065787E+03  0.90130746078E+02  0.22067910935E+03  0.26072290223E+03  0.00000000000E+00 0.  1.
        -11    1    3    3    0    0  0.17303121426E+03  0.70084176726E+02  0.15604575472E+03  0.24331434504E+03  0.00000000000E+00 0. -1.
         22    1    1    2    0    0 -0.27864187213E+03 -0.16021492280E+03 -0.14691935464E+03  0.35340544869E+03  0.00000000000E+00 0. -1.
<mgrwt>
<rscale>  0 0.82607349E+03</rscale>
<asrwt>0</asrwt>
<pdfrwt beam="1">  1        2 0.83634477E-01 0.82607349E+03</pdfrwt>
<pdfrwt beam="2">  1       -2 0.48279784E-01 0.82607349E+03</pdfrwt>
<totfact> 0.22821729E+02</totfact>
</mgrwt>
</event>
<event>
 6    1  0.1885829E-005  0.1585754E+04  0.7818608E-02  0.8829348E-01
          2   -1    0    0  501    0  0.00000000000E+00  0.00000000000E+00  0.80611557397E+03  0.80611557397E+03  0.00000000000E+00 0. -1.
         -2   -1    0    0    0  501 -0.00000000000E+00 -0.00000000000E+00 -0.77985545912E+03  0.77985545912E+03  0.00000000000E+00 0.  1.
         23    2    1    2    0    0  0.54101700694E+03  0.43631306422E+03  0.38930388090E+03  0.80183503221E+03  0.91177932554E+02 0.  0.
         13    1    3    3    0    0  0.35726823165E+03  0.33509679208E+03  0.24923092179E+03  0.54958757426E+03  0.00000000000E+00 0. -1.
        -13    1    3    3    0    0  0.18374877529E+03  0.10121627215E+03  0.14007295911E+03  0.25224745795E+03  0.00000000000E+00 0.  1.
         22    1    1    2    0    0 -0.54101700694E+03 -0.43631306422E+03 -0.36304376605E+03  0.78413600088E+03  0.00000000000E+00 0.  1.
<mgrwt>
<rscale>  0 0.15857536E+04</rscale>
<asrwt>0</asrwt>
<pdfrwt beam="1">  1        2 0.12401778E+00 0.15857536E+04</pdfrwt>
<pdfrwt beam="2">  1       -2 0.11997776E+00 0.15857536E+04</pdfrwt>
<totfact> 0.17388254E+01</totfact>
</mgrwt>
</event>
<event>
 6    1  0.1885829E-005  0.1400313E+04  0.7818608E-02  0.8953592E-01
         -2   -1    0    0    0  501 -0.00000000000E+00  0.00000000000E+00  0.92635212771E+03  0.92635212771E+03  0.00000000000E+00 0.  1.
          2   -1    0    0  501    0  0.00000000000E+00 -0.00000000000E+00 -0.52919315516E+03  0.52919315516E+03  0.00000000000E+00 0. -1.
         23    2    1    2    0    0 -0.12631951962E+03  0.98417314329E+02 -0.50594682676E+03  0.53835246042E+03  0.90546073005E+02 0.  0.
         11    1    3    3    0    0 -0.91342348753E+02  0.10610635358E+03 -0.45517728131E+03  0.47622299437E+03  0.00000000000E+00 0.  1.
        -11    1    3    3    0    0 -0.34977170870E+02 -0.76890392542E+01 -0.50769545453E+02  0.62129466054E+02  0.00000000000E+00 0. -1.
         22    1    1    2    0    0  0.12631951962E+03 -0.98417314329E+02  0.90310579931E+03  0.91719282245E+03  0.00000000000E+00 0.  1.
<mgrwt>
<rscale>  0 0.14003131E+04</rscale>
<asrwt>0</asrwt>
<pdfrwt beam="1">  1        2 0.81414332E-01 0.14003131E+04</pdfrwt>
<pdfrwt beam="2">  1       -2 0.14251571E+00 0.14003131E+04</pdfrwt>
<totfact> 0.19213781E+01</totfact>
</mgrwt>
</event>
<event>
 6    1  0.1885829E-005  0.4897108E+04  0.7818608E-02  0.7844578E-01
          2   -1    0    0  501    0  0.00000000000E+00  0.00000000000E+00  0.35787177178E+04  0.35787177178E+04  0.00000000000E+00 0. -1.
         -2   -1    0    0    0  501 -0.00000000000E+00 -0.00000000000E+00 -0.16752976960E+04  0.16752976960E+04  0.00000000000E+00 0.  1.
         23    2    1    2    0    0 -0.22215163197E+04 -0.10012800133E+04  0.12006541709E+04  0.27179601571E+04  0.89669136352E+02 0.  0.
         11    1    3    3    0    0 -0.30712457095E+03 -0.10636767815E+03  0.15054252444E+03  0.35819357434E+03  0.00000000000E+00 0.  1.
        -11    1    3    3    0    0 -0.19143917487E+04 -0.89491233516E+03  0.10501116465E+04  0.23597665828E+04  0.00000000000E+00 0. -1.
         22    1    1    2    0    0  0.22215163197E+04  0.10012800133E+04  0.70276585089E+03  0.25360552566E+04  0.00000000000E+00 0. -1.
<mgrwt>
<rscale>  0 0.48971083E+04</rscale>
<asrwt>0</asrwt>
<pdfrwt beam="1">  1        2 0.55057195E+00 0.48971083E+04</pdfrwt>
<pdfrwt beam="2">  1       -2 0.25773811E+00 0.48971083E+04</pdfrwt>
<totfact> 0.30163605E-02</totfact>
</mgrwt>
</event>
<event>
 6    1  0.1885829E-005  0.1603943E+04  0.7818608E-02  0.8818129E-01
          2   -1    0    0  501    0  0.00000000000E+00  0.00000000000E+00  0.18818076762E+04  0.18818076762E+04  0.00000000000E+00 0. -1.
         -2   -1    0    0    0  501 -0.00000000000E+00 -0.00000000000E+00 -0.34177681339E+03  0.34177681339E+03  0.00000000000E+00 0.  1.
         23    2    1    2    0    0  0.14644784515E+03  0.33516047289E+03 -0.21487484738E+03  0.43096808735E+03  0.76044581243E+02 0.  0.
         11    1    3    3    0    0  0.53822852669E+02  0.20724344607E+03 -0.10426334372E+03  0.23815455119E+03  0.00000000000E+00 0. -1.
        -11    1    3    3    0    0  0.92624992485E+02  0.12791702682E+03 -0.11061150366E+03  0.19281353616E+03  0.00000000000E+00 0.  1.
         22    1    1    2    0    0 -0.14644784515E+03 -0.33516047289E+03  0.17549057102E+04  0.17926164022E+04  0.00000000000E+00 0. -1.
<mgrwt>
<rscale>  0 0.16039429E+04</rscale>
<asrwt>0</asrwt>
<pdfrwt beam="1">  1        2 0.28950887E+00 0.16039429E+04</pdfrwt>
<pdfrwt beam="2">  1       -2 0.52581049E-01 0.16039429E+04</pdfrwt>
<totfact> 0.25427662E+01</totfact>
</mgrwt>
</event>
<event>
 6    1  0.1885829E-005  0.2069589E+04  0.7818608E-02  0.8574759E-01
          1   -1    0    0  501    0  0.00000000000E+00  0.00000000000E+00  0.90084614991E+03  0.90084614991E+03  0.00000000000E+00 0. -1.
         -1   -1    0    0    0  501 -0.00000000000E+00 -0.00000000000E+00 -0.11886603503E+04  0.11886603503E+04  0.00000000000E+00 0.  1.
         23    2    1    2    0    0 -0.20009108620E+03  0.85637021500E+03  0.40267225588E+03  0.97139293971E+03  0.89738006225E+02 0.  0.
         13    1    3    3    0    0 -0.50361035834E+01  0.62629730348E+02  0.53714132779E+02  0.82662285977E+02  0.00000000000E+00 0.  1.
        -13    1    3    3    0    0 -0.19505498262E+03  0.79374048465E+03  0.34895812310E+03  0.88873065374E+03  0.00000000000E+00 0. -1.
         22    1    1    2    0    0  0.20009108620E+03 -0.85637021500E+03 -0.69048645630E+03  0.11181135605E+04  0.00000000000E+00 0. -1.
<mgrwt>
<rscale>  0 0.20695894E+04</rscale>
<asrwt>0</asrwt>
<pdfrwt beam="1">  1        1 0.13859172E+00 0.20695894E+04</pdfrwt>
<pdfrwt beam="2">  1       -1 0.18287082E+00 0.20695894E+04</pdfrwt>
<totfact> 0.33249499E+00</totfact>
</mgrwt>
</event>
<event>
 6    1  0.1885829E-005  0.3387028E+04  0.7818608E-02  0.8141097E-01
          2   -1    0    0  501    0  0.00000000000E+00  0.00000000000E+00  0.14729521053E+04  0.14729521053E+04  0.00000000000E+00 0. -1.
         -2   -1    0    0    0  501 -0.00000000000E+00 -0.00000000000E+00 -0.19471027732E+04  0.19471027732E+04  0.00000000000E+00 0.  1.
         23    2    1    2    0    0  0.51833962469E+03  0.63396454361E+03  0.12581686665E+04  0.15039345050E+04  0.90794234091E+02 0.  0.
         11    1    3    3    0    0  0.54787904698E+02  0.32329707479E+02  0.11592605599E+03  0.13223378897E+03  0.00000000000E+00 0.  1.
        -11    1    3    3    0    0  0.46355171999E+03  0.60163483613E+03  0.11422426105E+04  0.13717007160E+04  0.00000000000E+00 0. -1.
         22    1    1    2    0    0 -0.51833962469E+03 -0.63396454361E+03 -0.17323193345E+04  0.19161203735E+04  0.00000000000E+00 0.  1.
<mgrwt>
<rscale>  0 0.33870277E+04</rscale>
<asrwt>0</asrwt>
<pdfrwt beam="1">  1        2 0.22660802E+00 0.33870277E+04</pdfrwt>
<pdfrwt beam="2">  1       -2 0.29955427E+00 0.33870277E+04</pdfrwt>
<totfact> 0.34874711E-01</totfact>
</mgrwt>
</event>
<event>
 6    1  0.1885829E-005  0.2828532E+04  0.7818608E-02  0.8294465E-01
         -2   -1    0    0    0  501 -0.00000000000E+00  0.00000000000E+00  0.88877097506E+03  0.88877097506E+03  0.00000000000E+00 0.  1.
          2   -1    0    0  501    0  0.00000000000E+00 -0.00000000000E+00 -0.22504651254E+04  0.22504651254E+04  0.00000000000E+00 0. -1.
         23    2    1    2    0    0  0.22953868973E+03 -0.89217395027E+03  0.50717060015E+03  0.10556531712E+04  0.92299688523E+02 0.  0.
         13    1    3    3    0    0  0.81088953019E+02 -0.35999666419E+03  0.15358648029E+03  0.39970216844E+03  0.00000000000E+00 0. -1.
        -13    1    3    3    0    0  0.14844973671E+03 -0.53217728608E+03  0.35358411987E+03  0.65595100273E+03  0.00000000000E+00 0.  1.
         22    1    1    2    0    0 -0.22953868973E+03  0.89217395027E+03 -0.18688647505E+04  0.20835829293E+04  0.00000000000E+00 0. -1.
<mgrwt>
<rscale>  0 0.28285318E+04</rscale>
<asrwt>0</asrwt>
<pdfrwt beam="1">  1        2 0.34622540E+00 0.28285318E+04</pdfrwt>
<pdfrwt beam="2">  1       -2 0.13673400E+00 0.28285318E+04</pdfrwt>
<totfact> 0.16029444E+00</totfact>
</mgrwt>
</event>
<event>
 6    1  0.1885829E-005  0.3270090E+04  0.7818608E-02  0.8170548E-01
         -2   -1    0    0    0  501 -0.00000000000E+00  0.00000000000E+00  0.13164018760E+04  0.13164018760E+04  0.00000000000E+00 0.  1.
          2   -1    0    0  501    0  0.00000000000E+00 -0.00000000000E+00 -0.20308176546E+04  0.20308176546E+04  0.00000000000E+00 0. -1.
         23    2    1    2    0    0  0.13777173383E+04  0.87038001827E+03 -0.23720940378E+03  0.16491640648E+04  0.88359328548E+02 0.  0.
         13    1    3    3    0    0  0.14290538981E+03  0.66021007450E+02 -0.39269001974E+02  0.16224296095E+03  0.00000000000E+00 0. -1.
        -13    1    3    3    0    0  0.12348119485E+04  0.80435901082E+03 -0.19794040180E+03  0.14869211039E+04  0.00000000000E+00 0.  1.
         22    1    1    2    0    0 -0.13777173383E+04 -0.87038001827E+03 -0.47720637484E+03  0.16980554657E+04  0.00000000000E+00 0.  1.
<mgrwt>
<rscale>  0 0.32700900E+04</rscale>
<asrwt>0</asrwt>
<pdfrwt beam="1">  1        2 0.31243349E+00 0.32700900E+04</pdfrwt>
<pdfrwt beam="2">  1       -2 0.20252336E+00 0.32700900E+04</pdfrwt>
<totfact> 0.68847304E-01</totfact>
</mgrwt>
</event>
<event>
 6    1  0.1885829E-005  0.3333528E+04  0.7818608E-02  0.8154416E-01
         -2   -1    0    0    0  501 -0.00000000000E+00  0.00000000000E+00  0.15159314247E+04  0.15159314247E+04  0.00000000000E+00 0.  1.
          2   -1    0    0  501    0  0.00000000000E+00 -0.00000000000E+00 -0.18326045352E+04  0.18326045352E+04  0.00000000000E+00 0. -1.
         23    2    1    2    0    0 -0.11348028399E+04 -0.45584742584E+03  0.97782147837E+03  0.15677241783E+04  0.77781068554E+02 0.  0.
         11    1    3    3    0    0 -0.46437755774E+03 -0.15319928761E+03  0.36216596034E+03  0.60850696026E+03  0.00000000000E+00 0. -1.
        -11    1    3    3    0    0 -0.67042528216E+03 -0.30264813823E+03  0.61565551802E+03  0.95921721805E+03  0.00000000000E+00 0.  1.
         22    1    1    2    0    0  0.11348028399E+04  0.45584742584E+03 -0.12944945888E+04  0.17808117816E+04  0.00000000000E+00 0. -1.
<mgrwt>
<rscale>  0 0.33335283E+04</rscale>
<asrwt>0</asrwt>
<pdfrwt beam="1">  1        2 0.28193916E+00 0.33335283E+04</pdfrwt>
<pdfrwt beam="2">  1       -2 0.23322022E+00 0.33335283E+04</pdfrwt>
<totfact> 0.56275328E-01</totfact>
</mgrwt>
</event>
<event>
 6    1  0.1885829E-005  0.2529813E+04  0.7818608E-02  0.8392441E-01
         -2   -1    0    0    0  501 -0.00000000000E+00  0.00000000000E+00  0.81076227237E+03  0.81076227237E+03  0.00000000000E+00 0.  1.
          2   -1    0    0  501    0  0.00000000000E+00 -0.00000000000E+00 -0.19734373035E+04  0.19734373035E+04  0.00000000000E+00 0. -1.
         23    2    1    2    0    0  0.73988723562E+03  0.10178281429E+04 -0.70378486337E+03  0.14448014140E+04  0.93438440592E+02 0.  0.
         11    1    3    3    0    0  0.36352101437E+03  0.54750155331E+03 -0.41001214033E+03  0.77460663177E+03  0.00000000000E+00 0. -1.
        -11    1    3    3    0    0  0.37636622125E+03  0.47032658956E+03 -0.29377272304E+03  0.67019478225E+03  0.00000000000E+00 0.  1.
         22    1    1    2    0    0 -0.73988723562E+03 -0.10178281429E+04 -0.45889016774E+03  0.13393981618E+04  0.00000000000E+00 0.  1.
<mgrwt>
<rscale>  0 0.25298130E+04</rscale>
<asrwt>0</asrwt>
<pdfrwt beam="1">  1        2 0.30360574E+00 0.25298130E+04</pdfrwt>
<pdfrwt beam="2">  1       -2 0.12473266E+00 0.25298130E+04</pdfrwt>
<totfact> 0.29647844E+00</totfact>
</mgrwt>
</event>
<event>
 6    1  0.1885829E-005  0.1075720E+04  0.7818608E-02  0.9229185E-01
          3   -1    0    0  501    0  0.00000000000E+00  0.00000000000E+00  0.17556862488E+03  0.17556862488E+03  0.00000000000E+00 0. -1.
         -3   -1    0    0    0  501 -0.00000000000E+00 -0.00000000000E+00 -0.16477521550E+04  0.16477521550E+04  0.00000000000E+00 0.  1.
         23    2    1    2    0    0 -0.49019005280E+03  0.20533784692E+03 -0.65123615436E+03  0.84536141826E+03  0.89874798957E+02 0.  0.
         11    1    3    3    0    0 -0.29161641786E+03  0.10280930397E+03 -0.44050017476E+03  0.53819168715E+03  0.00000000000E+00 0.  1.
        -11    1    3    3    0    0 -0.19857363494E+03  0.10252854295E+03 -0.21073597960E+03  0.30716973111E+03  0.00000000000E+00 0. -1.
         22    1    1    2    0    0  0.49019005280E+03 -0.20533784692E+03 -0.82094737580E+03  0.97795936167E+03  0.00000000000E+00 0.  1.
<mgrwt>
<rscale>  0 0.10757204E+04</rscale>
<asrwt>0</asrwt>
<pdfrwt beam="1">  1        3 0.27010558E-01 0.10757204E+04</pdfrwt>
<pdfrwt beam="2">  1       -3 0.25350032E+00 0.10757204E+04</pdfrwt>
<totfact> 0.24212898E+00</totfact>
</mgrwt>
</event>
<event>
 6    1  0.1885829E-005  0.1566842E+04  0.7818608E-02  0.8841181E-01
          2   -1    0    0  501    0  0.00000000000E+00  0.00000000000E+00  0.10690456993E+04  0.10690456993E+04  0.00000000000E+00 0.  1.
         -2   -1    0    0    0  501 -0.00000000000E+00 -0.00000000000E+00 -0.57410869083E+03  0.57410869083E+03  0.00000000000E+00 0. -1.
         23    2    1    2    0    0  0.14248430535E+03  0.75313238222E+03  0.40407790408E+03  0.87129589323E+03  0.91473595000E+02 0.  0.
         11    1    3    3    0    0  0.94342489739E+02  0.33572486179E+03  0.22179504713E+03  0.41328529024E+03  0.00000000000E+00 0. -1.
        -11    1    3    3    0    0  0.48141815615E+02  0.41740752043E+03  0.18228285695E+03  0.45801060300E+03  0.00000000000E+00 0.  1.
         22    1    1    2    0    0 -0.14248430535E+03 -0.75313238222E+03  0.90859104425E+02  0.77185849693E+03  0.00000000000E+00 0.  1.
<mgrwt>
<rscale>  0 0.15668420E+04</rscale>
<asrwt>0</asrwt>
<pdfrwt beam="1">  1        2 0.16446857E+00 0.15668420E+04</pdfrwt>
<pdfrwt beam="2">  1       -2 0.88324414E-01 0.15668420E+04</pdfrwt>
<totfact> 0.24165699E+01</totfact>
</mgrwt>
</event>
<event>
 6    1  0.1885829E-005  0.3282321E+03  0.7818608E-02  0.1071922E+00
         -2   -1    0    0    0  501 -0.00000000000E+00  0.00000000000E+00  0.14029951278E+03  0.14029951278E+03  0.00000000000E+00 0.  1.
          2   -1    0    0  501    0  0.00000000000E+00 -0.00000000000E+00 -0.19197551821E+03  0.19197551821E+03  0.00000000000E+00 0. -1.
         23    2    1    2    0    0  0.91010083912E+02  0.96947612110E+02 -0.10468921564E+03  0.18912449720E+03  0.84419006753E+02 0.  0.
         13    1    3    3    0    0  0.26492885472E+02  0.48618245470E+02 -0.92205596648E+02  0.10755221442E+03  0.00000000000E+00 0.  1.
        -13    1    3    3    0    0  0.64517198441E+02  0.48329366640E+02 -0.12483618992E+02  0.81572282778E+02  0.00000000000E+00 0. -1.
         22    1    1    2    0    0 -0.91010083912E+02 -0.96947612110E+02  0.53013210210E+02  0.14315053379E+03  0.00000000000E+00 0.  1.
<mgrwt>
<rscale>  0 0.32823206E+03</rscale>
<asrwt>0</asrwt>
<pdfrwt beam="1">  1        2 0.29534695E-01 0.32823206E+03</pdfrwt>
<pdfrwt beam="2">  1       -2 0.21584541E-01 0.32823206E+03</pdfrwt>
<totfact> 0.32918886E+03</totfact>
</mgrwt>
</event>
<event>
 6    1  0.1885829E-005  0.4590667E+04  0.7818608E-02  0.7894953E-01
         -2   -1    0    0    0  501 -0.00000000000E+00  0.00000000000E+00  0.15322063855E+04  0.15322063855E+04  0.00000000000E+00 0.  1.
          2   -1    0    0  501    0  0.00000000000E+00 -0.00000000000E+00 -0.34385414524E+04  0.34385414524E+04  0.00000000000E+00 0. -1.
         23    2    1    2    0    0 -0.20731986901E+04  0.88267776694E+03 -0.48551561188E+03  0.23069158663E+04  0.94141148976E+02 0.  0.
         13    1    3    3    0    0 -0.12173862798E+04  0.47867849297E+03 -0.25223176766E+03  0.13322099379E+04  0.00000000000E+00 0. -1.
        -13    1    3    3    0    0 -0.85581241028E+03  0.40399927397E+03 -0.23328384422E+03  0.97470592844E+03  0.00000000000E+00 0.  1.
         22    1    1    2    0    0  0.20731986901E+04 -0.88267776694E+03 -0.14208194551E+04  0.26638319716E+04  0.00000000000E+00 0. -1.
<mgrwt>
<rscale>  0 0.45906667E+04</rscale>
<asrwt>0</asrwt>
<pdfrwt beam="1">  1        2 0.52900638E+00 0.45906667E+04</pdfrwt>
<pdfrwt beam="2">  1       -2 0.23572406E+00 0.45906667E+04</pdfrwt>
<totfact> 0.53041671E-02</totfact>
</mgrwt>
</event>
<event>
 6    1  0.1885829E-005  0.1939000E+04  0.7818608E-02  0.8635683E-01
         -2   -1    0    0    0  501 -0.00000000000E+00  0.00000000000E+00  0.78792080537E+03  0.78792080537E+03  0.00000000000E+00 0.  1.
          2   -1    0    0  501    0  0.00000000000E+00 -0.00000000000E+00 -0.11929248012E+04  0.11929248012E+04  0.00000000000E+00 0. -1.
         23    2    1    2    0    0  0.47658695282E+03  0.51132286686E+03  0.47943084088E+03  0.85354299495E+03  0.10047644136E+03 0.  0.
         11    1    3    3    0    0  0.86626056303E+02  0.14607394037E+03  0.14415584339E+03  0.22276125532E+03  0.00000000000E+00 0. -1.
        -11    1    3    3    0    0  0.38996089652E+03  0.36524892649E+03  0.33527499749E+03  0.63078173963E+03  0.00000000000E+00 0.  1.
         22    1    1    2    0    0 -0.47658695282E+03 -0.51132286686E+03 -0.88443483674E+03  0.11273026116E+04  0.00000000000E+00 0. -1.
<mgrwt>
<rscale>  0 0.19390000E+04</rscale>
<asrwt>0</asrwt>
<pdfrwt beam="1">  1        2 0.18352689E+00 0.19390000E+04</pdfrwt>
<pdfrwt beam="2">  1       -2 0.12121858E+00 0.19390000E+04</pdfrwt>
<totfact> 0.92480611E+00</totfact>
</mgrwt>
</event>
<event>
 6    1  0.1885829E-005  0.2229263E+04  0.7818608E-02  0.8506346E-01
         -2   -1    0    0    0  501 -0.00000000000E+00  0.00000000000E+00  0.73634630945E+03  0.73634630945E+03  0.00000000000E+00 0.  1.
          2   -1    0    0  501    0  0.00000000000E+00 -0.00000000000E+00 -0.16872547894E+04  0.16872547894E+04  0.00000000000E+00 0. -1.
         23    2    1    2    0    0  0.73920623963E+03 -0.68985510678E+02  0.42497467916E+03  0.86019477517E+03  0.90259115428E+02 0.  0.
         13    1    3    3    0    0  0.49090015782E+03 -0.10395518410E+02  0.25144792845E+03  0.55164942896E+03  0.00000000000E+00 0. -1.
        -13    1    3    3    0    0  0.24830608180E+03 -0.58589992268E+02  0.17352675071E+03  0.30854534621E+03  0.00000000000E+00 0.  1.
         22    1    1    2    0    0 -0.73920623963E+03  0.68985510678E+02 -0.13758831591E+04  0.15634063237E+04  0.00000000000E+00 0. -1.
<mgrwt>
<rscale>  0 0.22292634E+04</rscale>
<asrwt>0</asrwt>
<pdfrwt beam="1">  1        2 0.25957766E+00 0.22292634E+04</pdfrwt>
<pdfrwt beam="2">  1       -2 0.11328405E+00 0.22292634E+04</pdfrwt>
<totfact> 0.55606081E+00</totfact>
</mgrwt>
</event>
<event>
 6    1  0.1885829E-005  0.2183750E+04  0.7818608E-02  0.8525222E-01
         -2   -1    0    0    0  501 -0.00000000000E+00  0.00000000000E+00  0.80836247711E+03  0.80836247711E+03  0.00000000000E+00 0. -1.
          2   -1    0    0  501    0  0.00000000000E+00 -0.00000000000E+00 -0.14748228767E+04  0.14748228767E+04  0.00000000000E+00 0.  1.
         23    2    1    2    0    0 -0.42026766651E+03 -0.49950475520E+03  0.57889126430E+03  0.87711612410E+03  0.89931570045E+02 0.  0.
         13    1    3    3    0    0 -0.31552817757E+03 -0.39406608300E+03  0.39698712780E+03  0.64221872306E+03  0.00000000000E+00 0.  1.
        -13    1    3    3    0    0 -0.10473948894E+03 -0.10543867220E+03  0.18190413650E+03  0.23489740104E+03  0.00000000000E+00 0. -1.
         22    1    1    2    0    0  0.42026766651E+03  0.49950475520E+03 -0.12453516639E+04  0.14060692297E+04  0.00000000000E+00 0.  1.
<mgrwt>
<rscale>  0 0.21837504E+04</rscale>
<asrwt>0</asrwt>
<pdfrwt beam="1">  1        2 0.22689582E+00 0.21837504E+04</pdfrwt>
<pdfrwt beam="2">  1       -2 0.12436346E+00 0.21837504E+04</pdfrwt>
<totfact> 0.58318268E+00</totfact>
</mgrwt>
</event>
<event>
 6    1  0.1885829E-005  0.2161130E+04  0.7818608E-02  0.8534783E-01
          2   -1    0    0  501    0  0.00000000000E+00  0.00000000000E+00  0.36816238866E+04  0.36816238866E+04  0.00000000000E+00 0. -1.
         -2   -1    0    0    0  501 -0.00000000000E+00 -0.00000000000E+00 -0.31714830800E+03  0.31714830800E+03  0.00000000000E+00 0.  1.
         23    2    1    2    0    0  0.84835639896E+03  0.17997841573E+03  0.28720862335E+04  0.30015018817E+04  0.89629256510E+02 0.  0.
         11    1    3    3    0    0  0.17669764727E+03  0.75230247172E+02  0.62187806841E+03  0.65085634406E+03  0.00000000000E+00 0.  1.
        -11    1    3    3    0    0  0.67165875168E+03  0.10474816856E+03  0.22502081651E+04  0.23506455377E+04  0.00000000000E+00 0. -1.
         22    1    1    2    0    0 -0.84835639896E+03 -0.17997841573E+03  0.49238934515E+03  0.99727031290E+03  0.00000000000E+00 0.  1.
<mgrwt>
<rscale>  0 0.21611301E+04</rscale>
<asrwt>0</asrwt>
<pdfrwt beam="1">  1        2 0.56640364E+00 0.21611301E+04</pdfrwt>
<pdfrwt beam="2">  1       -2 0.48792050E-01 0.21611301E+04</pdfrwt>
<totfact> 0.22077672E+00</totfact>
</mgrwt>
</event>
<event>
 6    1  0.1885829E-005  0.1209933E+04  0.7818608E-02  0.9104206E-01
         -2   -1    0    0    0  501 -0.00000000000E+00  0.00000000000E+00  0.94982584959E+03  0.94982584959E+03  0.00000000000E+00 0.  1.
          2   -1    0    0  501    0  0.00000000000E+00 -0.00000000000E+00 -0.38531770126E+03  0.38531770126E+03  0.00000000000E+00 0. -1.
         23    2    1    2    0    0  0.59204902815E+03  0.73418276622E+02  0.36914564028E+03  0.70738658783E+03  0.90636558976E+02 0.  0.
         13    1    3    3    0    0  0.20769396928E+03  0.61563650122E+02  0.10399442813E+03  0.24029504567E+03  0.00000000000E+00 0. -1.
        -13    1    3    3    0    0  0.38435505887E+03  0.11854626500E+02  0.26515121215E+03  0.46709154216E+03  0.00000000000E+00 0.  1.
         22    1    1    2    0    0 -0.59204902815E+03 -0.73418276622E+02  0.19536250805E+03  0.62775696303E+03  0.00000000000E+00 0. -1.
<mgrwt>
<rscale>  0 0.12099334E+04</rscale>
<asrwt>0</asrwt>
<pdfrwt beam="1">  1        2 0.59279647E-01 0.12099334E+04</pdfrwt>
<pdfrwt beam="2">  1       -2 0.14612705E+00 0.12099334E+04</pdfrwt>
<totfact> 0.26235423E+01</totfact>
</mgrwt>
</event>
<event>
 6    1  0.1885829E-005  0.8553944E+03  0.7818608E-02  0.9483125E-01
         -2   -1    0    0    0  501 -0.00000000000E+00  0.00000000000E+00  0.17323355933E+03  0.17323355933E+03  0.00000000000E+00 0.  1.
          2   -1    0    0  501    0  0.00000000000E+00 -0.00000000000E+00 -0.10559438627E+04  0.10559438627E+04  0.00000000000E+00 0. -1.
         23    2    1    2    0    0  0.82967219082E+02  0.41231468852E+03 -0.38275001601E+03  0.57584194101E+03  0.90605763960E+02 0.  0.
         11    1    3    3    0    0  0.88481528867E+02  0.28648642879E+03 -0.30566535541E+03  0.42817609033E+03  0.00000000000E+00 0. -1.
        -11    1    3    3    0    0 -0.55143097851E+01  0.12582825972E+03 -0.77084660606E+02  0.14766585068E+03  0.00000000000E+00 0.  1.
         22    1    1    2    0    0 -0.82967219082E+02 -0.41231468852E+03 -0.49996028732E+03  0.65333548098E+03  0.00000000000E+00 0. -1.
<mgrwt>
<rscale>  0 0.85539444E+03</rscale>
<asrwt>0</asrwt>
<pdfrwt beam="1">  1        2 0.16245290E+00 0.85539444E+03</pdfrwt>
<pdfrwt beam="2">  1       -2 0.26651317E-01 0.85539444E+03</pdfrwt>
<totfact> 0.29699059E+02</totfact>
</mgrwt>
</event>
<event>
 6    1  0.1885829E-005  0.4044131E+04  0.7818608E-02  0.7995703E-01
          2   -1    0    0  501    0  0.00000000000E+00  0.00000000000E+00  0.47599459853E+04  0.47599459853E+04  0.00000000000E+00 0. -1.
         -2   -1    0    0    0  501 -0.00000000000E+00 -0.00000000000E+00 -0.85899078484E+03  0.85899078484E+03  0.00000000000E+00 0.  1.
         23    2    1    2    0    0  0.19956633768E+04 -0.17069204298E+03  0.15761354936E+04  0.25502897138E+04  0.89254932096E+02 0.  0.
         13    1    3    3    0    0  0.13329018793E+04 -0.72593446166E+02  0.10600224569E+04  0.17045658794E+04  0.00000000000E+00 0.  1.
        -13    1    3    3    0    0  0.66276149753E+03 -0.98098596818E+02  0.51611303665E+03  0.84572383431E+03  0.00000000000E+00 0. -1.
         22    1    1    2    0    0 -0.19956633768E+04  0.17069204298E+03  0.23248197069E+04  0.30686470564E+04  0.00000000000E+00 0. -1.
<mgrwt>
<rscale>  0 0.40441314E+04</rscale>
<asrwt>0</asrwt>
<pdfrwt beam="1">  1        2 0.73229936E+00 0.40441314E+04</pdfrwt>
<pdfrwt beam="2">  1       -2 0.13215243E+00 0.40441314E+04</pdfrwt>
<totfact> 0.21405015E-02</totfact>
</mgrwt>
</event>
<event>
 6    1  0.1885829E-005  0.2162137E+04  0.7818608E-02  0.8534355E-01
         -2   -1    0    0    0  501 -0.00000000000E+00  0.00000000000E+00  0.41094057373E+03  0.41094057373E+03  0.00000000000E+00 0. -1.
          2   -1    0    0  501    0  0.00000000000E+00 -0.00000000000E+00 -0.28439844382E+04  0.28439844382E+04  0.00000000000E+00 0.  1.
         23    2    1    2    0    0 -0.24037630331E+03 -0.97169790282E+03 -0.18257144178E+04  0.20841019517E+04  0.90940795092E+02 0.  0.
         13    1    3    3    0    0 -0.14311199440E+03 -0.59180485868E+03 -0.12007062948E+04  0.13462576425E+04  0.00000000000E+00 0.  1.
        -13    1    3    3    0    0 -0.97264308904E+02 -0.37989304414E+03 -0.62500812306E+03  0.73784430923E+03  0.00000000000E+00 0. -1.
         22    1    1    2    0    0  0.24037630331E+03  0.97169790282E+03 -0.60732944667E+03  0.11708230602E+04  0.00000000000E+00 0.  1.
<mgrwt>
<rscale>  0 0.21621365E+04</rscale>
<asrwt>0</asrwt>
<pdfrwt beam="1">  1        2 0.43753606E+00 0.21621365E+04</pdfrwt>
<pdfrwt beam="2">  1       -2 0.63221628E-01 0.21621365E+04</pdfrwt>
<totfact> 0.46236775E+00</totfact>
</mgrwt>
</event>
<event>
 6    1  0.1885829E-005  0.2189760E+04  0.7818608E-02  0.8522702E-01
         -2   -1    0    0    0  501 -0.00000000000E+00  0.00000000000E+00  0.12271674882E+04  0.12271674882E+04  0.00000000000E+00 0.  1.
          2   -1    0    0  501    0  0.00000000000E+00 -0.00000000000E+00 -0.97685338699E+03  0.97685338699E+03  0.00000000000E+00 0. -1.
         23    2    1    2    0    0 -0.23589659250E+03  0.71370120274E+03 -0.67327932164E+03  0.10132054319E+04  0.90904307979E+02 0.  0.
         13    1    3    3    0    0 -0.18324608624E+03  0.41338510583E+03 -0.40918908492E+03  0.60983774978E+03  0.00000000000E+00 0. -1.
        -13    1    3    3    0    0 -0.52650506261E+02  0.30031609692E+03 -0.26409023671E+03  0.40336768215E+03  0.00000000000E+00 0.  1.
         22    1    1    2    0    0  0.23589659250E+03 -0.71370120274E+03  0.92359342285E+03  0.11908154432E+04  0.00000000000E+00 0. -1.
<mgrwt>
<rscale>  0 0.21897605E+04</rscale>
<asrwt>0</asrwt>
<pdfrwt beam="1">  1        2 0.15028514E+00 0.21897605E+04</pdfrwt>
<pdfrwt beam="2">  1       -2 0.18879500E+00 0.21897605E+04</pdfrwt>
<totfact> 0.37656628E+00</totfact>
</mgrwt>
</event>
<event>
 6    1  0.1885829E-005  0.7512175E+03  0.7818608E-02  0.9633442E-01
         -2   -1    0    0    0  501 -0.00000000000E+00  0.00000000000E+00  0.15363591937E+03  0.15363591937E+03  0.00000000000E+00 0.  1.
          2   -1    0    0  501    0  0.00000000000E+00 -0.00000000000E+00 -0.91828753638E+03  0.91828753638E+03  0.00000000000E+00 0. -1.
         23    2    1    2    0    0  0.13670043070E+03  0.27395470455E+03 -0.91316661158E+02  0.33224910128E+03  0.91173158330E+02 0.  0.
         11    1    3    3    0    0  0.67749873721E+02  0.21143147469E+03 -0.38822955869E+02  0.22538974196E+03  0.00000000000E+00 0. -1.
        -11    1    3    3    0    0  0.68950556977E+02  0.62523229858E+02 -0.52493705289E+02  0.10685935932E+03  0.00000000000E+00 0.  1.
         22    1    1    2    0    0 -0.13670043070E+03 -0.27395470455E+03 -0.67333495585E+03  0.73967435448E+03  0.00000000000E+00 0. -1.
<mgrwt>
<rscale>  0 0.75121754E+03</rscale>
<asrwt>0</asrwt>
<pdfrwt beam="1">  1        2 0.14127501E+00 0.75121754E+03</pdfrwt>
<pdfrwt beam="2">  1       -2 0.23636295E-01 0.75121754E+03</pdfrwt>
<totfact> 0.45456400E+02</totfact>
</mgrwt>
</event>
<event>
 6    1  0.1885829E-005  0.2388844E+04  0.7818608E-02  0.8443692E-01
         -2   -1    0    0    0  501 -0.00000000000E+00  0.00000000000E+00  0.64528624016E+03  0.64528624016E+03  0.00000000000E+00 0.  1.
          2   -1    0    0  501    0  0.00000000000E+00 -0.00000000000E+00 -0.22108702060E+04  0.22108702060E+04  0.00000000000E+00 0. -1.
         23    2    1    2    0    0 -0.54476870546E+03  0.14696772605E+03 -0.20402456375E+04  0.21188124576E+04  0.91605206706E+02 0.  0.
         13    1    3    3    0    0 -0.48428002015E+03  0.98844775625E+02 -0.17526388996E+04  0.18209998736E+04  0.00000000000E+00 0. -1.
        -13    1    3    3    0    0 -0.60488685308E+02  0.48122950422E+02 -0.28760673798E+03  0.29781258391E+03  0.00000000000E+00 0.  1.
         22    1    1    2    0    0  0.54476870546E+03 -0.14696772605E+03  0.47466167169E+03  0.73734398860E+03  0.00000000000E+00 0.  1.
<mgrwt>
<rscale>  0 0.23888442E+04</rscale>
<asrwt>0</asrwt>
<pdfrwt beam="1">  1        2 0.34013388E+00 0.23888442E+04</pdfrwt>
<pdfrwt beam="2">  1       -2 0.99274806E-01 0.23888442E+04</pdfrwt>
<totfact> 0.38506111E+00</totfact>
</mgrwt>
</event>
<event>
 6    1  0.1885829E-005  0.2684032E+04  0.7818608E-02  0.8340205E-01
          2   -1    0    0  501    0  0.00000000000E+00  0.00000000000E+00  0.16487671348E+04  0.16487671348E+04  0.00000000000E+00 0. -1.
         -2   -1    0    0    0  501 -0.00000000000E+00 -0.00000000000E+00 -0.10923354305E+04  0.10923354305E+04  0.00000000000E+00 0.  1.
         23    2    1    2    0    0 -0.25899038783E+03  0.97763505785E+03  0.11769277855E+04  0.15545690790E+04  0.93164809565E+02 0.  0.
         11    1    3    3    0    0 -0.22405906929E+03  0.68051090222E+03  0.82552732223E+03  0.10930658326E+04  0.00000000000E+00 0. -1.
        -11    1    3    3    0    0 -0.34931318537E+02  0.29712415563E+03  0.35140046330E+03  0.46150324645E+03  0.00000000000E+00 0.  1.
         22    1    1    2    0    0  0.25899038783E+03 -0.97763505785E+03 -0.62049608121E+03  0.11865334863E+04  0.00000000000E+00 0.  1.
<mgrwt>
<rscale>  0 0.26840319E+04</rscale>
<asrwt>0</asrwt>
<pdfrwt beam="1">  1        2 0.25365648E+00 0.26840319E+04</pdfrwt>
<pdfrwt beam="2">  1       -2 0.16805160E+00 0.26840319E+04</pdfrwt>
<totfact> 0.20251084E+00</totfact>
</mgrwt>
</event>
<event>
 6    1  0.1885829E-005  0.1707634E+04  0.7818608E-02  0.8757022E-01
          2   -1    0    0  501    0  0.00000000000E+00  0.00000000000E+00  0.28315169476E+04  0.28315169476E+04  0.00000000000E+00 0. -1.
         -2   -1    0    0    0  501 -0.00000000000E+00 -0.00000000000E+00 -0.25746034337E+03  0.25746034337E+03  0.00000000000E+00 0.  1.
         23    2    1    2    0    0 -0.16472296831E+03  0.56807557954E+03  0.23985497302E+04  0.24720119895E+04  0.89212932900E+02 0.  0.
         11    1    3    3    0    0 -0.89574946448E+02  0.16296438000E+03  0.71780609136E+03  0.74150296356E+03  0.00000000000E+00 0. -1.
        -11    1    3    3    0    0 -0.75148021861E+02  0.40511119954E+03  0.16807436389E+04  0.17305090259E+04  0.00000000000E+00 0.  1.
         22    1    1    2    0    0  0.16472296831E+03 -0.56807557954E+03  0.17550687394E+03  0.61696530142E+03  0.00000000000E+00 0.  1.
<mgrwt>
<rscale>  0 0.17076338E+04</rscale>
<asrwt>0</asrwt>
<pdfrwt beam="1">  1        2 0.43561797E+00 0.17076338E+04</pdfrwt>
<pdfrwt beam="2">  1       -2 0.39609286E-01 0.17076338E+04</pdfrwt>
<totfact> 0.12731355E+01</totfact>
</mgrwt>
</event>
<event>
 6    1  0.1885829E-005  0.2130356E+04  0.7818608E-02  0.8547988E-01
         -2   -1    0    0    0  501 -0.00000000000E+00  0.00000000000E+00  0.66911317106E+03  0.66911317106E+03  0.00000000000E+00 0.  1.
          2   -1    0    0  501    0  0.00000000000E+00 -0.00000000000E+00 -0.16956832769E+04  0.16956832769E+04  0.00000000000E+00 0. -1.
         23    2    1    2    0    0  0.50722017451E+02  0.37581304266E+03 -0.16167838594E+04  0.16632549731E+04  0.92837984290E+02 0.  0.
         13    1    3    3    0    0  0.26244032505E+02  0.21247272538E+03 -0.11027186079E+04  0.11233083889E+04  0.00000000000E+00 0.  1.
        -13    1    3    3    0    0  0.24477984946E+02  0.16334031728E+03 -0.51406525144E+03  0.53994658415E+03  0.00000000000E+00 0. -1.
         22    1    1    2    0    0 -0.50722017451E+02 -0.37581304266E+03  0.59021375356E+03  0.70154147488E+03  0.00000000000E+00 0.  1.
<mgrwt>
<rscale>  0 0.21303559E+04</rscale>
<asrwt>0</asrwt>
<pdfrwt beam="1">  1        2 0.26087435E+00 0.21303559E+04</pdfrwt>
<pdfrwt beam="2">  1       -2 0.10294049E+00 0.21303559E+04</pdfrwt>
<totfact> 0.69882508E+00</totfact>
</mgrwt>
</event>
<event>
 6    1  0.1885829E-005  0.1048016E+04  0.7818608E-02  0.9257395E-01
         -4   -1    0    0    0  501 -0.00000000000E+00  0.00000000000E+00  0.11706937867E+04  0.11706937867E+04  0.00000000000E+00 0.  1.
          4   -1    0    0  501    0  0.00000000000E+00 -0.00000000000E+00 -0.23454838291E+03  0.23454838291E+03  0.00000000000E+00 0. -1.
         23    2    1    2    0    0  0.34045607700E+03 -0.39000424075E+03  0.53700100842E+03  0.75153742240E+03  0.91786524339E+02 0.  0.
         13    1    3    3    0    0  0.32193805892E+03 -0.32260591409E+03  0.47088106998E+03  0.65532257069E+03  0.00000000000E+00 0. -1.
        -13    1    3    3    0    0  0.18518018081E+02 -0.67398326662E+02  0.66119938434E+02  0.96214851707E+02  0.00000000000E+00 0.  1.
         22    1    1    2    0    0 -0.34045607700E+03  0.39000424075E+03  0.39914439536E+03  0.65370474721E+03  0.00000000000E+00 0.  1.
<mgrwt>
<rscale>  0 0.10480159E+04</rscale>
<asrwt>0</asrwt>
<pdfrwt beam="1">  1        4 0.36084367E-01 0.10480159E+04</pdfrwt>
<pdfrwt beam="2">  1       -4 0.18010673E+00 0.10480159E+04</pdfrwt>
<totfact> 0.26698985E+00</totfact>
</mgrwt>
</event>
<event>
 6    1  0.1885829E-005  0.1222656E+04  0.7818608E-02  0.9093254E-01
          1   -1    0    0  501    0  0.00000000000E+00  0.00000000000E+00  0.16645498464E+04  0.16645498464E+04  0.00000000000E+00 0. -1.
         -1   -1    0    0    0  501 -0.00000000000E+00 -0.00000000000E+00 -0.22451838734E+03  0.22451838734E+03  0.00000000000E+00 0.  1.
         23    2    1    2    0    0 -0.43808490875E+03 -0.17766091338E+03  0.13145634054E+04  0.13999629077E+04  0.91309412908E+02 0.  0.
         13    1    3    3    0    0 -0.17730028137E+03 -0.32310777118E+02  0.56840477984E+03  0.59629134644E+03  0.00000000000E+00 0.  1.
        -13    1    3    3    0    0 -0.26078462738E+03 -0.14535013626E+03  0.74615862554E+03  0.80367156131E+03  0.00000000000E+00 0. -1.
         22    1    1    2    0    0  0.43808490875E+03  0.17766091338E+03  0.12546805367E+03  0.48910532599E+03  0.00000000000E+00 0.  1.
<mgrwt>
<rscale>  0 0.12226562E+04</rscale>
<asrwt>0</asrwt>
<pdfrwt beam="1">  1        1 0.25608458E+00 0.12226562E+04</pdfrwt>
<pdfrwt beam="2">  1       -1 0.34541291E-01 0.12226562E+04</pdfrwt>
<totfact> 0.39572822E+01</totfact>
</mgrwt>
</event>
<event>
 6    1  0.1885829E-005  0.1024914E+04  0.7818608E-02  0.9281634E-01
         -2   -1    0    0    0  501 -0.00000000000E+00  0.00000000000E+00  0.12066375875E+03  0.12066375875E+03  0.00000000000E+00 0.  1.
          2   -1    0    0  501    0  0.00000000000E+00 -0.00000000000E+00 -0.21763972998E+04  0.21763972998E+04  0.00000000000E+00 0. -1.
         23    2    1    2    0    0 -0.29523234901E+03 -0.36035160363E+03 -0.58303167513E+03  0.75243611896E+03  0.96014377907E+02 0.  0.
         13    1    3    3    0    0 -0.79933625168E+02 -0.67675457219E+02 -0.19165540911E+03  0.21840592434E+03  0.00000000000E+00 0. -1.
        -13    1    3    3    0    0 -0.21529872384E+03 -0.29267614641E+03 -0.39137626602E+03  0.53403019462E+03  0.00000000000E+00 0.  1.
         22    1    1    2    0    0  0.29523234901E+03  0.36035160363E+03 -0.14727018660E+04  0.15446249396E+04  0.00000000000E+00 0. -1.
<mgrwt>
<rscale>  0 0.10249142E+04</rscale>
<asrwt>0</asrwt>
<pdfrwt beam="1">  1        2 0.33483035E+00 0.10249142E+04</pdfrwt>
<pdfrwt beam="2">  1       -2 0.18563655E-01 0.10249142E+04</pdfrwt>
<totfact> 0.13000972E+02</totfact>
</mgrwt>
</event>
<event>
 6    1  0.1885829E-005  0.2107337E+04  0.7818608E-02  0.8558018E-01
         -1   -1    0    0    0  501 -0.00000000000E+00  0.00000000000E+00  0.87422001235E+03  0.87422001235E+03  0.00000000000E+00 0.  1.
          1   -1    0    0  501    0  0.00000000000E+00 -0.00000000000E+00 -0.12699517955E+04  0.12699517955E+04  0.00000000000E+00 0. -1.
         23    2    1    2    0    0  0.77797816856E+03 -0.91171631099E+02  0.51596046065E+03  0.94219633202E+03  0.89198845527E+02 0.  0.
         11    1    3    3    0    0  0.38381993717E+03 -0.12788506696E+02  0.28930130899E+03  0.48080821276E+03  0.00000000000E+00 0.  1.
        -11    1    3    3    0    0  0.39415823139E+03 -0.78383124403E+02  0.22665915166E+03  0.46138811926E+03  0.00000000000E+00 0. -1.
         22    1    1    2    0    0 -0.77797816856E+03  0.91171631099E+02 -0.91169224381E+03  0.12019754758E+04  0.00000000000E+00 0. -1.
<mgrwt>
<rscale>  0 0.21073370E+04</rscale>
<asrwt>0</asrwt>
<pdfrwt beam="1">  1        1 0.19537720E+00 0.21073370E+04</pdfrwt>
<pdfrwt beam="2">  1       -1 0.13449539E+00 0.21073370E+04</pdfrwt>
<totfact> 0.40638770E+00</totfact>
</mgrwt>
</event>
<event>
 6    1  0.1885829E-005  0.1639202E+04  0.7818608E-02  0.8796820E-01
         -2   -1    0    0    0  501 -0.00000000000E+00  0.00000000000E+00  0.44240126239E+03  0.44240126239E+03  0.00000000000E+00 0.  1.
          2   -1    0    0  501    0  0.00000000000E+00 -0.00000000000E+00 -0.15184082536E+04  0.15184082536E+04  0.00000000000E+00 0. -1.
         23    2    1    2    0    0 -0.62399967407E+03  0.51954428872E+03 -0.41649244450E+03  0.91474006392E+03  0.63099659528E+02 0.  0.
         13    1    3    3    0    0 -0.37935945614E+03  0.27627068373E+03 -0.24769133183E+03  0.53065062284E+03  0.00000000000E+00 0.  1.
        -13    1    3    3    0    0 -0.24464021793E+03  0.24327360499E+03 -0.16880111267E+03  0.38408944108E+03  0.00000000000E+00 0. -1.
         22    1    1    2    0    0  0.62399967407E+03 -0.51954428872E+03 -0.65951454668E+03  0.10460694520E+04  0.00000000000E+00 0.  1.
<mgrwt>
<rscale>  0 0.16392019E+04</rscale>
<asrwt>0</asrwt>
<pdfrwt beam="1">  1        2 0.23360127E+00 0.16392019E+04</pdfrwt>
<pdfrwt beam="2">  1       -2 0.68061733E-01 0.16392019E+04</pdfrwt>
<totfact> 0.23414770E+01</totfact>
</mgrwt>
</event>
<event>
 6    1  0.1885829E-005  0.2260040E+04  0.7818608E-02  0.8493846E-01
          2   -1    0    0  501    0  0.00000000000E+00  0.00000000000E+00  0.38229660361E+04  0.38229660361E+04  0.00000000000E+00 0. -1.
         -2   -1    0    0    0  501 -0.00000000000E+00 -0.00000000000E+00 -0.33401944697E+03  0.33401944697E+03  0.00000000000E+00 0.  1.
         23    2    1    2    0    0 -0.76193125784E+03 -0.74533897994E+03  0.10672531768E+04  0.15111078555E+04  0.91368325310E+02 0.  0.
         11    1    3    3    0    0 -0.51143203342E+03 -0.44697398676E+03  0.64701943831E+03  0.93807389005E+03  0.00000000000E+00 0.  1.
        -11    1    3    3    0    0 -0.25049922442E+03 -0.29836499318E+03  0.42023373845E+03  0.57303396542E+03  0.00000000000E+00 0. -1.
         22    1    1    2    0    0  0.76193125784E+03  0.74533897994E+03  0.24216934123E+04  0.26458776276E+04  0.00000000000E+00 0. -1.
<mgrwt>
<rscale>  0 0.22600398E+04</rscale>
<asrwt>0</asrwt>
<pdfrwt beam="1">  1        2 0.58814859E+00 0.22600398E+04</pdfrwt>
<pdfrwt beam="2">  1       -2 0.51387610E-01 0.22600398E+04</pdfrwt>
<totfact> 0.15427075E+00</totfact>
</mgrwt>
</event>
<event>
 6    1  0.1885829E-005  0.2111090E+04  0.7818608E-02  0.8556374E-01
          2   -1    0    0  501    0  0.00000000000E+00  0.00000000000E+00  0.12248160716E+04  0.12248160716E+04  0.00000000000E+00 0. -1.
         -2   -1    0    0    0  501 -0.00000000000E+00 -0.00000000000E+00 -0.90966740802E+03  0.90966740802E+03  0.00000000000E+00 0.  1.
         23    2    1    2    0    0 -0.45935486812E+03 -0.13146819465E+03 -0.79158297902E+03  0.92901854450E+03  0.90449224824E+02 0.  0.
         11    1    3    3    0    0 -0.24819338313E+03 -0.10241219563E+03 -0.37680466021E+03  0.46267695555E+03  0.00000000000E+00 0.  1.
        -11    1    3    3    0    0 -0.21116148499E+03 -0.29055999015E+02 -0.41477831881E+03  0.46634158895E+03  0.00000000000E+00 0. -1.
         22    1    1    2    0    0  0.45935486812E+03  0.13146819465E+03  0.11067316426E+04  0.12054649352E+04  0.00000000000E+00 0. -1.
<mgrwt>
<rscale>  0 0.21110900E+04</rscale>
<asrwt>0</asrwt>
<pdfrwt beam="1">  1        2 0.18843324E+00 0.21110900E+04</pdfrwt>
<pdfrwt beam="2">  1       -2 0.13994883E+00 0.21110900E+04</pdfrwt>
<totfact> 0.60600585E+00</totfact>
</mgrwt>
</event>
<event>
 6    1  0.1885829E-005  0.2689366E+04  0.7818608E-02  0.8338463E-01
          1   -1    0    0  501    0  0.00000000000E+00  0.00000000000E+00  0.20964087891E+04  0.20964087891E+04  0.00000000000E+00 0. -1.
         -1   -1    0    0    0  501 -0.00000000000E+00 -0.00000000000E+00 -0.86250962488E+03  0.86250962488E+03  0.00000000000E+00 0.  1.
         23    2    1    2    0    0 -0.88978543147E+03  0.73154237770E+03 -0.14224220178E+03  0.11643049671E+04  0.92200043851E+02 0.  0.
         13    1    3    3    0    0 -0.45441999538E+03  0.39506585406E+03 -0.31016435100E+02  0.60293994766E+03  0.00000000000E+00 0.  1.
        -13    1    3    3    0    0 -0.43536543609E+03  0.33647652365E+03 -0.11122576668E+03  0.56136501947E+03  0.00000000000E+00 0. -1.
         22    1    1    2    0    0  0.88978543147E+03 -0.73154237770E+03  0.13761413660E+04  0.17946134469E+04  0.00000000000E+00 0. -1.
<mgrwt>
<rscale>  0 0.26893663E+04</rscale>
<asrwt>0</asrwt>
<pdfrwt beam="1">  1        1 0.32252443E+00 0.26893663E+04</pdfrwt>
<pdfrwt beam="2">  1       -1 0.13269379E+00 0.26893663E+04</pdfrwt>
<totfact> 0.10780243E+00</totfact>
</mgrwt>
</event>
<event>
 6    1  0.1885829E-005  0.1798022E+04  0.7818608E-02  0.8707352E-01
         -2   -1    0    0    0  501 -0.00000000000E+00  0.00000000000E+00  0.74478470771E+03  0.74478470771E+03  0.00000000000E+00 0. -1.
          2   -1    0    0  501    0  0.00000000000E+00 -0.00000000000E+00 -0.10851737542E+04  0.10851737542E+04  0.00000000000E+00 0.  1.
         23    2    1    2    0    0 -0.19233386595E+03 -0.87545649021E+03 -0.19516211126E+03  0.92193464891E+03  0.91972087854E+02 0.  0.
         11    1    3    3    0    0 -0.15840667180E+02 -0.37453774359E+02 -0.28033435401E+02  0.49392159811E+02  0.00000000000E+00 0. -1.
        -11    1    3    3    0    0 -0.17649319877E+03 -0.83800271585E+03 -0.16712867586E+03  0.87254248910E+03  0.00000000000E+00 0.  1.
         22    1    1    2    0    0  0.19233386595E+03  0.87545649021E+03 -0.14522693521E+03  0.90802381298E+03  0.00000000000E+00 0. -1.
<mgrwt>
<rscale>  0 0.17980220E+04</rscale>
<asrwt>0</asrwt>
<pdfrwt beam="1">  1        2 0.16694981E+00 0.17980220E+04</pdfrwt>
<pdfrwt beam="2">  1       -2 0.11458226E+00 0.17980220E+04</pdfrwt>
<totfact> 0.12501269E+01</totfact>
</mgrwt>
</event>
<event>
 6    1  0.1885829E-005  0.7327796E+03  0.7818608E-02  0.9662761E-01
         -2   -1    0    0    0  501 -0.00000000000E+00  0.00000000000E+00  0.91213878361E+02  0.91213878361E+02  0.00000000000E+00 0. -1.
          2   -1    0    0  501    0  0.00000000000E+00 -0.00000000000E+00 -0.14717220326E+04  0.14717220326E+04  0.00000000000E+00 0.  1.
         23    2    1    2    0    0 -0.12745259286E+03  0.27227368389E+03 -0.27510968709E+03  0.41738674416E+03  0.90273096242E+02 0.  0.
         11    1    3    3    0    0 -0.72476711061E+02  0.96610010866E+02 -0.61889746126E+02  0.13570817411E+03  0.00000000000E+00 0. -1.
        -11    1    3    3    0    0 -0.54975881802E+02  0.17566367303E+03 -0.21321994096E+03  0.28167857005E+03  0.00000000000E+00 0.  1.
         22    1    1    2    0    0  0.12745259286E+03 -0.27227368389E+03 -0.11053984672E+04  0.11455491668E+04  0.00000000000E+00 0.  1.
<mgrwt>
<rscale>  0 0.73277957E+03</rscale>
<asrwt>0</asrwt>
<pdfrwt beam="1">  1        2 0.22641879E+00 0.73277957E+03</pdfrwt>
<pdfrwt beam="2">  1       -2 0.14032904E-01 0.73277957E+03</pdfrwt>
<totfact> 0.52294533E+02</totfact>
</mgrwt>
</event>
<event>
 6    1  0.1885829E-005  0.1703048E+04  0.7818608E-02  0.8759628E-01
         -2   -1    0    0    0  501 -0.00000000000E+00  0.00000000000E+00  0.57281449508E+03  0.57281449508E+03  0.00000000000E+00 0.  1.
          2   -1    0    0  501    0  0.00000000000E+00 -0.00000000000E+00 -0.12658432550E+04  0.12658432550E+04  0.00000000000E+00 0. -1.
         23    2    1    2    0    0 -0.14446305056E+03 -0.50144992912E+03  0.37656144168E+03  0.64855489580E+03  0.80643221177E+02 0.  0.
         11    1    3    3    0    0 -0.63736312773E+02 -0.35598814834E+03  0.26107115931E+03  0.44603590611E+03  0.00000000000E+00 0.  1.
        -11    1    3    3    0    0 -0.80726737790E+02 -0.14546178078E+03  0.11549028237E+03  0.20251898969E+03  0.00000000000E+00 0. -1.
         22    1    1    2    0    0  0.14446305056E+03  0.50144992912E+03 -0.10695902016E+04  0.11901028542E+04  0.00000000000E+00 0. -1.
<mgrwt>
<rscale>  0 0.17030483E+04</rscale>
<asrwt>0</asrwt>
<pdfrwt beam="1">  1        2 0.19474511E+00 0.17030483E+04</pdfrwt>
<pdfrwt beam="2">  1       -2 0.88125308E-01 0.17030483E+04</pdfrwt>
<totfact> 0.18271518E+01</totfact>
</mgrwt>
</event>
<event>
 6    1  0.1885829E-005  0.4635730E+04  0.7818608E-02  0.7887296E-01
         -2   -1    0    0    0  501 -0.00000000000E+00  0.00000000000E+00  0.21176974307E+04  0.21176974307E+04  0.00000000000E+00 0.  1.
          2   -1    0    0  501    0  0.00000000000E+00 -0.00000000000E+00 -0.25369528024E+04  0.25369528024E+04  0.00000000000E+00 0. -1.
         23    2    1    2    0    0  0.10631525960E+04  0.16765069850E+04  0.98978034412E+03  0.22202404974E+04  0.93987356779E+02 0.  0.
         13    1    3    3    0    0  0.85655723538E+03  0.13097377984E+04  0.74432026531E+03  0.17329501018E+04  0.00000000000E+00 0.  1.
        -13    1    3    3    0    0  0.20659536066E+03  0.36676918661E+03  0.24546007881E+03  0.48729039553E+03  0.00000000000E+00 0. -1.
         22    1    1    2    0    0 -0.10631525960E+04 -0.16765069850E+04 -0.14090357158E+04  0.24344097358E+04  0.00000000000E+00 0. -1.
<mgrwt>
<rscale>  0 0.46357301E+04</rscale>
<asrwt>0</asrwt>
<pdfrwt beam="1">  1        2 0.39030043E+00 0.46357301E+04</pdfrwt>
<pdfrwt beam="2">  1       -2 0.32579960E+00 0.46357301E+04</pdfrwt>
<totfact> 0.54734335E-02</totfact>
</mgrwt>
</event>
<event>
 6    1  0.1885829E-005  0.1517882E+04  0.7818608E-02  0.8872648E-01
         -1   -1    0    0    0  501 -0.00000000000E+00  0.00000000000E+00  0.17349155109E+03  0.17349155109E+03  0.00000000000E+00 0.  1.
          1   -1    0    0  501    0  0.00000000000E+00 -0.00000000000E+00 -0.33199978874E+04  0.33199978874E+04  0.00000000000E+00 0. -1.
         23    2    1    2    0    0  0.20965944081E+03  0.13237496068E+03 -0.32231649984E+04  0.32339576258E+04  0.90604122915E+02 0.  0.
         13    1    3    3    0    0  0.16193428817E+03  0.14059897756E+03 -0.27357563246E+04  0.27441489489E+04  0.00000000000E+00 0.  1.
        -13    1    3    3    0    0  0.47725152638E+02 -0.82240168774E+01 -0.48740867381E+03  0.48980867689E+03  0.00000000000E+00 0. -1.
         22    1    1    2    0    0 -0.20965944081E+03 -0.13237496068E+03  0.76658662091E+02  0.25953181271E+03  0.00000000000E+00 0.  1.
<mgrwt>
<rscale>  0 0.15178822E+04</rscale>
<asrwt>0</asrwt>
<pdfrwt beam="1">  1        1 0.51076893E+00 0.15178822E+04</pdfrwt>
<pdfrwt beam="2">  1       -1 0.26691007E-01 0.15178822E+04</pdfrwt>
<totfact> 0.42053618E+00</totfact>
</mgrwt>
</event>
<event>
 6    1  0.1885829E-005  0.2607792E+04  0.7818608E-02  0.8365559E-01
         -2   -1    0    0    0  501 -0.00000000000E+00  0.00000000000E+00  0.17884175279E+04  0.17884175279E+04  0.00000000000E+00 0.  1.
          2   -1    0    0  501    0  0.00000000000E+00 -0.00000000000E+00 -0.95064217921E+03  0.95064217921E+03  0.00000000000E+00 0. -1.
         23    2    1    2    0    0 -0.11720653663E+04 -0.56712521777E+03  0.45047124984E+03  0.13806147504E+04  0.88343118683E+02 0.  0.
         13    1    3    3    0    0 -0.52599355976E+03 -0.24109991485E+03  0.15560565149E+03  0.59917569429E+03  0.00000000000E+00 0. -1.
        -13    1    3    3    0    0 -0.64607180652E+03 -0.32602530292E+03  0.29486559835E+03  0.78143905611E+03  0.00000000000E+00 0.  1.
         22    1    1    2    0    0  0.11720653663E+04  0.56712521777E+03  0.38730409884E+03  0.13584449567E+04  0.00000000000E+00 0. -1.
<mgrwt>
<rscale>  0 0.26077923E+04</rscale>
<asrwt>0</asrwt>
<pdfrwt beam="1">  1        2 0.14625264E+00 0.26077923E+04</pdfrwt>
<pdfrwt beam="2">  1       -2 0.27514116E+00 0.26077923E+04</pdfrwt>
<totfact> 0.10810317E+00</totfact>
</mgrwt>
</event>
<event>
 6    1  0.1885829E-005  0.1650906E+04  0.7818608E-02  0.8789871E-01
          2   -1    0    0  501    0  0.00000000000E+00  0.00000000000E+00  0.94377853940E+03  0.94377853940E+03  0.00000000000E+00 0. -1.
         -2   -1    0    0    0  501 -0.00000000000E+00 -0.00000000000E+00 -0.72196263234E+03  0.72196263234E+03  0.00000000000E+00 0.  1.
         23    2    1    2    0    0  0.37073480218E+03  0.68875817649E+03 -0.14789718038E+03  0.80057073406E+03  0.84898792915E+02 0.  0.
         11    1    3    3    0    0  0.28107511442E+03  0.43744607765E+03 -0.98007159431E+02  0.52911973513E+03  0.00000000000E+00 0.  1.
        -11    1    3    3    0    0  0.89659687755E+02  0.25131209884E+03 -0.49890020946E+02  0.27145099893E+03  0.00000000000E+00 0. -1.
         22    1    1    2    0    0 -0.37073480218E+03 -0.68875817649E+03  0.36971308743E+03  0.86517043769E+03  0.00000000000E+00 0. -1.
<mgrwt>
<rscale>  0 0.16509062E+04</rscale>
<asrwt>0</asrwt>
<pdfrwt beam="1">  1        2 0.14519670E+00 0.16509062E+04</pdfrwt>
<pdfrwt beam="2">  1       -2 0.11107117E+00 0.16509062E+04</pdfrwt>
<totfact> 0.16802848E+01</totfact>
</mgrwt>
</event>
<event>
 6    1  0.1885829E-005  0.2452495E+04  0.7818608E-02  0.8420108E-01
          1   -1    0    0  501    0  0.00000000000E+00  0.00000000000E+00  0.16037248093E+04  0.16037248093E+04  0.00000000000E+00 0. -1.
         -1   -1    0    0    0  501 -0.00000000000E+00 -0.00000000000E+00 -0.93761920737E+03  0.93761920737E+03  0.00000000000E+00 0.  1.
         23    2    1    2    0    0 -0.55974322433E+03  0.82353756247E+03 -0.40538970093E+03  0.10785970194E+04  0.86626362344E+02 0.  0.
         11    1    3    3    0    0 -0.32849681180E+03  0.54984726356E+03 -0.24037967099E+03  0.68412320150E+03  0.00000000000E+00 0. -1.
        -11    1    3    3    0    0 -0.23124641253E+03  0.27369029891E+03 -0.16501002994E+03  0.39447381790E+03  0.00000000000E+00 0.  1.
         22    1    1    2    0    0  0.55974322433E+03 -0.82353756247E+03  0.10714953029E+04  0.14627469973E+04  0.00000000000E+00 0.  1.
<mgrwt>
<rscale>  0 0.24524952E+04</rscale>
<asrwt>0</asrwt>
<pdfrwt beam="1">  1        1 0.24672689E+00 0.24524952E+04</pdfrwt>
<pdfrwt beam="2">  1       -1 0.14424911E+00 0.24524952E+04</pdfrwt>
<totfact> 0.19170252E+00</totfact>
</mgrwt>
</event>
<event>
 6    1  0.1885829E-005  0.2129351E+04  0.7818608E-02  0.8548423E-01
         -2   -1    0    0    0  501 -0.00000000000E+00  0.00000000000E+00  0.73048830499E+03  0.73048830499E+03  0.00000000000E+00 0.  1.
          2   -1    0    0  501    0  0.00000000000E+00 -0.00000000000E+00 -0.15517482393E+04  0.15517482393E+04  0.00000000000E+00 0. -1.
         23    2    1    2    0    0 -0.39854782085E+03  0.91977301729E+03 -0.32322341425E+02  0.10066012930E+04  0.85899129895E+02 0.  0.
         13    1    3    3    0    0 -0.53085279853E+02  0.21065435122E+03 -0.28719996413E+01  0.21725917934E+03  0.00000000000E+00 0.  1.
        -13    1    3    3    0    0 -0.34546254100E+03  0.70911866607E+03 -0.29450341783E+02  0.78934211369E+03  0.00000000000E+00 0. -1.
         22    1    1    2    0    0  0.39854782085E+03 -0.91977301729E+03 -0.78893759294E+03  0.12756352513E+04  0.00000000000E+00 0.  1.
<mgrwt>
<rscale>  0 0.21293510E+04</rscale>
<asrwt>0</asrwt>
<pdfrwt beam="1">  1        2 0.23873050E+00 0.21293510E+04</pdfrwt>
<pdfrwt beam="2">  1       -2 0.11238282E+00 0.21293510E+04</pdfrwt>
<totfact> 0.68066513E+00</totfact>
</mgrwt>
</event>
<event>
 6    1  0.1885829E-005  0.1825621E+04  0.7818608E-02  0.8692792E-01
         -2   -1    0    0    0  501 -0.00000000000E+00  0.00000000000E+00  0.23541897964E+03  0.23541897964E+03  0.00000000000E+00 0.  1.
          2   -1    0    0  501    0  0.00000000000E+00 -0.00000000000E+00 -0.35393190516E+04  0.35393190516E+04  0.00000000000E+00 0. -1.
         23    2    1    2    0    0 -0.76799805675E+03  0.28379360040E+03 -0.24799060019E+04  0.26131330853E+04  0.90393145148E+02 0.  0.
         13    1    3    3    0    0 -0.28560581286E+03  0.10628618703E+03 -0.10654937352E+04  0.11082167358E+04  0.00000000000E+00 0. -1.
        -13    1    3    3    0    0 -0.48239224389E+03  0.17750741337E+03 -0.14144122667E+04  0.15049163495E+04  0.00000000000E+00 0.  1.
         22    1    1    2    0    0  0.76799805675E+03 -0.28379360040E+03 -0.82399407006E+03  0.11616049459E+04  0.00000000000E+00 0.  1.
<mgrwt>
<rscale>  0 0.18256209E+04</rscale>
<asrwt>0</asrwt>
<pdfrwt beam="1">  1        2 0.54451057E+00 0.18256209E+04</pdfrwt>
<pdfrwt beam="2">  1       -2 0.36218308E-01 0.18256209E+04</pdfrwt>
<totfact> 0.51977674E+00</totfact>
</mgrwt>
</event>
<event>
 6    1  0.1885829E-005  0.2966623E+04  0.7818608E-02  0.8253327E-01
          2   -1    0    0  501    0  0.00000000000E+00  0.00000000000E+00  0.42264525095E+04  0.42264525095E+04  0.00000000000E+00 0.  1.
         -2   -1    0    0    0  501 -0.00000000000E+00 -0.00000000000E+00 -0.52058142520E+03  0.52058142520E+03  0.00000000000E+00 0. -1.
         23    2    1    2    0    0 -0.90848829940E+03 -0.48517201542E+03  0.35595660646E+04  0.37067704905E+04  0.94308145412E+02 0.  0.
         11    1    3    3    0    0 -0.54761604820E+03 -0.30753579524E+03  0.20090629941E+04  0.21049455375E+04  0.00000000000E+00 0.  1.
        -11    1    3    3    0    0 -0.36087225120E+03 -0.17763622018E+03  0.15505030705E+04  0.16018249530E+04  0.00000000000E+00 0. -1.
         22    1    1    2    0    0  0.90848829940E+03  0.48517201542E+03  0.14630501978E+03  0.10402634443E+04  0.00000000000E+00 0. -1.
<mgrwt>
<rscale>  0 0.29666228E+04</rscale>
<asrwt>0</asrwt>
<pdfrwt beam="1">  1        2 0.65022344E+00 0.29666228E+04</pdfrwt>
<pdfrwt beam="2">  1       -2 0.80089453E-01 0.29666228E+04</pdfrwt>
<totfact> 0.26087542E-01</totfact>
</mgrwt>
</event>
<event>
 6    1  0.1885829E-005  0.1802812E+04  0.7818608E-02  0.8704806E-01
          2   -1    0    0  501    0  0.00000000000E+00  0.00000000000E+00  0.38739401009E+04  0.38739401009E+04  0.00000000000E+00 0. -1.
         -2   -1    0    0    0  501 -0.00000000000E+00 -0.00000000000E+00 -0.20974323256E+03  0.20974323256E+03  0.00000000000E+00 0.  1.
         23    2    1    2    0    0  0.87835255294E+03 -0.19220996111E+03  0.18507029168E+04  0.20595271663E+04  0.90016589589E+02 0.  0.
         11    1    3    3    0    0  0.60356947096E+03 -0.17393032483E+03  0.13013957187E+04  0.14450531758E+04  0.00000000000E+00 0. -1.
        -11    1    3    3    0    0  0.27478308198E+03 -0.18279636286E+02  0.54930719805E+03  0.61447399055E+03  0.00000000000E+00 0.  1.
         22    1    1    2    0    0 -0.87835255294E+03  0.19220996111E+03  0.18134939516E+04  0.20241561671E+04  0.00000000000E+00 0.  1.
<mgrwt>
<rscale>  0 0.18028119E+04</rscale>
<asrwt>0</asrwt>
<pdfrwt beam="1">  1        2 0.59599073E+00 0.18028119E+04</pdfrwt>
<pdfrwt beam="2">  1       -2 0.32268193E-01 0.18028119E+04</pdfrwt>
<totfact> 0.36827538E+00</totfact>
</mgrwt>
</event>
<event>
 6    1  0.1885829E-005  0.3345758E+04  0.7818608E-02  0.8151349E-01
          1   -1    0    0  501    0  0.00000000000E+00  0.00000000000E+00  0.29748572403E+04  0.29748572403E+04  0.00000000000E+00 0.  1.
         -1   -1    0    0    0  501 -0.00000000000E+00 -0.00000000000E+00 -0.94072575011E+03  0.94072575011E+03  0.00000000000E+00 0. -1.
         23    2    1    2    0    0  0.21753590154E+03  0.16104751464E+04  0.14763962537E+04  0.21974384506E+04  0.89653669487E+02 0.  0.
         11    1    3    3    0    0  0.19029616207E+03  0.13636173271E+04  0.12064388210E+04  0.18306172383E+04  0.00000000000E+00 0. -1.
        -11    1    3    3    0    0  0.27239739468E+02  0.24685781929E+03  0.26995743264E+03  0.36682121229E+03  0.00000000000E+00 0.  1.
         22    1    1    2    0    0 -0.21753590154E+03 -0.16104751464E+04  0.55773523650E+03  0.17181445398E+04  0.00000000000E+00 0. -1.
<mgrwt>
<rscale>  0 0.33457584E+04</rscale>
<asrwt>0</asrwt>
<pdfrwt beam="1">  1        1 0.45767034E+00 0.33457584E+04</pdfrwt>
<pdfrwt beam="2">  1       -1 0.14472704E+00 0.33457584E+04</pdfrwt>
<totfact> 0.19772011E-01</totfact>
</mgrwt>
</event>
<event>
 6    1  0.1885829E-005  0.1042747E+04  0.7818608E-02  0.9262864E-01
         -2   -1    0    0    0  501 -0.00000000000E+00  0.00000000000E+00  0.18671753362E+03  0.18671753362E+03  0.00000000000E+00 0.  1.
          2   -1    0    0  501    0  0.00000000000E+00 -0.00000000000E+00 -0.14558380351E+04  0.14558380351E+04  0.00000000000E+00 0. -1.
         23    2    1    2    0    0  0.13281037852E+03 -0.49240256863E+03 -0.77699583703E+03  0.93383448706E+03  0.90694168597E+02 0.  0.
         11    1    3    3    0    0  0.81088941952E+02 -0.26751159831E+03 -0.50441741463E+03  0.57669298584E+03  0.00000000000E+00 0.  1.
        -11    1    3    3    0    0  0.51721436565E+02 -0.22489097032E+03 -0.27257842241E+03  0.35714150122E+03  0.00000000000E+00 0. -1.
         22    1    1    2    0    0 -0.13281037852E+03  0.49240256863E+03 -0.49212466444E+03  0.70872108165E+03  0.00000000000E+00 0.  1.
<mgrwt>
<rscale>  0 0.10427473E+04</rscale>
<asrwt>0</asrwt>
<pdfrwt beam="1">  1        2 0.22397508E+00 0.10427473E+04</pdfrwt>
<pdfrwt beam="2">  1       -2 0.28725774E-01 0.10427473E+04</pdfrwt>
<totfact> 0.14876866E+02</totfact>
</mgrwt>
</event>
<event>
 6    1  0.1885829E-005  0.4613279E+04  0.7818608E-02  0.7891100E-01
         -2   -1    0    0    0  501 -0.00000000000E+00  0.00000000000E+00  0.32427906368E+04  0.32427906368E+04  0.00000000000E+00 0.  1.
          2   -1    0    0  501    0  0.00000000000E+00 -0.00000000000E+00 -0.16407427408E+04  0.16407427408E+04  0.00000000000E+00 0. -1.
         23    2    1    2    0    0  0.20821901783E+04  0.25395038340E+03  0.18147557895E+04  0.27751568971E+04  0.90280075797E+02 0.  0.
         13    1    3    3    0    0  0.13070810667E+04  0.11683570671E+03  0.11196348947E+04  0.17250199404E+04  0.00000000000E+00 0.  1.
        -13    1    3    3    0    0  0.77510911162E+03  0.13711467670E+03  0.69512089477E+03  0.10501369567E+04  0.00000000000E+00 0. -1.
         22    1    1    2    0    0 -0.20821901783E+04 -0.25395038340E+03 -0.21270789348E+03  0.21083764805E+04  0.00000000000E+00 0. -1.
<mgrwt>
<rscale>  0 0.46132787E+04</rscale>
<asrwt>0</asrwt>
<pdfrwt beam="1">  1        2 0.25242196E+00 0.46132787E+04</pdfrwt>
<pdfrwt beam="2">  1       -2 0.49889087E+00 0.46132787E+04</pdfrwt>
<totfact> 0.13375668E-02</totfact>
</mgrwt>
</event>
<event>
 6    1  0.1885829E-005  0.1174405E+04  0.7818608E-02  0.9135559E-01
         -2   -1    0    0    0  501 -0.00000000000E+00  0.00000000000E+00  0.45950732735E+03  0.45950732735E+03  0.00000000000E+00 0.  1.
          2   -1    0    0  501    0  0.00000000000E+00 -0.00000000000E+00 -0.75038407062E+03  0.75038407062E+03  0.00000000000E+00 0. -1.
         23    2    1    2    0    0  0.17838475530E+03  0.55114073837E+03 -0.22161842994E+03  0.62647563852E+03  0.88202963389E+02 0.  0.
         13    1    3    3    0    0  0.34370691391E+02  0.15827892786E+03 -0.24022219138E+02  0.16373952010E+03  0.00000000000E+00 0. -1.
        -13    1    3    3    0    0  0.14401406391E+03  0.39286181051E+03 -0.19759621080E+03  0.46273611841E+03  0.00000000000E+00 0.  1.
         22    1    1    2    0    0 -0.17838475530E+03 -0.55114073837E+03 -0.69258313326E+02  0.58341575946E+03  0.00000000000E+00 0. -1.
<mgrwt>
<rscale>  0 0.11744053E+04</rscale>
<asrwt>0</asrwt>
<pdfrwt beam="1">  1        2 0.11544370E+00 0.11744053E+04</pdfrwt>
<pdfrwt beam="2">  1       -2 0.70693435E-01 0.11744053E+04</pdfrwt>
<totfact> 0.67416107E+01</totfact>
</mgrwt>
</event>
<event>
 6    1  0.1885829E-005  0.3302370E+04  0.7818608E-02  0.8162293E-01
         -2   -1    0    0    0  501 -0.00000000000E+00  0.00000000000E+00  0.79301511308E+03  0.79301511308E+03  0.00000000000E+00 0. -1.
          2   -1    0    0  501    0  0.00000000000E+00 -0.00000000000E+00 -0.34380318684E+04  0.34380318684E+04  0.00000000000E+00 0.  1.
         23    2    1    2    0    0  0.19496354960E+03  0.11555495663E+04 -0.28115286212E+04  0.30473950954E+04  0.92833691106E+02 0.  0.
         13    1    3    3    0    0  0.65253575075E+02  0.66321261604E+03 -0.15923246661E+04  0.17261537723E+04  0.00000000000E+00 0. -1.
        -13    1    3    3    0    0  0.12970997452E+03  0.49233695025E+03 -0.12192039550E+04  0.13212413232E+04  0.00000000000E+00 0.  1.
         22    1    1    2    0    0 -0.19496354960E+03 -0.11555495663E+04  0.16651186587E+03  0.11836518860E+04  0.00000000000E+00 0. -1.
<mgrwt>
<rscale>  0 0.33023696E+04</rscale>
<asrwt>0</asrwt>
<pdfrwt beam="1">  1        2 0.52892799E+00 0.33023696E+04</pdfrwt>
<pdfrwt beam="2">  1       -2 0.12200232E+00 0.33023696E+04</pdfrwt>
<totfact> 0.38147900E-01</totfact>
</mgrwt>
</event>
<event>
 6    1  0.1885829E-005  0.8843771E+03  0.7818608E-02  0.9445324E-01
          2   -1    0    0  501    0  0.00000000000E+00  0.00000000000E+00  0.41183636445E+03  0.41183636445E+03  0.00000000000E+00 0.  1.
         -2   -1    0    0    0  501 -0.00000000000E+00 -0.00000000000E+00 -0.47477771337E+03  0.47477771337E+03  0.00000000000E+00 0. -1.
         23    2    1    2    0    0  0.42534271845E+03  0.60550537686E+02  0.50898917777E+02  0.44215665345E+03  0.91263413282E+02 0.  0.
         11    1    3    3    0    0  0.18528463967E+03 -0.54415004359E+01 -0.10742912200E+02  0.18567557133E+03  0.00000000000E+00 0. -1.
        -11    1    3    3    0    0  0.24005807878E+03  0.65992038122E+02  0.61641829976E+02  0.25648108212E+03  0.00000000000E+00 0.  1.
         22    1    1    2    0    0 -0.42534271845E+03 -0.60550537686E+02 -0.11384026669E+03  0.44445742437E+03  0.00000000000E+00 0. -1.
<mgrwt>
<rscale>  0 0.88437713E+03</rscale>
<asrwt>0</asrwt>
<pdfrwt beam="1">  1        2 0.63359441E-01 0.88437713E+03</pdfrwt>
<pdfrwt beam="2">  1       -2 0.73042725E-01 0.88437713E+03</pdfrwt>
<totfact> 0.13087077E+02</totfact>
</mgrwt>
</event>
<event>
 6    1  0.1885829E-005  0.2782883E+04  0.7818608E-02  0.8308602E-01
         -2   -1    0    0    0  501 -0.00000000000E+00  0.00000000000E+00  0.18102539129E+04  0.18102539129E+04  0.00000000000E+00 0.  1.
          2   -1    0    0  501    0  0.00000000000E+00 -0.00000000000E+00 -0.10695235298E+04  0.10695235298E+04  0.00000000000E+00 0. -1.
         23    2    1    2    0    0  0.38823951991E+03 -0.11996769765E+04  0.97573987276E+03  0.15971300894E+04  0.93816045071E+02 0.  0.
         11    1    3    3    0    0  0.13294886187E+03 -0.31333886220E+03  0.30004218533E+03  0.45374216843E+03  0.00000000000E+00 0.  1.
        -11    1    3    3    0    0  0.25529065804E+03 -0.88633811433E+03  0.67569768743E+03  0.11433879210E+04  0.00000000000E+00 0. -1.
         22    1    1    2    0    0 -0.38823951991E+03  0.11996769765E+04 -0.23500948970E+03  0.12826473534E+04  0.00000000000E+00 0. -1.
<mgrwt>
<rscale>  0 0.27828828E+04</rscale>
<asrwt>0</asrwt>
<pdfrwt beam="1">  1        2 0.16454208E+00 0.27828828E+04</pdfrwt>
<pdfrwt beam="2">  1       -2 0.27850060E+00 0.27828828E+04</pdfrwt>
<totfact> 0.85284800E-01</totfact>
</mgrwt>
</event>
<event>
 6    1  0.1885829E-005  0.1800350E+04  0.7818608E-02  0.8706113E-01
          2   -1    0    0  501    0  0.00000000000E+00  0.00000000000E+00  0.11842555057E+04  0.11842555057E+04  0.00000000000E+00 0. -1.
         -2   -1    0    0    0  501 -0.00000000000E+00 -0.00000000000E+00 -0.68424038169E+03  0.68424038169E+03  0.00000000000E+00 0.  1.
         23    2    1    2    0    0 -0.23257147523E+02  0.49235193368E+03 -0.52850763630E+03  0.72796513815E+03  0.87530561606E+02 0.  0.
         11    1    3    3    0    0 -0.49092288989E+02  0.16258179384E+03 -0.17930725861E+03  0.24696960444E+03  0.00000000000E+00 0. -1.
        -11    1    3    3    0    0  0.25835141466E+02  0.32977013985E+03 -0.34920037769E+03  0.48099553371E+03  0.00000000000E+00 0.  1.
         22    1    1    2    0    0  0.23257147523E+02 -0.49235193368E+03  0.10285227603E+04  0.11405307493E+04  0.00000000000E+00 0. -1.
<mgrwt>
<rscale>  0 0.18003505E+04</rscale>
<asrwt>0</asrwt>
<pdfrwt beam="1">  1        2 0.18219315E+00 0.18003505E+04</pdfrwt>
<pdfrwt beam="2">  1       -2 0.10526775E+00 0.18003505E+04</pdfrwt>
<totfact> 0.13353384E+01</totfact>
</mgrwt>
</event>
<event>
 6    1  0.1885829E-005  0.1267133E+04  0.7818608E-02  0.9056043E-01
         -2   -1    0    0    0  501 -0.00000000000E+00  0.00000000000E+00  0.27096652765E+03  0.27096652765E+03  0.00000000000E+00 0.  1.
          2   -1    0    0  501    0  0.00000000000E+00 -0.00000000000E+00 -0.14813886657E+04  0.14813886657E+04  0.00000000000E+00 0. -1.
         23    2    1    2    0    0  0.36431934494E+03 -0.44210128195E+03 -0.23701195043E+03  0.62288207637E+03  0.60210363045E+02 0.  0.
         13    1    3    3    0    0  0.23900956716E+03 -0.27268279080E+03 -0.17864911218E+03  0.40422392665E+03  0.00000000000E+00 0.  1.
        -13    1    3    3    0    0  0.12530977778E+03 -0.16941849115E+03 -0.58362838242E+02  0.21865814972E+03  0.00000000000E+00 0. -1.
         22    1    1    2    0    0 -0.36431934494E+03  0.44210128195E+03 -0.97341018758E+03  0.11294731169E+04  0.00000000000E+00 0. -1.
<mgrwt>
<rscale>  0 0.12671334E+04</rscale>
<asrwt>0</asrwt>
<pdfrwt beam="1">  1        2 0.22790595E+00 0.12671334E+04</pdfrwt>
<pdfrwt beam="2">  1       -2 0.41687158E-01 0.12671334E+04</pdfrwt>
<totfact> 0.69630188E+01</totfact>
</mgrwt>
</event>
<event>
 6    1  0.1885829E-005  0.2579802E+04  0.7818608E-02  0.8375095E-01
         -2   -1    0    0    0  501 -0.00000000000E+00  0.00000000000E+00  0.13676112967E+04  0.13676112967E+04  0.00000000000E+00 0.  1.
          2   -1    0    0  501    0  0.00000000000E+00 -0.00000000000E+00 -0.12166062202E+04  0.12166062202E+04  0.00000000000E+00 0. -1.
         23    2    1    2    0    0 -0.10364744298E+04 -0.76378720982E+03  0.12102220618E+03  0.12963708187E+04  0.90998789499E+02 0.  0.
         13    1    3    3    0    0 -0.77952506364E+03 -0.55181446601E+03  0.53999794259E+02  0.95659526839E+03  0.00000000000E+00 0. -1.
        -13    1    3    3    0    0 -0.25694936618E+03 -0.21197274381E+03  0.67022411920E+02  0.33977555032E+03  0.00000000000E+00 0.  1.
         22    1    1    2    0    0  0.10364744298E+04  0.76378720982E+03  0.29982870291E+02  0.12878466982E+04  0.00000000000E+00 0. -1.
<mgrwt>
<rscale>  0 0.25798019E+04</rscale>
<asrwt>0</asrwt>
<pdfrwt beam="1">  1        2 0.18717019E+00 0.25798019E+04</pdfrwt>
<pdfrwt beam="2">  1       -2 0.21040174E+00 0.25798019E+04</pdfrwt>
<totfact> 0.18671486E+00</totfact>
</mgrwt>
</event>
<event>
 6    1  0.1885829E-005  0.4997610E+04  0.7818608E-02  0.7828876E-01
         -2   -1    0    0    0  501 -0.00000000000E+00  0.00000000000E+00  0.22858283438E+04  0.22858283438E+04  0.00000000000E+00 0.  1.
          2   -1    0    0  501    0  0.00000000000E+00 -0.00000000000E+00 -0.27316254506E+04  0.27316254506E+04  0.00000000000E+00 0. -1.
         23    2    1    2    0    0 -0.26716620530E+03  0.16386218396E+04  0.16509806182E+04  0.23429564319E+04  0.85138275771E+02 0.  0.
         11    1    3    3    0    0 -0.12856322376E+03  0.90827477788E+03  0.96489965559E+03  0.13313613033E+04  0.00000000000E+00 0.  1.
        -11    1    3    3    0    0 -0.13860298154E+03  0.73034706168E+03  0.68608096258E+03  0.10115951286E+04  0.00000000000E+00 0. -1.
         22    1    1    2    0    0  0.26716620530E+03 -0.16386218396E+04 -0.20967777250E+04  0.26744973626E+04  0.00000000000E+00 0. -1.
<mgrwt>
<rscale>  0 0.49976102E+04</rscale>
<asrwt>0</asrwt>
<pdfrwt beam="1">  1        2 0.42025007E+00 0.49976102E+04</pdfrwt>
<pdfrwt beam="2">  1       -2 0.35166590E+00 0.49976102E+04</pdfrwt>
<totfact> 0.28113345E-02</totfact>
</mgrwt>
</event>
<event>
 6    1  0.1885829E-005  0.1668979E+04  0.7818608E-02  0.8779257E-01
         -2   -1    0    0    0  501 -0.00000000000E+00  0.00000000000E+00  0.74353200758E+03  0.74353200758E+03  0.00000000000E+00 0.  1.
          2   -1    0    0  501    0  0.00000000000E+00 -0.00000000000E+00 -0.93657425814E+03  0.93657425814E+03  0.00000000000E+00 0. -1.
         23    2    1    2    0    0  0.29967099144E+03  0.77061848985E+03 -0.19157093628E+03  0.85327029361E+03  0.87836269946E+02 0.  0.
         11    1    3    3    0    0  0.18050782103E+03  0.49354989486E+03 -0.16345083954E+03  0.55035511183E+03  0.00000000000E+00 0.  1.
        -11    1    3    3    0    0  0.11916317041E+03  0.27706859498E+03 -0.28120096737E+02  0.30291518177E+03  0.00000000000E+00 0. -1.
         22    1    1    2    0    0 -0.29967099144E+03 -0.77061848985E+03 -0.14713142748E+01  0.82683597211E+03  0.00000000000E+00 0.  1.
<mgrwt>
<rscale>  0 0.16689793E+04</rscale>
<asrwt>0</asrwt>
<pdfrwt beam="1">  1        2 0.14408835E+00 0.16689793E+04</pdfrwt>
<pdfrwt beam="2">  1       -2 0.11438954E+00 0.16689793E+04</pdfrwt>
<totfact> 0.15790932E+01</totfact>
</mgrwt>
</event>
<event>
 6    1  0.1885829E-005  0.2753103E+04  0.7818608E-02  0.8317978E-01
          2   -1    0    0  501    0  0.00000000000E+00  0.00000000000E+00  0.95521905896E+03  0.95521905896E+03  0.00000000000E+00 0. -1.
         -2   -1    0    0    0  501 -0.00000000000E+00 -0.00000000000E+00 -0.19837279029E+04  0.19837279029E+04  0.00000000000E+00 0.  1.
         23    2    1    2    0    0  0.49492314829E+03 -0.12658276981E+04 -0.73657268285E+03  0.15488047367E+04  0.94805649965E+02 0.  0.
         11    1    3    3    0    0  0.27807548750E+03 -0.72166532525E+03 -0.36567956887E+03  0.85548136479E+03  0.00000000000E+00 0. -1.
        -11    1    3    3    0    0  0.21684766079E+03 -0.54416237285E+03 -0.37089311398E+03  0.69332337190E+03  0.00000000000E+00 0.  1.
         22    1    1    2    0    0 -0.49492314829E+03  0.12658276981E+04 -0.29193616106E+03  0.13901422251E+04  0.00000000000E+00 0. -1.
<mgrwt>
<rscale>  0 0.27531035E+04</rscale>
<asrwt>0</asrwt>
<pdfrwt beam="1">  1        2 0.14695678E+00 0.27531035E+04</pdfrwt>
<pdfrwt beam="2">  1       -2 0.30518891E+00 0.27531035E+04</pdfrwt>
<totfact> 0.69501144E-01</totfact>
</mgrwt>
</event>
<event>
 6    1  0.1885829E-005  0.4466710E+04  0.7818608E-02  0.7916491E-01
         -2   -1    0    0    0  501 -0.00000000000E+00  0.00000000000E+00  0.12209145118E+04  0.12209145118E+04  0.00000000000E+00 0.  1.
          2   -1    0    0  501    0  0.00000000000E+00 -0.00000000000E+00 -0.40853590899E+04  0.40853590899E+04  0.00000000000E+00 0. -1.
         23    2    1    2    0    0 -0.17809459968E+04  0.64847545856E+03 -0.28341389737E+04  0.34106978333E+04  0.90702392190E+02 0.  0.
         13    1    3    3    0    0 -0.53158773220E+03  0.14976062433E+03 -0.82185955445E+03  0.99018528007E+03  0.00000000000E+00 0.  1.
        -13    1    3    3    0    0 -0.12493582646E+04  0.49871483422E+03 -0.20122794192E+04  0.24205125532E+04  0.00000000000E+00 0. -1.
         22    1    1    2    0    0  0.17809459968E+04 -0.64847545856E+03 -0.30305604388E+02  0.18955757684E+04  0.00000000000E+00 0.  1.
<mgrwt>
<rscale>  0 0.44667098E+04</rscale>
<asrwt>0</asrwt>
<pdfrwt beam="1">  1        2 0.62851678E+00 0.44667098E+04</pdfrwt>
<pdfrwt beam="2">  1       -2 0.18783300E+00 0.44667098E+04</pdfrwt>
<totfact> 0.35282426E-02</totfact>
</mgrwt>
</event>
<event>
 6    1  0.1885829E-005  0.3352813E+04  0.7818608E-02  0.8149586E-01
          2   -1    0    0  501    0  0.00000000000E+00  0.00000000000E+00  0.22538390045E+04  0.22538390045E+04  0.00000000000E+00 0. -1.
         -2   -1    0    0    0  501 -0.00000000000E+00 -0.00000000000E+00 -0.12469123013E+04  0.12469123013E+04  0.00000000000E+00 0.  1.
         23    2    1    2    0    0 -0.59586872856E+03 -0.55895533974E+03 -0.10230814919E+04  0.13125045450E+04  0.92096841190E+02 0.  0.
         11    1    3    3    0    0 -0.30640417972E+03 -0.34196882096E+03 -0.60801784588E+03  0.76191331316E+03  0.00000000000E+00 0. -1.
        -11    1    3    3    0    0 -0.28946454884E+03 -0.21698651878E+03 -0.41506364601E+03  0.55059123186E+03  0.00000000000E+00 0.  1.
         22    1    1    2    0    0  0.59586872856E+03  0.55895533974E+03  0.20300081951E+04  0.21882467607E+04  0.00000000000E+00 0. -1.
<mgrwt>
<rscale>  0 0.33528135E+04</rscale>
<asrwt>0</asrwt>
<pdfrwt beam="1">  1        2 0.34674446E+00 0.33528135E+04</pdfrwt>
<pdfrwt beam="2">  1       -2 0.19183266E+00 0.33528135E+04</pdfrwt>
<totfact> 0.60336234E-01</totfact>
</mgrwt>
</event>
<event>
 6    1  0.1885829E-005  0.2614716E+04  0.7818608E-02  0.8363220E-01
         -2   -1    0    0    0  501 -0.00000000000E+00  0.00000000000E+00  0.76633897246E+03  0.76633897246E+03  0.00000000000E+00 0.  1.
          2   -1    0    0  501    0  0.00000000000E+00 -0.00000000000E+00 -0.22303246084E+04  0.22303246084E+04  0.00000000000E+00 0. -1.
         23    2    1    2    0    0 -0.88505973803E+03 -0.95827344429E+03 -0.79986025651E+03  0.15328735503E+04  0.91138122610E+02 0.  0.
         11    1    3    3    0    0 -0.43413656134E+03 -0.40399401121E+03 -0.35448994071E+03  0.69090435883E+03  0.00000000000E+00 0.  1.
        -11    1    3    3    0    0 -0.45092317669E+03 -0.55427943308E+03 -0.44537031580E+03  0.84196919149E+03  0.00000000000E+00 0. -1.
         22    1    1    2    0    0  0.88505973803E+03  0.95827344429E+03 -0.66412537942E+03  0.14637900305E+04  0.00000000000E+00 0.  1.
<mgrwt>
<rscale>  0 0.26147158E+04</rscale>
<asrwt>0</asrwt>
<pdfrwt beam="1">  1        2 0.34312686E+00 0.26147158E+04</pdfrwt>
<pdfrwt beam="2">  1       -2 0.11789830E+00 0.26147158E+04</pdfrwt>
<totfact> 0.24330028E+00</totfact>
</mgrwt>
</event>
<event>
 6    1  0.1885829E-005  0.9689682E+03  0.7818608E-02  0.9343250E-01
          1   -1    0    0  501    0  0.00000000000E+00  0.00000000000E+00  0.31780291043E+03  0.31780291043E+03  0.00000000000E+00 0. -1.
         -1   -1    0    0    0  501 -0.00000000000E+00 -0.00000000000E+00 -0.73858622787E+03  0.73858622787E+03  0.00000000000E+00 0.  1.
         23    2    1    2    0    0 -0.12518401254E+03 -0.39680221701E+03  0.49491307142E+02  0.42847094383E+03  0.89526106805E+02 0.  0.
         13    1    3    3    0    0 -0.10202525696E+02 -0.15227238606E+03  0.41427578862E+02  0.15813669839E+03  0.00000000000E+00 0. -1.
        -13    1    3    3    0    0 -0.11498148685E+03 -0.24452983096E+03  0.80637282800E+01  0.27033424544E+03  0.00000000000E+00 0.  1.
         22    1    1    2    0    0  0.12518401254E+03  0.39680221701E+03 -0.47027462459E+03  0.62791819448E+03  0.00000000000E+00 0.  1.
<mgrwt>
<rscale>  0 0.96896822E+03</rscale>
<asrwt>0</asrwt>
<pdfrwt beam="1">  1        1 0.48892756E-01 0.96896822E+03</pdfrwt>
<pdfrwt beam="2">  1       -1 0.11362865E+00 0.96896822E+03</pdfrwt>
<totfact> 0.57714107E+01</totfact>
</mgrwt>
</event>
<event>
 6    1  0.1885829E-005  0.4107394E+04  0.7818608E-02  0.7983225E-01
         -2   -1    0    0    0  501 -0.00000000000E+00  0.00000000000E+00  0.18142335017E+04  0.18142335017E+04  0.00000000000E+00 0. -1.
          2   -1    0    0  501    0  0.00000000000E+00 -0.00000000000E+00 -0.23247671248E+04  0.23247671248E+04  0.00000000000E+00 0.  1.
         23    2    1    2    0    0 -0.28841459239E+03 -0.19654884130E+04  0.26550656431E+03  0.20062638750E+04  0.90957803055E+02 0.  0.
         11    1    3    3    0    0 -0.91611864976E+02 -0.78983666727E+03  0.14414053703E+03  0.80809107728E+03  0.00000000000E+00 0. -1.
        -11    1    3    3    0    0 -0.19680272742E+03 -0.11756517457E+04  0.12136602729E+03  0.11981727978E+04  0.00000000000E+00 0.  1.
         22    1    1    2    0    0  0.28841459239E+03  0.19654884130E+04 -0.77604018746E+03  0.21327367515E+04  0.00000000000E+00 0.  1.
<mgrwt>
<rscale>  0 0.41073935E+04</rscale>
<asrwt>0</asrwt>
<pdfrwt beam="1">  1        2 0.35765648E+00 0.41073935E+04</pdfrwt>
<pdfrwt beam="2">  1       -2 0.27911285E+00 0.41073935E+04</pdfrwt>
<totfact> 0.14637437E-01</totfact>
</mgrwt>
</event>
<event>
 6    1  0.1885829E-005  0.3221186E+04  0.7818608E-02  0.8183244E-01
         -2   -1    0    0    0  501 -0.00000000000E+00  0.00000000000E+00  0.13033920572E+04  0.13033920572E+04  0.00000000000E+00 0.  1.
          2   -1    0    0  501    0  0.00000000000E+00 -0.00000000000E+00 -0.19901987713E+04  0.19901987713E+04  0.00000000000E+00 0. -1.
         23    2    1    2    0    0 -0.13016713359E+04  0.58770430597E+03 -0.11022249005E+04  0.18062049042E+04  0.87930694272E+02 0.  0.
         13    1    3    3    0    0 -0.64063177243E+03  0.33683849541E+03 -0.56658708372E+03  0.91917907029E+03  0.00000000000E+00 0. -1.
        -13    1    3    3    0    0 -0.66103956346E+03  0.25086581055E+03 -0.53563781675E+03  0.88702583395E+03  0.00000000000E+00 0.  1.
         22    1    1    2    0    0  0.13016713359E+04 -0.58770430597E+03  0.41541818640E+03  0.14873859242E+04  0.00000000000E+00 0.  1.
<mgrwt>
<rscale>  0 0.32211857E+04</rscale>
<asrwt>0</asrwt>
<pdfrwt beam="1">  1        2 0.30618443E+00 0.32211857E+04</pdfrwt>
<pdfrwt beam="2">  1       -2 0.20052185E+00 0.32211857E+04</pdfrwt>
<totfact> 0.75050491E-01</totfact>
</mgrwt>
</event>
<event>
 6    1  0.1885829E-005  0.3270069E+04  0.7818608E-02  0.8170553E-01
          2   -1    0    0  501    0  0.00000000000E+00  0.00000000000E+00  0.23093641545E+04  0.23093641545E+04  0.00000000000E+00 0. -1.
         -2   -1    0    0    0  501 -0.00000000000E+00 -0.00000000000E+00 -0.11576080863E+04  0.11576080863E+04  0.00000000000E+00 0.  1.
         23    2    1    2    0    0 -0.41450977316E+03 -0.21221407830E+03  0.22366387797E+04  0.22863691472E+04  0.89875910508E+02 0.  0.
         13    1    3    3    0    0 -0.20915317736E+03 -0.73672139880E+02  0.12196842023E+04  0.12396782604E+04  0.00000000000E+00 0. -1.
        -13    1    3    3    0    0 -0.20535659580E+03 -0.13854193842E+03  0.10169545774E+04  0.10466908868E+04  0.00000000000E+00 0.  1.
         22    1    1    2    0    0  0.41450977316E+03  0.21221407830E+03 -0.10848827115E+04  0.11806030936E+04  0.00000000000E+00 0.  1.
<mgrwt>
<rscale>  0 0.32700695E+04</rscale>
<asrwt>0</asrwt>
<pdfrwt beam="1">  1        2 0.35528679E+00 0.32700695E+04</pdfrwt>
<pdfrwt beam="2">  1       -2 0.17809355E+00 0.32700695E+04</pdfrwt>
<totfact> 0.70088139E-01</totfact>
</mgrwt>
</event>
<event>
 6    1  0.1885829E-005  0.9022956E+03  0.7818608E-02  0.9422716E-01
          1   -1    0    0  501    0  0.00000000000E+00  0.00000000000E+00  0.72957594610E+03  0.72957594610E+03  0.00000000000E+00 0. -1.
         -1   -1    0    0    0  501 -0.00000000000E+00 -0.00000000000E+00 -0.27897620825E+03  0.27897620825E+03  0.00000000000E+00 0.  1.
         23    2    1    2    0    0  0.33832221052E+03  0.22138433886E+03  0.17375832438E+02  0.41596807099E+03  0.96200690777E+02 0.  0.
         11    1    3    3    0    0  0.18804936063E+03  0.16336724797E+03 -0.22217233211E+02  0.25009003418E+03  0.00000000000E+00 0. -1.
        -11    1    3    3    0    0  0.15027284989E+03  0.58017090889E+02  0.39593065649E+02  0.16587803681E+03  0.00000000000E+00 0.  1.
         22    1    1    2    0    0 -0.33832221052E+03 -0.22138433886E+03  0.43322390541E+03  0.59258408336E+03  0.00000000000E+00 0.  1.
<mgrwt>
<rscale>  0 0.90229559E+03</rscale>
<asrwt>0</asrwt>
<pdfrwt beam="1">  1        1 0.11224245E+00 0.90229559E+03</pdfrwt>
<pdfrwt beam="2">  1       -1 0.42919417E-01 0.90229559E+03</pdfrwt>
<totfact> 0.13769748E+02</totfact>
</mgrwt>
</event>
<event>
 6    1  0.1885829E-005  0.1186010E+04  0.7818608E-02  0.9125191E-01
          2   -1    0    0  501    0  0.00000000000E+00  0.00000000000E+00  0.33162095976E+03  0.33162095976E+03  0.00000000000E+00 0. -1.
         -2   -1    0    0    0  501 -0.00000000000E+00 -0.00000000000E+00 -0.10604115524E+04  0.10604115524E+04  0.00000000000E+00 0.  1.
         23    2    1    2    0    0 -0.26849511033E+03  0.49511626294E+03 -0.56931214816E+03  0.80665817696E+03  0.96702400785E+02 0.  0.
         13    1    3    3    0    0 -0.14756306222E+03  0.28764601818E+03 -0.39219788119E+03  0.50826594133E+03  0.00000000000E+00 0.  1.
        -13    1    3    3    0    0 -0.12093204811E+03  0.20747024476E+03 -0.17711426698E+03  0.29839223564E+03  0.00000000000E+00 0. -1.
         22    1    1    2    0    0  0.26849511033E+03 -0.49511626294E+03 -0.15947844452E+03  0.58537433524E+03  0.00000000000E+00 0. -1.
<mgrwt>
<rscale>  0 0.11860096E+04</rscale>
<asrwt>0</asrwt>
<pdfrwt beam="1">  1        2 0.51018610E-01 0.11860096E+04</pdfrwt>
<pdfrwt beam="2">  1       -2 0.16314024E+00 0.11860096E+04</pdfrwt>
<totfact> 0.23128702E+01</totfact>
</mgrwt>
</event>
<event>
 6    1  0.1885829E-005  0.3639002E+04  0.7818608E-02  0.8081616E-01
          2   -1    0    0  501    0  0.00000000000E+00  0.00000000000E+00  0.28311316062E+04  0.28311316062E+04  0.00000000000E+00 0. -1.
         -2   -1    0    0    0  501 -0.00000000000E+00 -0.00000000000E+00 -0.11693498932E+04  0.11693498932E+04  0.00000000000E+00 0.  1.
         23    2    1    2    0    0  0.16024871760E+04 -0.83715665937E+03  0.10441547499E+04  0.20899162722E+04  0.93244096972E+02 0.  0.
         11    1    3    3    0    0  0.50045212999E+03 -0.30999535820E+03  0.34813398475E+03  0.68392011803E+03  0.00000000000E+00 0. -1.
        -11    1    3    3    0    0  0.11020350460E+04 -0.52716130117E+03  0.69602076513E+03  0.14059961542E+04  0.00000000000E+00 0.  1.
         22    1    1    2    0    0 -0.16024871760E+04  0.83715665937E+03  0.61762696317E+03  0.19105652271E+04  0.00000000000E+00 0.  1.
<mgrwt>
<rscale>  0 0.36390018E+04</rscale>
<asrwt>0</asrwt>
<pdfrwt beam="1">  1        2 0.43555871E+00 0.36390018E+04</pdfrwt>
<pdfrwt beam="2">  1       -2 0.17989998E+00 0.36390018E+04</pdfrwt>
<totfact> 0.32653193E-01</totfact>
</mgrwt>
</event>
<event>
 6    1  0.1885829E-005  0.4619735E+04  0.7818608E-02  0.7890004E-01
         -2   -1    0    0    0  501 -0.00000000000E+00  0.00000000000E+00  0.15281859057E+04  0.15281859057E+04  0.00000000000E+00 0. -1.
          2   -1    0    0  501    0  0.00000000000E+00 -0.00000000000E+00 -0.34913859071E+04  0.34913859071E+04  0.00000000000E+00 0.  1.
         23    2    1    2    0    0 -0.21078000998E+04  0.64379305119E+03 -0.17300780755E+04  0.28033505726E+04  0.91178571857E+02 0.  0.
         11    1    3    3    0    0 -0.19925410785E+04  0.58927354535E+03 -0.16163958410E+04  0.26325270702E+04  0.00000000000E+00 0. -1.
        -11    1    3    3    0    0 -0.11525902131E+03  0.54519505839E+02 -0.11368223457E+03  0.17082350238E+03  0.00000000000E+00 0.  1.
         22    1    1    2    0    0  0.21078000998E+04 -0.64379305119E+03 -0.23312192592E+03  0.22162212403E+04  0.00000000000E+00 0. -1.
<mgrwt>
<rscale>  0 0.46197345E+04</rscale>
<asrwt>0</asrwt>
<pdfrwt beam="1">  1        2 0.53713630E+00 0.46197345E+04</pdfrwt>
<pdfrwt beam="2">  1       -2 0.23510552E+00 0.46197345E+04</pdfrwt>
<totfact> 0.49052712E-02</totfact>
</mgrwt>
</event>
<event>
 6    1  0.1885829E-005  0.1457096E+04  0.7818608E-02  0.8913496E-01
         -2   -1    0    0    0  501 -0.00000000000E+00  0.00000000000E+00  0.13127046547E+03  0.13127046547E+03  0.00000000000E+00 0.  1.
          2   -1    0    0  501    0  0.00000000000E+00 -0.00000000000E+00 -0.40434233186E+04  0.40434233186E+04  0.00000000000E+00 0. -1.
         23    2    1    2    0    0  0.45632511254E+03 -0.53725652490E+03 -0.14658266441E+04  0.16288365409E+04  0.87083548170E+02 0.  0.
         13    1    3    3    0    0  0.33372770451E+03 -0.32929457604E+03 -0.97101501983E+03  0.10782760627E+04  0.00000000000E+00 0.  1.
        -13    1    3    3    0    0  0.12259740802E+03 -0.20796194887E+03 -0.49481162428E+03  0.55056047820E+03  0.00000000000E+00 0. -1.
         22    1    1    2    0    0 -0.45632511254E+03  0.53725652490E+03 -0.24463262090E+04  0.25458572432E+04  0.00000000000E+00 0. -1.
<mgrwt>
<rscale>  0 0.14570958E+04</rscale>
<asrwt>0</asrwt>
<pdfrwt beam="1">  1        2 0.62206508E+00 0.14570958E+04</pdfrwt>
<pdfrwt beam="2">  1       -2 0.20195458E-01 0.14570958E+04</pdfrwt>
<totfact> 0.65948508E+00</totfact>
</mgrwt>
</event>
<event>
 6    1  0.1885829E-005  0.4710028E+04  0.7818608E-02  0.7874865E-01
         -1   -1    0    0    0  501 -0.00000000000E+00  0.00000000000E+00  0.24445807232E+04  0.24445807232E+04  0.00000000000E+00 0.  1.
          1   -1    0    0  501    0  0.00000000000E+00 -0.00000000000E+00 -0.22687284513E+04  0.22687284513E+04  0.00000000000E+00 0. -1.
         23    2    1    2    0    0  0.18343806895E+04 -0.11037758499E+04 -0.89189754056E+03  0.23209539954E+04  0.89847565623E+02 0.  0.
         11    1    3    3    0    0  0.31715557155E+03 -0.15487683789E+03 -0.16071845358E+03  0.38782072250E+03  0.00000000000E+00 0. -1.
        -11    1    3    3    0    0  0.15172251179E+04 -0.94889901202E+03 -0.73117908698E+03  0.19331332729E+04  0.00000000000E+00 0.  1.
         22    1    1    2    0    0 -0.18343806895E+04  0.11037758499E+04  0.10677498124E+04  0.23923551791E+04  0.00000000000E+00 0. -1.
<mgrwt>
<rscale>  0 0.47100275E+04</rscale>
<asrwt>0</asrwt>
<pdfrwt beam="1">  1        1 0.34903515E+00 0.47100275E+04</pdfrwt>
<pdfrwt beam="2">  1       -1 0.37608934E+00 0.47100275E+04</pdfrwt>
<totfact> 0.15018751E-02</totfact>
</mgrwt>
</event>
<event>
 6    1  0.1885829E-005  0.2862062E+04  0.7818608E-02  0.8284255E-01
         -2   -1    0    0    0  501 -0.00000000000E+00  0.00000000000E+00  0.30514879662E+04  0.30514879662E+04  0.00000000000E+00 0.  1.
          2   -1    0    0  501    0  0.00000000000E+00 -0.00000000000E+00 -0.67109889563E+03  0.67109889563E+03  0.00000000000E+00 0. -1.
         23    2    1    2    0    0  0.11389865891E+04 -0.83878155568E+03  0.92177443660E+03  0.16907400175E+04  0.89937458179E+02 0.  0.
         13    1    3    3    0    0  0.46842478830E+03 -0.30099562121E+03  0.33147817119E+03  0.64799531192E+03  0.00000000000E+00 0. -1.
        -13    1    3    3    0    0  0.67056180083E+03 -0.53778593447E+03  0.59029626540E+03  0.10427447056E+04  0.00000000000E+00 0.  1.
         22    1    1    2    0    0 -0.11389865891E+04  0.83878155568E+03  0.14586146339E+04  0.20318468443E+04  0.00000000000E+00 0. -1.
<mgrwt>
<rscale>  0 0.28620623E+04</rscale>
<asrwt>0</asrwt>
<pdfrwt beam="1">  1        2 0.10324599E+00 0.28620623E+04</pdfrwt>
<pdfrwt beam="2">  1       -2 0.46945968E+00 0.28620623E+04</pdfrwt>
<totfact> 0.96497980E-02</totfact>
</mgrwt>
</event>
<event>
 6    1  0.1885829E-005  0.1295985E+04  0.7818608E-02  0.9032755E-01
         -2   -1    0    0    0  501 -0.00000000000E+00  0.00000000000E+00  0.24116179122E+03  0.24116179122E+03  0.00000000000E+00 0.  1.
          2   -1    0    0  501    0  0.00000000000E+00 -0.00000000000E+00 -0.17411306789E+04  0.17411306789E+04  0.00000000000E+00 0. -1.
         23    2    1    2    0    0 -0.12816807071E+03 -0.53720693646E+03 -0.25099332949E+03  0.61665771225E+03  0.11068304162E+03 0.  0.
         11    1    3    3    0    0 -0.30446148596E+02 -0.18555432165E+03 -0.14238707337E+03  0.23586320804E+03  0.00000000000E+00 0. -1.
        -11    1    3    3    0    0 -0.97721922116E+02 -0.35165261481E+03 -0.10860625612E+03  0.38079450421E+03  0.00000000000E+00 0.  1.
         22    1    1    2    0    0  0.12816807071E+03  0.53720693646E+03 -0.12489755582E+04  0.13656347579E+04  0.00000000000E+00 0.  1.
<mgrwt>
<rscale>  0 0.12959849E+04</rscale>
<asrwt>0</asrwt>
<pdfrwt beam="1">  1        2 0.26786626E+00 0.12959849E+04</pdfrwt>
<pdfrwt beam="2">  1       -2 0.37101813E-01 0.12959849E+04</pdfrwt>
<totfact> 0.62454159E+01</totfact>
</mgrwt>
</event>
<event>
 6    1  0.1885829E-005  0.1463176E+04  0.7818608E-02  0.8909316E-01
          2   -1    0    0  501    0  0.00000000000E+00  0.00000000000E+00  0.10884509297E+04  0.10884509297E+04  0.00000000000E+00 0. -1.
         -2   -1    0    0    0  501 -0.00000000000E+00 -0.00000000000E+00 -0.49172756584E+03  0.49172756584E+03  0.00000000000E+00 0.  1.
         23    2    1    2    0    0 -0.70169408712E+02 -0.47421943118E+03 -0.29248997363E+03  0.56997644922E+03  0.97544621386E+02 0.  0.
         13    1    3    3    0    0 -0.74165244153E+02 -0.20162675103E+03 -0.10511719464E+03  0.23917243734E+03  0.00000000000E+00 0. -1.
        -13    1    3    3    0    0  0.39958354412E+01 -0.27259268015E+03 -0.18737277899E+03  0.33080401188E+03  0.00000000000E+00 0.  1.
         22    1    1    2    0    0  0.70169408712E+02  0.47421943118E+03  0.88921333748E+03  0.10102020463E+04  0.00000000000E+00 0. -1.
<mgrwt>
<rscale>  0 0.14631764E+04</rscale>
<asrwt>0</asrwt>
<pdfrwt beam="1">  1        2 0.16745399E+00 0.14631764E+04</pdfrwt>
<pdfrwt beam="2">  1       -2 0.75650395E-01 0.14631764E+04</pdfrwt>
<totfact> 0.33619278E+01</totfact>
</mgrwt>
</event>
<event>
 6    1  0.1885829E-005  0.3240896E+04  0.7818608E-02  0.8178099E-01
          2   -1    0    0  501    0  0.00000000000E+00  0.00000000000E+00  0.32658053412E+04  0.32658053412E+04  0.00000000000E+00 0. -1.
         -2   -1    0    0    0  501 -0.00000000000E+00 -0.00000000000E+00 -0.80404401998E+03  0.80404401998E+03  0.00000000000E+00 0.  1.
         23    2    1    2    0    0  0.17608654175E+03 -0.15008683473E+04  0.19619649035E+04  0.24781808262E+04  0.91987276289E+02 0.  0.
         11    1    3    3    0    0  0.53352897057E+01 -0.33062786797E+03  0.39902261204E+03  0.51822996567E+03  0.00000000000E+00 0. -1.
        -11    1    3    3    0    0  0.17075125205E+03 -0.11702404793E+04  0.15629422914E+04  0.19599508606E+04  0.00000000000E+00 0.  1.
         22    1    1    2    0    0 -0.17608654175E+03  0.15008683473E+04  0.49979641778E+03  0.15916685350E+04  0.00000000000E+00 0.  1.
<mgrwt>
<rscale>  0 0.32408957E+04</rscale>
<asrwt>0</asrwt>
<pdfrwt beam="1">  1        2 0.50243158E+00 0.32408957E+04</pdfrwt>
<pdfrwt beam="2">  1       -2 0.12369908E+00 0.32408957E+04</pdfrwt>
<totfact> 0.48435625E-01</totfact>
</mgrwt>
</event>
<event>
 6    1  0.1885829E-005  0.1735110E+04  0.7818608E-02  0.8741589E-01
          2   -1    0    0  501    0  0.00000000000E+00  0.00000000000E+00  0.13925573532E+04  0.13925573532E+04  0.00000000000E+00 0. -1.
         -2   -1    0    0    0  501 -0.00000000000E+00 -0.00000000000E+00 -0.54048186724E+03  0.54048186724E+03  0.00000000000E+00 0.  1.
         23    2    1    2    0    0  0.41276857893E+03  0.52358506647E+03 -0.18691040890E+03  0.69853085218E+03  0.92144608680E+02 0.  0.
         11    1    3    3    0    0  0.14022043459E+03  0.25127305893E+03 -0.76341934289E+02  0.29770457059E+03  0.00000000000E+00 0. -1.
        -11    1    3    3    0    0  0.27254814433E+03  0.27231200754E+03 -0.11056847461E+03  0.40082628159E+03  0.00000000000E+00 0.  1.
         22    1    1    2    0    0 -0.41276857893E+03 -0.52358506647E+03  0.10389858948E+04  0.12345083682E+04  0.00000000000E+00 0. -1.
<mgrwt>
<rscale>  0 0.17351104E+04</rscale>
<asrwt>0</asrwt>
<pdfrwt beam="1">  1        2 0.21423959E+00 0.17351104E+04</pdfrwt>
<pdfrwt beam="2">  1       -2 0.83151057E-01 0.17351104E+04</pdfrwt>
<totfact> 0.17566516E+01</totfact>
</mgrwt>
</event>
<event>
 6    1  0.1885829E-005  0.2403091E+04  0.7818608E-02  0.8438347E-01
          1   -1    0    0  501    0  0.00000000000E+00  0.00000000000E+00  0.18385895526E+04  0.18385895526E+04  0.00000000000E+00 0. -1.
         -1   -1    0    0    0  501 -0.00000000000E+00 -0.00000000000E+00 -0.78522766156E+03  0.78522766156E+03  0.00000000000E+00 0.  1.
         23    2    1    2    0    0 -0.18419655855E+03 -0.78813289499E+02  0.18191440809E+04  0.18322603500E+04  0.88050531967E+02 0.  0.
         13    1    3    3    0    0 -0.44911342178E+02 -0.10537448990E+02  0.80509849701E+03  0.80641903275E+03  0.00000000000E+00 0.  1.
        -13    1    3    3    0    0 -0.13928521637E+03 -0.68275840509E+02  0.10140455839E+04  0.10258413172E+04  0.00000000000E+00 0. -1.
         22    1    1    2    0    0  0.18419655855E+03  0.78813289499E+02 -0.76578218991E+03  0.79155686414E+03  0.00000000000E+00 0.  1.
<mgrwt>
<rscale>  0 0.24030908E+04</rscale>
<asrwt>0</asrwt>
<pdfrwt beam="1">  1        1 0.28285993E+00 0.24030908E+04</pdfrwt>
<pdfrwt beam="2">  1       -1 0.12080426E+00 0.24030908E+04</pdfrwt>
<totfact> 0.20922544E+00</totfact>
</mgrwt>
</event>
<event>
 6    1  0.1971069E-005  0.3243432E+04  0.7818608E-02  0.8177440E-01
         -2   -1    0    0    0  501 -0.00000000000E+00  0.00000000000E+00  0.12750215076E+04  0.12750215076E+04  0.00000000000E+00 0.  1.
          2   -1    0    0  501    0  0.00000000000E+00 -0.00000000000E+00 -0.20626814100E+04  0.20626814100E+04  0.00000000000E+00 0. -1.
         23    2    1    2    0    0 -0.67519618251E+02 -0.13288674388E+04  0.55778942930E+03  0.14454340485E+04  0.87766578995E+02 0.  0.
         11    1    3    3    0    0  0.26422418361E+01 -0.67950567070E+03  0.25905255776E+03  0.72721603780E+03  0.00000000000E+00 0.  1.
        -11    1    3    3    0    0 -0.70161860087E+02 -0.64936176811E+03  0.29873687154E+03  0.71821801071E+03  0.00000000000E+00 0. -1.
         22    1    1    2    0    0  0.67519618251E+02  0.13288674388E+04 -0.13454493317E+04  0.18922688691E+04  0.00000000000E+00 0. -1.
<mgrwt>
<rscale>  0 0.32434322E+04</rscale>
<asrwt>0</asrwt>
<pdfrwt beam="1">  1        2 0.31733560E+00 0.32434322E+04</pdfrwt>
<pdfrwt beam="2">  1       -2 0.19615716E+00 0.32434322E+04</pdfrwt>
<totfact> 0.72939244E-01</totfact>
</mgrwt>
</event>
<event>
 6    1  0.1885829E-005  0.1986641E+04  0.7818608E-02  0.8612892E-01
          2   -1    0    0  501    0  0.00000000000E+00  0.00000000000E+00  0.25546484833E+04  0.25546484833E+04  0.00000000000E+00 0. -1.
         -2   -1    0    0    0  501 -0.00000000000E+00 -0.00000000000E+00 -0.38623148695E+03  0.38623148695E+03  0.00000000000E+00 0.  1.
         23    2    1    2    0    0 -0.30326670586E+02  0.63749465763E+03  0.22092415080E+04  0.23013600048E+04  0.90502404780E+02 0.  0.
         11    1    3    3    0    0  0.22378627644E+02  0.38409743544E+03  0.13838839730E+04  0.14363726862E+04  0.00000000000E+00 0. -1.
        -11    1    3    3    0    0 -0.52705298230E+02  0.25339722219E+03  0.82535753501E+03  0.86498731856E+03  0.00000000000E+00 0.  1.
         22    1    1    2    0    0  0.30326670586E+02 -0.63749465763E+03 -0.40824511704E+02  0.63951996545E+03  0.00000000000E+00 0.  1.
<mgrwt>
<rscale>  0 0.19866411E+04</rscale>
<asrwt>0</asrwt>
<pdfrwt beam="1">  1        2 0.39302283E+00 0.19866411E+04</pdfrwt>
<pdfrwt beam="2">  1       -2 0.59420230E-01 0.19866411E+04</pdfrwt>
<totfact> 0.79606198E+00</totfact>
</mgrwt>
</event>
<event>
 6    1  0.1885829E-005  0.3016672E+04  0.7818608E-02  0.8238986E-01
          2   -1    0    0  501    0  0.00000000000E+00  0.00000000000E+00  0.36145695328E+04  0.36145695328E+04  0.00000000000E+00 0. -1.
         -2   -1    0    0    0  501 -0.00000000000E+00 -0.00000000000E+00 -0.62941858550E+03  0.62941858550E+03  0.00000000000E+00 0.  1.
         23    2    1    2    0    0 -0.66657448955E+03  0.13514755470E+04  0.14921406368E+04  0.21226942934E+04  0.92410384756E+02 0.  0.
         13    1    3    3    0    0 -0.21661144461E+03  0.51574362075E+03  0.51272983363E+03  0.75881742374E+03  0.00000000000E+00 0.  1.
        -13    1    3    3    0    0 -0.44996304494E+03  0.83573192621E+03  0.97941080314E+03  0.13638768697E+04  0.00000000000E+00 0. -1.
         22    1    1    2    0    0  0.66657448955E+03 -0.13514755470E+04  0.14930103105E+04  0.21212938249E+04  0.00000000000E+00 0. -1.
<mgrwt>
<rscale>  0 0.30166718E+04</rscale>
<asrwt>0</asrwt>
<pdfrwt beam="1">  1        2 0.55608761E+00 0.30166718E+04</pdfrwt>
<pdfrwt beam="2">  1       -2 0.96833630E-01 0.30166718E+04</pdfrwt>
<totfact> 0.51295187E-01</totfact>
</mgrwt>
</event>
<event>
 6    1  0.1885829E-005  0.2635939E+04  0.7818608E-02  0.8356095E-01
         -2   -1    0    0    0  501 -0.00000000000E+00  0.00000000000E+00  0.11430873214E+04  0.11430873214E+04  0.00000000000E+00 0.  1.
          2   -1    0    0  501    0  0.00000000000E+00 -0.00000000000E+00 -0.15196072732E+04  0.15196072732E+04  0.00000000000E+00 0. -1.
         23    2    1    2    0    0  0.10849096687E+04  0.37713087977E+03  0.46123961877E+03  0.12410414062E+04  0.90471521732E+02 0.  0.
         13    1    3    3    0    0  0.39670346918E+03  0.10890796093E+03  0.20146074472E+03  0.45806224257E+03  0.00000000000E+00 0.  1.
        -13    1    3    3    0    0  0.68820619956E+03  0.26822291884E+03  0.25977887405E+03  0.78297916365E+03  0.00000000000E+00 0. -1.
         22    1    1    2    0    0 -0.10849096687E+04 -0.37713087977E+03 -0.83775957057E+03  0.14216531883E+04  0.00000000000E+00 0. -1.
<mgrwt>
<rscale>  0 0.26359392E+04</rscale>
<asrwt>0</asrwt>
<pdfrwt beam="1">  1        2 0.23378574E+00 0.26359392E+04</pdfrwt>
<pdfrwt beam="2">  1       -2 0.17585959E+00 0.26359392E+04</pdfrwt>
<totfact> 0.21149977E+00</totfact>
</mgrwt>
</event>
<event>
 6    1  0.1885829E-005  0.3069738E+04  0.7818608E-02  0.8224093E-01
         -2   -1    0    0    0  501 -0.00000000000E+00  0.00000000000E+00  0.10660156810E+04  0.10660156810E+04  0.00000000000E+00 0. -1.
          2   -1    0    0  501    0  0.00000000000E+00 -0.00000000000E+00 -0.22099322197E+04  0.22099322197E+04  0.00000000000E+00 0.  1.
         23    2    1    2    0    0  0.30627735908E+02  0.60988095417E+03 -0.20736458240E+04  0.21636127981E+04  0.91216777837E+02 0.  0.
         13    1    3    3    0    0  0.51322860954E+02  0.44137658792E+03 -0.13953461582E+04  0.14643900538E+04  0.00000000000E+00 0. -1.
        -13    1    3    3    0    0 -0.20695125046E+02  0.16850436625E+03 -0.67829966577E+03  0.69922274436E+03  0.00000000000E+00 0.  1.
         22    1    1    2    0    0 -0.30627735908E+02 -0.60988095417E+03  0.92972928526E+03  0.11123351025E+04  0.00000000000E+00 0. -1.
<mgrwt>
<rscale>  0 0.30697377E+04</rscale>
<asrwt>0</asrwt>
<pdfrwt beam="1">  1        2 0.33998957E+00 0.30697377E+04</pdfrwt>
<pdfrwt beam="2">  1       -2 0.16400241E+00 0.30697377E+04</pdfrwt>
<totfact> 0.10214142E+00</totfact>
</mgrwt>
</event>
<event>
 6    1  0.1885829E-005  0.1376287E+04  0.7818608E-02  0.8971164E-01
         -2   -1    0    0    0  501 -0.00000000000E+00  0.00000000000E+00  0.38492364928E+03  0.38492364928E+03  0.00000000000E+00 0.  1.
          2   -1    0    0  501    0  0.00000000000E+00 -0.00000000000E+00 -0.12302225424E+04  0.12302225424E+04  0.00000000000E+00 0. -1.
         23    2    1    2    0    0 -0.44376059896E+03 -0.47526970729E+03 -0.67776111716E+03  0.94367491887E+03  0.91419126592E+02 0.  0.
         13    1    3    3    0    0 -0.17871169401E+03 -0.20576943328E+03 -0.34824909854E+03  0.44221755266E+03  0.00000000000E+00 0. -1.
        -13    1    3    3    0    0 -0.26504890495E+03 -0.26950027400E+03 -0.32951201863E+03  0.50145736621E+03  0.00000000000E+00 0.  1.
         22    1    1    2    0    0  0.44376059896E+03  0.47526970729E+03 -0.16753777599E+03  0.67147127283E+03  0.00000000000E+00 0.  1.
<mgrwt>
<rscale>  0 0.13762874E+04</rscale>
<asrwt>0</asrwt>
<pdfrwt beam="1">  1        2 0.18926500E+00 0.13762874E+04</pdfrwt>
<pdfrwt beam="2">  1       -2 0.59219024E-01 0.13762874E+04</pdfrwt>
<totfact> 0.47170770E+01</totfact>
</mgrwt>
</event>
<event>
 6    1  0.1885829E-005  0.2133334E+04  0.7818608E-02  0.8546700E-01
          2   -1    0    0  501    0  0.00000000000E+00  0.00000000000E+00  0.84019420127E+03  0.84019420127E+03  0.00000000000E+00 0. -1.
         -2   -1    0    0    0  501 -0.00000000000E+00 -0.00000000000E+00 -0.13541857562E+04  0.13541857562E+04  0.00000000000E+00 0.  1.
         23    2    1    2    0    0  0.98312545741E+02 -0.73107901120E+03  0.53218540762E+03  0.91429085345E+03  0.92545012537E+02 0.  0.
         11    1    3    3    0    0  0.59252457534E+02 -0.42277915722E+03  0.36347283569E+03  0.56068312957E+03  0.00000000000E+00 0. -1.
        -11    1    3    3    0    0  0.39060088207E+02 -0.30829985398E+03  0.16871257192E+03  0.35360772387E+03  0.00000000000E+00 0.  1.
         22    1    1    2    0    0 -0.98312545741E+02  0.73107901120E+03 -0.10461769626E+04  0.12800891040E+04  0.00000000000E+00 0.  1.
<mgrwt>
<rscale>  0 0.21333345E+04</rscale>
<asrwt>0</asrwt>
<pdfrwt beam="1">  1        2 0.12926065E+00 0.21333345E+04</pdfrwt>
<pdfrwt beam="2">  1       -2 0.20833627E+00 0.21333345E+04</pdfrwt>
<totfact> 0.34768399E+00</totfact>
</mgrwt>
</event>
<event>
 6    1  0.1885829E-005  0.3815964E+04  0.7818608E-02  0.8042738E-01
          2   -1    0    0  501    0  0.00000000000E+00  0.00000000000E+00  0.23379575218E+04  0.23379575218E+04  0.00000000000E+00 0. -1.
         -2   -1    0    0    0  501 -0.00000000000E+00 -0.00000000000E+00 -0.15570834217E+04  0.15570834217E+04  0.00000000000E+00 0.  1.
         23    2    1    2    0    0  0.36042662284E+03  0.98365160798E+03 -0.12358032095E+04  0.16224949686E+04  0.88331841603E+02 0.  0.
         13    1    3    3    0    0  0.12907158531E+03  0.34011384424E+03 -0.36583351764E+03  0.51591769092E+03  0.00000000000E+00 0. -1.
        -13    1    3    3    0    0  0.23135503752E+03  0.64353776374E+03 -0.86996969190E+03  0.11065772777E+04  0.00000000000E+00 0.  1.
         22    1    1    2    0    0 -0.36042662284E+03 -0.98365160798E+03  0.20166773097E+04  0.22725459749E+04  0.00000000000E+00 0. -1.
<mgrwt>
<rscale>  0 0.38159638E+04</rscale>
<asrwt>0</asrwt>
<pdfrwt beam="1">  1        2 0.35968577E+00 0.38159638E+04</pdfrwt>
<pdfrwt beam="2">  1       -2 0.23955129E+00 0.38159638E+04</pdfrwt>
<totfact> 0.25753393E-01</totfact>
</mgrwt>
</event>
<event>
 6    1  0.1885829E-005  0.3072941E+04  0.7818608E-02  0.8223203E-01
         -2   -1    0    0    0  501 -0.00000000000E+00  0.00000000000E+00  0.61460799411E+03  0.61460799411E+03  0.00000000000E+00 0.  1.
          2   -1    0    0  501    0  0.00000000000E+00 -0.00000000000E+00 -0.38410530936E+04  0.38410530936E+04  0.00000000000E+00 0. -1.
         23    2    1    2    0    0  0.99695918284E+03  0.10626813908E+04 -0.91370651113E+03  0.17221689753E+04  0.88244209571E+02 0.  0.
         13    1    3    3    0    0  0.68434718961E+03  0.66817824030E+03 -0.59943727230E+03  0.11287684794E+04  0.00000000000E+00 0. -1.
        -13    1    3    3    0    0  0.31261199323E+03  0.39450315045E+03 -0.31426923882E+03  0.59340049587E+03  0.00000000000E+00 0.  1.
         22    1    1    2    0    0 -0.99695918284E+03 -0.10626813908E+04 -0.23127385884E+04  0.27334921124E+04  0.00000000000E+00 0. -1.
<mgrwt>
<rscale>  0 0.30729412E+04</rscale>
<asrwt>0</asrwt>
<pdfrwt beam="1">  1        2 0.59093125E+00 0.30729412E+04</pdfrwt>
<pdfrwt beam="2">  1       -2 0.94555075E-01 0.30729412E+04</pdfrwt>
<totfact> 0.36590797E-01</totfact>
</mgrwt>
</event>
<event>
 6    1  0.1885829E-005  0.1340489E+04  0.7818608E-02  0.8998059E-01
         -2   -1    0    0    0  501 -0.00000000000E+00  0.00000000000E+00  0.41111668788E+03  0.41111668788E+03  0.00000000000E+00 0.  1.
          2   -1    0    0  501    0  0.00000000000E+00 -0.00000000000E+00 -0.10927016404E+04  0.10927016404E+04  0.00000000000E+00 0. -1.
         23    2    1    2    0    0  0.41681318549E+03 -0.26242930806E+03  0.16276334785E+03  0.52630800831E+03  0.88914784377E+02 0.  0.
         11    1    3    3    0    0  0.17946974220E+03 -0.16551203427E+03  0.79865405011E+02  0.25686982067E+03  0.00000000000E+00 0. -1.
        -11    1    3    3    0    0  0.23734344330E+03 -0.96917273794E+02  0.82897942838E+02  0.26943818765E+03  0.00000000000E+00 0.  1.
         22    1    1    2    0    0 -0.41681318549E+03  0.26242930806E+03 -0.84434830041E+03  0.97751032001E+03  0.00000000000E+00 0. -1.
<mgrwt>
<rscale>  0 0.13404893E+04</rscale>
<asrwt>0</asrwt>
<pdfrwt beam="1">  1        2 0.16810794E+00 0.13404893E+04</pdfrwt>
<pdfrwt beam="2">  1       -2 0.63248722E-01 0.13404893E+04</pdfrwt>
<totfact> 0.49815971E+01</totfact>
</mgrwt>
</event>
<event>
 6    1  0.1885829E-005  0.4187711E+04  0.7818608E-02  0.7967714E-01
          1   -1    0    0  501    0  0.00000000000E+00  0.00000000000E+00  0.31489854653E+04  0.31489854653E+04  0.00000000000E+00 0. -1.
         -1   -1    0    0    0  501 -0.00000000000E+00 -0.00000000000E+00 -0.13922675109E+04  0.13922675109E+04  0.00000000000E+00 0.  1.
         23    2    1    2    0    0  0.17447024979E+04  0.10415028240E+04  0.33511303451E+03  0.20613990517E+04  0.91380335855E+02 0.  0.
         13    1    3    3    0    0  0.38208833265E+03  0.18554631212E+03  0.63266348056E+02  0.42944331254E+03  0.00000000000E+00 0.  1.
        -13    1    3    3    0    0  0.13626141652E+04  0.85595651188E+03  0.27184668645E+03  0.16319557391E+04  0.00000000000E+00 0. -1.
         22    1    1    2    0    0 -0.17447024979E+04 -0.10415028240E+04  0.14216049199E+04  0.24798539245E+04  0.00000000000E+00 0. -1.
<mgrwt>
<rscale>  0 0.41877107E+04</rscale>
<asrwt>0</asrwt>
<pdfrwt beam="1">  1        1 0.48445930E+00 0.41877107E+04</pdfrwt>
<pdfrwt beam="2">  1       -1 0.21419500E+00 0.41877107E+04</pdfrwt>
<totfact> 0.43044684E-02</totfact>
</mgrwt>
</event>
<event>
 6    1  0.1885829E-005  0.5052682E+03  0.7818608E-02  0.1012413E+00
         -2   -1    0    0    0  501 -0.00000000000E+00  0.00000000000E+00  0.74723370613E+02  0.74723370613E+02  0.00000000000E+00 0.  1.
          2   -1    0    0  501    0  0.00000000000E+00 -0.00000000000E+00 -0.85413677397E+03  0.85413677397E+03  0.00000000000E+00 0. -1.
         23    2    1    2    0    0  0.33769078962E+02 -0.68077731445E+02 -0.82960911951E+03  0.83778578961E+03  0.88649928819E+02 0.  0.
         11    1    3    3    0    0 -0.11282918355E+01 -0.76936503501E+02 -0.65495008903E+03  0.65945440914E+03  0.00000000000E+00 0. -1.
        -11    1    3    3    0    0  0.34897370798E+02  0.88587720556E+01 -0.17465903048E+03  0.17833138046E+03  0.00000000000E+00 0.  1.
         22    1    1    2    0    0 -0.33769078962E+02  0.68077731445E+02  0.50195716158E+02  0.91074354971E+02  0.00000000000E+00 0.  1.
<mgrwt>
<rscale>  0 0.50526816E+03</rscale>
<asrwt>0</asrwt>
<pdfrwt beam="1">  1        2 0.13140566E+00 0.50526816E+03</pdfrwt>
<pdfrwt beam="2">  1       -2 0.11495903E-01 0.50526816E+03</pdfrwt>
<totfact> 0.17285865E+03</totfact>
</mgrwt>
</event>
<event>
 6    1  0.1885829E-005  0.2905047E+04  0.7818608E-02  0.8271378E-01
          2   -1    0    0  501    0  0.00000000000E+00  0.00000000000E+00  0.14170007945E+04  0.14170007945E+04  0.00000000000E+00 0. -1.
         -2   -1    0    0    0  501 -0.00000000000E+00 -0.00000000000E+00 -0.14889362963E+04  0.14889362963E+04  0.00000000000E+00 0.  1.
         23    2    1    2    0    0  0.50599784789E+03  0.37746616084E+03 -0.13429863891E+04  0.14867525069E+04  0.91137537659E+02 0.  0.
         13    1    3    3    0    0  0.18226792093E+03  0.84781591703E+02 -0.39995584699E+03  0.44763176031E+03  0.00000000000E+00 0.  1.
        -13    1    3    3    0    0  0.32372992696E+03  0.29268456914E+03 -0.94303054215E+03  0.10391207466E+04  0.00000000000E+00 0. -1.
         22    1    1    2    0    0 -0.50599784789E+03 -0.37746616084E+03  0.12710508874E+04  0.14191845838E+04  0.00000000000E+00 0. -1.
<mgrwt>
<rscale>  0 0.29050466E+04</rscale>
<asrwt>0</asrwt>
<pdfrwt beam="1">  1        2 0.21800012E+00 0.29050466E+04</pdfrwt>
<pdfrwt beam="2">  1       -2 0.22906712E+00 0.29050466E+04</pdfrwt>
<totfact> 0.10579068E+00</totfact>
</mgrwt>
</event>
<event>
 6    1  0.1885829E-005  0.2457145E+04  0.7818608E-02  0.8418414E-01
          2   -1    0    0  501    0  0.00000000000E+00  0.00000000000E+00  0.13486948739E+04  0.13486948739E+04  0.00000000000E+00 0. -1.
         -2   -1    0    0    0  501 -0.00000000000E+00 -0.00000000000E+00 -0.11191491858E+04  0.11191491858E+04  0.00000000000E+00 0.  1.
         23    2    1    2    0    0  0.11881805856E+04  0.97636921430E+02 -0.17626278953E+03  0.12084844633E+04  0.89777807609E+02 0.  0.
         13    1    3    3    0    0  0.11235692072E+04  0.77564890605E+02 -0.15126190477E+03  0.11363556835E+04  0.00000000000E+00 0.  1.
        -13    1    3    3    0    0  0.64611378402E+02  0.20072030825E+02 -0.25000884765E+02  0.72128779828E+02  0.00000000000E+00 0. -1.
         22    1    1    2    0    0 -0.11881805856E+04 -0.97636921430E+02  0.40580847764E+03  0.12593595963E+04  0.00000000000E+00 0. -1.
<mgrwt>
<rscale>  0 0.24571453E+04</rscale>
<asrwt>0</asrwt>
<pdfrwt beam="1">  1        2 0.20749152E+00 0.24571453E+04</pdfrwt>
<pdfrwt beam="2">  1       -2 0.17217680E+00 0.24571453E+04</pdfrwt>
<totfact> 0.28517332E+00</totfact>
</mgrwt>
</event>
<event>
 6    1  0.1885829E-005  0.2390986E+04  0.7818608E-02  0.8442886E-01
         -1   -1    0    0    0  501 -0.00000000000E+00  0.00000000000E+00  0.63711160964E+03  0.63711160964E+03  0.00000000000E+00 0.  1.
          1   -1    0    0  501    0  0.00000000000E+00 -0.00000000000E+00 -0.22432538886E+04  0.22432538886E+04  0.00000000000E+00 0. -1.
         23    2    1    2    0    0 -0.74181438979E+03  0.50499784441E+03 -0.17525911389E+04  0.19711027858E+04  0.91428006511E+02 0.  0.
         13    1    3    3    0    0 -0.49177080566E+03  0.38569302641E+03 -0.12187915223E+04  0.13696898958E+04  0.00000000000E+00 0.  1.
        -13    1    3    3    0    0 -0.25004358414E+03  0.11930481800E+03 -0.53379961656E+03  0.60141288996E+03  0.00000000000E+00 0. -1.
         22    1    1    2    0    0  0.74181438979E+03 -0.50499784441E+03  0.14644885987E+03  0.90926271249E+03  0.00000000000E+00 0.  1.
<mgrwt>
<rscale>  0 0.23909857E+04</rscale>
<asrwt>0</asrwt>
<pdfrwt beam="1">  1        1 0.34511598E+00 0.23909857E+04</pdfrwt>
<pdfrwt beam="2">  1       -1 0.98017171E-01 0.23909857E+04</pdfrwt>
<totfact> 0.18205939E+00</totfact>
</mgrwt>
</event>
<event>
 6    1  0.1885829E-005  0.1455908E+04  0.7818608E-02  0.8914315E-01
          2   -1    0    0  501    0  0.00000000000E+00  0.00000000000E+00  0.16502918530E+04  0.16502918530E+04  0.00000000000E+00 0. -1.
         -2   -1    0    0    0  501 -0.00000000000E+00 -0.00000000000E+00 -0.32110499413E+03  0.32110499413E+03  0.00000000000E+00 0.  1.
         23    2    1    2    0    0 -0.53333105209E+03 -0.31870016435E+03  0.16130280153E+03  0.64853442901E+03  0.92555420892E+02 0.  0.
         11    1    3    3    0    0 -0.51746699342E+03 -0.30392696786E+03  0.17211034678E+03  0.62431215152E+03  0.00000000000E+00 0.  1.
        -11    1    3    3    0    0 -0.15864058673E+02 -0.14773196494E+02 -0.10807545243E+02  0.24222277482E+02  0.00000000000E+00 0. -1.
         22    1    1    2    0    0  0.53333105209E+03  0.31870016435E+03  0.11678840574E+04  0.13228624181E+04  0.00000000000E+00 0. -1.
<mgrwt>
<rscale>  0 0.14559079E+04</rscale>
<asrwt>0</asrwt>
<pdfrwt beam="1">  1        2 0.25389105E+00 0.14559079E+04</pdfrwt>
<pdfrwt beam="2">  1       -2 0.49400769E-01 0.14559079E+04</pdfrwt>
<totfact> 0.39293320E+01</totfact>
</mgrwt>
</event>
<event>
 6    1  0.1885829E-005  0.1311098E+04  0.7818608E-02  0.9020810E-01
          2   -1    0    0  501    0  0.00000000000E+00  0.00000000000E+00  0.99217256752E+03  0.99217256752E+03  0.00000000000E+00 0. -1.
         -2   -1    0    0    0  501 -0.00000000000E+00 -0.00000000000E+00 -0.43313502331E+03  0.43313502331E+03  0.00000000000E+00 0.  1.
         23    2    1    2    0    0 -0.35152872033E+03  0.20745960733E+03 -0.27237479816E+03  0.49910112737E+03  0.91115173173E+02 0.  0.
         13    1    3    3    0    0 -0.16922150130E+03  0.94938496559E+02 -0.75698935876E+02  0.20827761167E+03  0.00000000000E+00 0. -1.
        -13    1    3    3    0    0 -0.18230721903E+03  0.11252111077E+03 -0.19667586228E+03  0.29082351570E+03  0.00000000000E+00 0.  1.
         22    1    1    2    0    0  0.35152872033E+03 -0.20745960733E+03  0.83141234237E+03  0.92620646345E+03  0.00000000000E+00 0. -1.
<mgrwt>
<rscale>  0 0.13110983E+04</rscale>
<asrwt>0</asrwt>
<pdfrwt beam="1">  1        2 0.15264193E+00 0.13110983E+04</pdfrwt>
<pdfrwt beam="2">  1       -2 0.66636158E-01 0.13110983E+04</pdfrwt>
<totfact> 0.51653450E+01</totfact>
</mgrwt>
</event>
<event>
 6    1  0.1885829E-005  0.1392666E+04  0.7818608E-02  0.8959144E-01
         -2   -1    0    0    0  501 -0.00000000000E+00  0.00000000000E+00  0.53920109286E+03  0.53920109286E+03  0.00000000000E+00 0.  1.
          2   -1    0    0  501    0  0.00000000000E+00 -0.00000000000E+00 -0.89925629250E+03  0.89925629250E+03  0.00000000000E+00 0. -1.
         23    2    1    2    0    0  0.34866703787E+02  0.49871575216E+03 -0.67697364887E+03  0.84653645149E+03  0.91638168587E+02 0.  0.
         13    1    3    3    0    0 -0.29591049754E+02  0.22617614756E+03 -0.31226370229E+03  0.38670389152E+03  0.00000000000E+00 0. -1.
        -13    1    3    3    0    0  0.64457753540E+02  0.27253960461E+03 -0.36470994659E+03  0.45983255997E+03  0.00000000000E+00 0.  1.
         22    1    1    2    0    0 -0.34866703787E+02 -0.49871575216E+03  0.31691844924E+03  0.59192093387E+03  0.00000000000E+00 0.  1.
<mgrwt>
<rscale>  0 0.13926665E+04</rscale>
<asrwt>0</asrwt>
<pdfrwt beam="1">  1        2 0.13834712E+00 0.13926665E+04</pdfrwt>
<pdfrwt beam="2">  1       -2 0.82954014E-01 0.13926665E+04</pdfrwt>
<totfact> 0.36418285E+01</totfact>
</mgrwt>
</event>
<event>
 6    1  0.1885829E-005  0.1116092E+04  0.7818608E-02  0.9189648E-01
         -2   -1    0    0    0  501 -0.00000000000E+00  0.00000000000E+00  0.28679731101E+03  0.28679731101E+03  0.00000000000E+00 0.  1.
          2   -1    0    0  501    0  0.00000000000E+00 -0.00000000000E+00 -0.10858375919E+04  0.10858375919E+04  0.00000000000E+00 0. -1.
         23    2    1    2    0    0 -0.29095476543E+03  0.15348404586E+03  0.14609092603E+03  0.37189266529E+03  0.93539125342E+02 0.  0.
         13    1    3    3    0    0 -0.29412873011E+03  0.15121556869E+03  0.13003367779E+03  0.35536828144E+03  0.00000000000E+00 0. -1.
        -13    1    3    3    0    0  0.31739646877E+01  0.22684771636E+01  0.16057248242E+02  0.16524383849E+02  0.00000000000E+00 0.  1.
         22    1    1    2    0    0  0.29095476543E+03 -0.15348404586E+03 -0.94513120688E+03  0.10007422376E+04  0.00000000000E+00 0. -1.
<mgrwt>
<rscale>  0 0.11160919E+04</rscale>
<asrwt>0</asrwt>
<pdfrwt beam="1">  1        2 0.16705193E+00 0.11160919E+04</pdfrwt>
<pdfrwt beam="2">  1       -2 0.44122664E-01 0.11160919E+04</pdfrwt>
<totfact> 0.10735784E+02</totfact>
</mgrwt>
</event>
<event>
 6    1  0.1934029E-005  0.3172386E+04  0.7818608E-02  0.8196148E-01
         -2   -1    0    0    0  501 -0.00000000000E+00  0.00000000000E+00  0.12950786186E+04  0.12950786186E+04  0.00000000000E+00 0.  1.
          2   -1    0    0  501    0  0.00000000000E+00 -0.00000000000E+00 -0.19427451759E+04  0.19427451759E+04  0.00000000000E+00 0. -1.
         23    2    1    2    0    0  0.65004183389E+03 -0.92540807852E+03 -0.14572630693E+04  0.18470035294E+04  0.94190694044E+02 0.  0.
         13    1    3    3    0    0  0.10666490075E+03 -0.21744884533E+03 -0.32411985872E+03  0.40461720701E+03  0.00000000000E+00 0.  1.
        -13    1    3    3    0    0  0.54337693314E+03 -0.70795923319E+03 -0.11331432106E+04  0.14423863224E+04  0.00000000000E+00 0. -1.
         22    1    1    2    0    0 -0.65004183389E+03  0.92540807852E+03  0.80959651203E+03  0.13908202651E+04  0.00000000000E+00 0.  1.
<mgrwt>
<rscale>  0 0.31723857E+04</rscale>
<asrwt>0</asrwt>
<pdfrwt beam="1">  1        2 0.29888387E+00 0.31723857E+04</pdfrwt>
<pdfrwt beam="2">  1       -2 0.19924286E+00 0.31723857E+04</pdfrwt>
<totfact> 0.81638917E-01</totfact>
</mgrwt>
</event>
<event>
 6    1  0.1885829E-005  0.1824705E+04  0.7818608E-02  0.8693271E-01
          2   -1    0    0  501    0  0.00000000000E+00  0.00000000000E+00  0.31960733008E+04  0.31960733008E+04  0.00000000000E+00 0. -1.
         -2   -1    0    0    0  501 -0.00000000000E+00 -0.00000000000E+00 -0.26044040799E+03  0.26044040799E+03  0.00000000000E+00 0.  1.
         23    2    1    2    0    0 -0.88619279182E+02 -0.34922283728E+03  0.30545898203E+04  0.30770921527E+04  0.90372447031E+02 0.  0.
         11    1    3    3    0    0 -0.83646311902E+02 -0.14672039331E+03  0.13890041645E+04  0.13992341292E+04  0.00000000000E+00 0. -1.
        -11    1    3    3    0    0 -0.49729672800E+01 -0.20250244397E+03  0.16655856558E+04  0.16778580235E+04  0.00000000000E+00 0.  1.
         22    1    1    2    0    0  0.88619279182E+02  0.34922283728E+03 -0.11895692740E+03  0.37942155619E+03  0.00000000000E+00 0.  1.
<mgrwt>
<rscale>  0 0.18247045E+04</rscale>
<asrwt>0</asrwt>
<pdfrwt beam="1">  1        2 0.49170356E+00 0.18247045E+04</pdfrwt>
<pdfrwt beam="2">  1       -2 0.40067757E-01 0.18247045E+04</pdfrwt>
<totfact> 0.72817837E+00</totfact>
</mgrwt>
</event>
<event>
 6    1  0.1885829E-005  0.1588594E+04  0.7818608E-02  0.8827586E-01
         -2   -1    0    0    0  501 -0.00000000000E+00  0.00000000000E+00  0.12498611722E+03  0.12498611722E+03  0.00000000000E+00 0.  1.
          2   -1    0    0  501    0  0.00000000000E+00 -0.00000000000E+00 -0.50478251460E+04  0.50478251460E+04  0.00000000000E+00 0. -1.
         23    2    1    2    0    0  0.72028061176E+03  0.22790652525E+03 -0.16984379534E+04  0.18610884731E+04  0.90627143133E+02 0.  0.
         13    1    3    3    0    0  0.65081501849E+03  0.21378291993E+03 -0.15929075775E+04  0.17339601712E+04  0.00000000000E+00 0.  1.
        -13    1    3    3    0    0  0.69465593269E+02  0.14123605325E+02 -0.10553037596E+03  0.12712830183E+03  0.00000000000E+00 0. -1.
         22    1    1    2    0    0 -0.72028061176E+03 -0.22790652525E+03 -0.32244010754E+04  0.33117227902E+04  0.00000000000E+00 0.  1.
<mgrwt>
<rscale>  0 0.15885944E+04</rscale>
<asrwt>0</asrwt>
<pdfrwt beam="1">  1        2 0.77658819E+00 0.15885944E+04</pdfrwt>
<pdfrwt beam="2">  1       -2 0.19228641E-01 0.15885944E+04</pdfrwt>
<totfact> 0.68691399E-01</totfact>
</mgrwt>
</event>
<event>
 6    1  0.1885829E-005  0.4984130E+04  0.7818608E-02  0.7830960E-01
         -2   -1    0    0    0  501 -0.00000000000E+00  0.00000000000E+00  0.17485802419E+04  0.17485802419E+04  0.00000000000E+00 0.  1.
          2   -1    0    0  501    0  0.00000000000E+00 -0.00000000000E+00 -0.35516742075E+04  0.35516742075E+04  0.00000000000E+00 0. -1.
         23    2    1    2    0    0  0.22545410975E+04 -0.93190314022E+03 -0.14385123024E+04  0.28336132488E+04  0.92991272739E+02 0.  0.
         13    1    3    3    0    0  0.10211251064E+04 -0.41423095988E+03 -0.59681204179E+03  0.12531833004E+04  0.00000000000E+00 0.  1.
        -13    1    3    3    0    0  0.12334159911E+04 -0.51767218035E+03 -0.84170026056E+03  0.15804299485E+04  0.00000000000E+00 0. -1.
         22    1    1    2    0    0 -0.22545410975E+04  0.93190314022E+03 -0.36458166331E+03  0.24666412006E+04  0.00000000000E+00 0. -1.
<mgrwt>
<rscale>  0 0.49841298E+04</rscale>
<asrwt>0</asrwt>
<pdfrwt beam="1">  1        2 0.54641141E+00 0.49841298E+04</pdfrwt>
<pdfrwt beam="2">  1       -2 0.26901235E+00 0.49841298E+04</pdfrwt>
<totfact> 0.26720749E-02</totfact>
</mgrwt>
</event>
<event>
 6    1  0.1885829E-005  0.2766197E+04  0.7818608E-02  0.8313840E-01
         -2   -1    0    0    0  501 -0.00000000000E+00  0.00000000000E+00  0.12334909398E+04  0.12334909398E+04  0.00000000000E+00 0.  1.
          2   -1    0    0  501    0  0.00000000000E+00 -0.00000000000E+00 -0.15508516182E+04  0.15508516182E+04  0.00000000000E+00 0. -1.
         23    2    1    2    0    0 -0.10928491919E+04 -0.34611300896E+03 -0.93500821849E+03  0.14821897041E+04  0.92370878005E+02 0.  0.
         13    1    3    3    0    0 -0.95624992587E+03 -0.32458006336E+03 -0.79309957228E+03  0.12840455871E+04  0.00000000000E+00 0. -1.
        -13    1    3    3    0    0 -0.13659926604E+03 -0.21532945604E+02 -0.14190864621E+03  0.19814411699E+03  0.00000000000E+00 0.  1.
         22    1    1    2    0    0  0.10928491919E+04  0.34611300896E+03  0.61764754008E+03  0.13021528539E+04  0.00000000000E+00 0.  1.
<mgrwt>
<rscale>  0 0.27661970E+04</rscale>
<asrwt>0</asrwt>
<pdfrwt beam="1">  1        2 0.23859256E+00 0.27661970E+04</pdfrwt>
<pdfrwt beam="2">  1       -2 0.18976784E+00 0.27661970E+04</pdfrwt>
<totfact> 0.16131495E+00</totfact>
</mgrwt>
</event>
<event>
 6    1  0.1885829E-005  0.1761052E+04  0.7818608E-02  0.8727290E-01
         -2   -1    0    0    0  501 -0.00000000000E+00  0.00000000000E+00  0.83476760272E+03  0.83476760272E+03  0.00000000000E+00 0.  1.
          2   -1    0    0  501    0  0.00000000000E+00 -0.00000000000E+00 -0.92879269821E+03  0.92879269821E+03  0.00000000000E+00 0. -1.
         23    2    1    2    0    0  0.50069816217E+03 -0.13760178995E+03 -0.75628781428E+03  0.92199936380E+03  0.92079675366E+02 0.  0.
         13    1    3    3    0    0  0.30191132977E+03 -0.41664026064E+02 -0.47642225688E+03  0.56556565398E+03  0.00000000000E+00 0. -1.
        -13    1    3    3    0    0  0.19878683240E+03 -0.95937763882E+02 -0.27986555740E+03  0.35643370982E+03  0.00000000000E+00 0.  1.
         22    1    1    2    0    0 -0.50069816217E+03  0.13760178995E+03  0.66226271879E+03  0.84156093713E+03  0.00000000000E+00 0.  1.
<mgrwt>
<rscale>  0 0.17610520E+04</rscale>
<asrwt>0</asrwt>
<pdfrwt beam="1">  1        2 0.14289118E+00 0.17610520E+04</pdfrwt>
<pdfrwt beam="2">  1       -2 0.12842579E+00 0.17610520E+04</pdfrwt>
<totfact> 0.11894370E+01</totfact>
</mgrwt>
</event>
<event>
 6    1  0.1885829E-005  0.5068063E+04  0.7818608E-02  0.7818093E-01
         -2   -1    0    0    0  501 -0.00000000000E+00  0.00000000000E+00  0.26114939770E+04  0.26114939770E+04  0.00000000000E+00 0.  1.
          2   -1    0    0  501    0  0.00000000000E+00 -0.00000000000E+00 -0.24588671162E+04  0.24588671162E+04  0.00000000000E+00 0. -1.
         23    2    1    2    0    0 -0.18624283344E+04 -0.13206682432E+04 -0.10215522070E+04  0.25029693441E+04  0.92101664689E+02 0.  0.
         13    1    3    3    0    0 -0.15220089145E+04 -0.11160518782E+04 -0.82428604278E+03  0.20594976113E+04  0.00000000000E+00 0. -1.
        -13    1    3    3    0    0 -0.34041941992E+03 -0.20461636509E+03 -0.19726616422E+03  0.44347173289E+03  0.00000000000E+00 0.  1.
         22    1    1    2    0    0  0.18624283344E+04  0.13206682432E+04  0.11741790678E+04  0.25673917490E+04  0.00000000000E+00 0.  1.
<mgrwt>
<rscale>  0 0.50680634E+04</rscale>
<asrwt>0</asrwt>
<pdfrwt beam="1">  1        2 0.37828725E+00 0.50680634E+04</pdfrwt>
<pdfrwt beam="2">  1       -2 0.40176830E+00 0.50680634E+04</pdfrwt>
<totfact> 0.19259623E-02</totfact>
</mgrwt>
</event>
<event>
 6    1  0.1885829E-005  0.3142670E+04  0.7818608E-02  0.8204124E-01
          2   -1    0    0  501    0  0.00000000000E+00  0.00000000000E+00  0.16825008974E+04  0.16825008974E+04  0.00000000000E+00 0. -1.
         -2   -1    0    0    0  501 -0.00000000000E+00 -0.00000000000E+00 -0.14675142415E+04  0.14675142415E+04  0.00000000000E+00 0.  1.
         23    2    1    2    0    0  0.11570856786E+04 -0.30428823879E+02 -0.95558354904E+03  0.15038050109E+04  0.92284400959E+02 0.  0.
         13    1    3    3    0    0  0.31850798784E+03  0.26077075518E+02 -0.23433503112E+03  0.39628305414E+03  0.00000000000E+00 0. -1.
        -13    1    3    3    0    0  0.83857769079E+03 -0.56505899396E+02 -0.72124851792E+03  0.11075219568E+04  0.00000000000E+00 0.  1.
         22    1    1    2    0    0 -0.11570856786E+04  0.30428823879E+02  0.11705702049E+04  0.16462101280E+04  0.00000000000E+00 0. -1.
<mgrwt>
<rscale>  0 0.31426702E+04</rscale>
<asrwt>0</asrwt>
<pdfrwt beam="1">  1        2 0.25884629E+00 0.31426702E+04</pdfrwt>
<pdfrwt beam="2">  1       -2 0.22577142E+00 0.31426702E+04</pdfrwt>
<totfact> 0.77123457E-01</totfact>
</mgrwt>
</event>
<event>
 6    1  0.1885829E-005  0.9553884E+03  0.7818608E-02  0.9358874E-01
         -1   -1    0    0    0  501 -0.00000000000E+00  0.00000000000E+00  0.33989824659E+03  0.33989824659E+03  0.00000000000E+00 0.  1.
          1   -1    0    0  501    0  0.00000000000E+00 -0.00000000000E+00 -0.67135317293E+03  0.67135317293E+03  0.00000000000E+00 0. -1.
         23    2    1    2    0    0 -0.40200047952E+03  0.23099748167E+03 -0.71174041682E+02  0.47954627474E+03  0.99672781278E+02 0.  0.
         11    1    3    3    0    0 -0.20265670160E+03  0.89406822478E+02 -0.78290386166E+02  0.23493127330E+03  0.00000000000E+00 0. -1.
        -11    1    3    3    0    0 -0.19934377793E+03  0.14159065920E+03  0.71163444841E+01  0.24461500144E+03  0.00000000000E+00 0.  1.
         22    1    1    2    0    0  0.40200047952E+03 -0.23099748167E+03 -0.26028088466E+03  0.53170514479E+03  0.00000000000E+00 0. -1.
<mgrwt>
<rscale>  0 0.95538844E+03</rscale>
<asrwt>0</asrwt>
<pdfrwt beam="1">  1        1 0.10328510E+00 0.95538844E+03</pdfrwt>
<pdfrwt beam="2">  1       -1 0.52292038E-01 0.95538844E+03</pdfrwt>
<totfact> 0.10742824E+02</totfact>
</mgrwt>
</event>
<event>
 6    1  0.1885829E-005  0.2128557E+04  0.7818608E-02  0.8548767E-01
          2   -1    0    0  501    0  0.00000000000E+00  0.00000000000E+00  0.78394639595E+03  0.78394639595E+03  0.00000000000E+00 0. -1.
         -2   -1    0    0    0  501 -0.00000000000E+00 -0.00000000000E+00 -0.14448551938E+04  0.14448551938E+04  0.00000000000E+00 0.  1.
         23    2    1    2    0    0  0.37250781340E+03  0.10307541217E+03 -0.13671468049E+04  0.14237185293E+04  0.92181629690E+02 0.  0.
         11    1    3    3    0    0  0.13603163926E+03  0.74623436823E+02 -0.64082059133E+03  0.65933625296E+03  0.00000000000E+00 0. -1.
        -11    1    3    3    0    0  0.23647617414E+03  0.28451975344E+02 -0.72632621359E+03  0.76438227634E+03  0.00000000000E+00 0.  1.
         22    1    1    2    0    0 -0.37250781340E+03 -0.10307541217E+03  0.70623800706E+03  0.80508306046E+03  0.00000000000E+00 0. -1.
<mgrwt>
<rscale>  0 0.21285573E+04</rscale>
<asrwt>0</asrwt>
<pdfrwt beam="1">  1        2 0.12060714E+00 0.21285573E+04</pdfrwt>
<pdfrwt beam="2">  1       -2 0.22228542E+00 0.21285573E+04</pdfrwt>
<totfact> 0.31088808E+00</totfact>
</mgrwt>
</event>
<event>
 6    1  0.1885829E-005  0.6413859E+03  0.7818608E-02  0.9823079E-01
          2   -1    0    0  501    0  0.00000000000E+00  0.00000000000E+00  0.88933965889E+03  0.88933965889E+03  0.00000000000E+00 0. -1.
         -2   -1    0    0    0  501 -0.00000000000E+00 -0.00000000000E+00 -0.11564082600E+03  0.11564082600E+03  0.00000000000E+00 0.  1.
         23    2    1    2    0    0  0.24538223232E+03  0.67683586730E+02  0.68344681352E+03  0.73490839293E+03  0.90538893518E+02 0.  0.
         13    1    3    3    0    0  0.60131050271E+02 -0.50215991735E+01  0.26170829450E+03  0.26857436786E+03  0.00000000000E+00 0.  1.
        -13    1    3    3    0    0  0.18525118205E+03  0.72705185904E+02  0.42173851902E+03  0.46633402507E+03  0.00000000000E+00 0. -1.
         22    1    1    2    0    0 -0.24538223232E+03 -0.67683586730E+02  0.90252019372E+02  0.27007209195E+03  0.00000000000E+00 0.  1.
<mgrwt>
<rscale>  0 0.64138591E+03</rscale>
<asrwt>0</asrwt>
<pdfrwt beam="1">  1        2 0.13682148E+00 0.64138591E+03</pdfrwt>
<pdfrwt beam="2">  1       -2 0.17790897E-01 0.64138591E+03</pdfrwt>
<totfact> 0.78523478E+02</totfact>
</mgrwt>
</event>
<event>
 6    1  0.1885829E-005  0.9346684E+03  0.7818608E-02  0.9383253E-01
         -2   -1    0    0    0  501 -0.00000000000E+00  0.00000000000E+00  0.37978817562E+03  0.37978817562E+03  0.00000000000E+00 0.  1.
          2   -1    0    0  501    0  0.00000000000E+00 -0.00000000000E+00 -0.57506068430E+03  0.57506068430E+03  0.00000000000E+00 0. -1.
         23    2    1    2    0    0 -0.50921924693E+02 -0.14621648735E+03 -0.54427132279E+03  0.57304724149E+03  0.90440945213E+02 0.  0.
         13    1    3    3    0    0 -0.33253676028E+01 -0.90316137260E+02 -0.17958889106E+03  0.20104783638E+03  0.00000000000E+00 0.  1.
        -13    1    3    3    0    0 -0.47596557090E+02 -0.55900350091E+02 -0.36468243173E+03  0.37199940511E+03  0.00000000000E+00 0. -1.
         22    1    1    2    0    0  0.50921924693E+02  0.14621648735E+03  0.34899881411E+03  0.38180161843E+03  0.00000000000E+00 0.  1.
<mgrwt>
<rscale>  0 0.93466839E+03</rscale>
<asrwt>0</asrwt>
<pdfrwt beam="1">  1        2 0.88470874E-01 0.93466839E+03</pdfrwt>
<pdfrwt beam="2">  1       -2 0.58428950E-01 0.93466839E+03</pdfrwt>
<totfact> 0.14330627E+02</totfact>
</mgrwt>
</event>
<event>
 6    1  0.1885829E-005  0.3671311E+04  0.7818608E-02  0.8074350E-01
         -2   -1    0    0    0  501 -0.00000000000E+00  0.00000000000E+00  0.95889968385E+03  0.95889968385E+03  0.00000000000E+00 0.  1.
          2   -1    0    0  501    0  0.00000000000E+00 -0.00000000000E+00 -0.35140602542E+04  0.35140602542E+04  0.00000000000E+00 0. -1.
         23    2    1    2    0    0  0.64035560557E+03  0.11862241382E+04 -0.27943835561E+04  0.31038687633E+04  0.90768019964E+02 0.  0.
         11    1    3    3    0    0  0.39811193153E+03  0.67171015826E+03 -0.15424879875E+04  0.17288599823E+04  0.00000000000E+00 0. -1.
        -11    1    3    3    0    0  0.24224367404E+03  0.51451397998E+03 -0.12518955686E+04  0.13750087810E+04  0.00000000000E+00 0.  1.
         22    1    1    2    0    0 -0.64035560557E+03 -0.11862241382E+04  0.23922298580E+03  0.13690911747E+04  0.00000000000E+00 0.  1.
<mgrwt>
<rscale>  0 0.36713111E+04</rscale>
<asrwt>0</asrwt>
<pdfrwt beam="1">  1        2 0.54062466E+00 0.36713111E+04</pdfrwt>
<pdfrwt beam="2">  1       -2 0.14752303E+00 0.36713111E+04</pdfrwt>
<totfact> 0.20128168E-01</totfact>
</mgrwt>
</event>
<event>
 6    1  0.1885829E-005  0.2085027E+04  0.7818608E-02  0.8567868E-01
          2   -1    0    0  501    0  0.00000000000E+00  0.00000000000E+00  0.13861466646E+04  0.13861466646E+04  0.00000000000E+00 0. -1.
         -2   -1    0    0    0  501 -0.00000000000E+00 -0.00000000000E+00 -0.78406877770E+03  0.78406877770E+03  0.00000000000E+00 0.  1.
         23    2    1    2    0    0 -0.54450947417E+03  0.65683978238E+03 -0.31763335632E+03  0.91570444671E+03  0.98461248767E+02 0.  0.
         13    1    3    3    0    0 -0.36002731984E+03  0.50041858517E+03 -0.24220535486E+03  0.66234572946E+03  0.00000000000E+00 0. -1.
        -13    1    3    3    0    0 -0.18448215433E+03  0.15642119720E+03 -0.75428001452E+02  0.25335871725E+03  0.00000000000E+00 0.  1.
         22    1    1    2    0    0  0.54450947417E+03 -0.65683978238E+03  0.91971124321E+03  0.12545109956E+04  0.00000000000E+00 0. -1.
<mgrwt>
<rscale>  0 0.20850269E+04</rscale>
<asrwt>0</asrwt>
<pdfrwt beam="1">  1        2 0.21325333E+00 0.20850269E+04</pdfrwt>
<pdfrwt beam="2">  1       -2 0.12062597E+00 0.20850269E+04</pdfrwt>
<totfact> 0.71290652E+00</totfact>
</mgrwt>
</event>
<event>
 6    1  0.1885829E-005  0.3566534E+04  0.7818608E-02  0.8098201E-01
         -2   -1    0    0    0  501 -0.00000000000E+00  0.00000000000E+00  0.21667244684E+04  0.21667244684E+04  0.00000000000E+00 0.  1.
          2   -1    0    0  501    0  0.00000000000E+00 -0.00000000000E+00 -0.14676722213E+04  0.14676722213E+04  0.00000000000E+00 0. -1.
         23    2    1    2    0    0 -0.15007268464E+04  0.78512387475E+03  0.91405307631E+03  0.19271105618E+04  0.98293056242E+02 0.  0.
         11    1    3    3    0    0 -0.94274009554E+03  0.53614544579E+03  0.61621932980E+03  0.12473720733E+04  0.00000000000E+00 0. -1.
        -11    1    3    3    0    0 -0.55798675086E+03  0.24897842895E+03  0.29783374650E+03  0.67973848852E+03  0.00000000000E+00 0.  1.
         22    1    1    2    0    0  0.15007268464E+04 -0.78512387475E+03 -0.21500082923E+03  0.17072861280E+04  0.00000000000E+00 0.  1.
<mgrwt>
<rscale>  0 0.35665341E+04</rscale>
<asrwt>0</asrwt>
<pdfrwt beam="1">  1        2 0.22579573E+00 0.35665341E+04</pdfrwt>
<pdfrwt beam="2">  1       -2 0.33334223E+00 0.35665341E+04</pdfrwt>
<totfact> 0.21405774E-01</totfact>
</mgrwt>
</event>
<event>
 6    1  0.1885829E-005  0.1054130E+04  0.7818608E-02  0.9251091E-01
         -2   -1    0    0    0  501 -0.00000000000E+00  0.00000000000E+00  0.23574050559E+03  0.23574050559E+03  0.00000000000E+00 0.  1.
          2   -1    0    0  501    0  0.00000000000E+00 -0.00000000000E+00 -0.11784035991E+04  0.11784035991E+04  0.00000000000E+00 0. -1.
         23    2    1    2    0    0 -0.17139684227E+03 -0.32191602154E+03  0.29126050272E+02  0.37617447968E+03  0.87476339066E+02 0.  0.
         13    1    3    3    0    0 -0.13626297919E+03 -0.29004009851E+03  0.50026317093E+02  0.32433546004E+03  0.00000000000E+00 0. -1.
        -13    1    3    3    0    0 -0.35133863075E+02 -0.31875923032E+02 -0.20900266821E+02  0.51839019637E+02  0.00000000000E+00 0.  1.
         22    1    1    2    0    0  0.17139684227E+03  0.32191602154E+03 -0.97178914381E+03  0.10379696250E+04  0.00000000000E+00 0. -1.
<mgrwt>
<rscale>  0 0.10541299E+04</rscale>
<asrwt>0</asrwt>
<pdfrwt beam="1">  1        2 0.18129286E+00 0.10541299E+04</pdfrwt>
<pdfrwt beam="2">  1       -2 0.36267770E-01 0.10541299E+04</pdfrwt>
<totfact> 0.13884049E+02</totfact>
</mgrwt>
</event>
<event>
 6    1  0.1885829E-005  0.3372434E+04  0.7818608E-02  0.8144705E-01
          2   -1    0    0  501    0  0.00000000000E+00  0.00000000000E+00  0.22552917005E+04  0.22552917005E+04  0.00000000000E+00 0. -1.
         -2   -1    0    0    0  501 -0.00000000000E+00 -0.00000000000E+00 -0.12607358577E+04  0.12607358577E+04  0.00000000000E+00 0.  1.
         23    2    1    2    0    0 -0.94712872377E+03  0.36989032509E+03 -0.90314947373E+03  0.13630860494E+04  0.91939839607E+02 0.  0.
         11    1    3    3    0    0 -0.17126797769E+03  0.10080620268E+03 -0.20057706663E+03  0.28235752219E+03  0.00000000000E+00 0.  1.
        -11    1    3    3    0    0 -0.77586074608E+03  0.26908412241E+03 -0.70257240711E+03  0.10807285272E+04  0.00000000000E+00 0. -1.
         22    1    1    2    0    0  0.94712872377E+03 -0.36989032509E+03  0.18977053166E+04  0.21529415088E+04  0.00000000000E+00 0. -1.
<mgrwt>
<rscale>  0 0.33724336E+04</rscale>
<asrwt>0</asrwt>
<pdfrwt beam="1">  1        2 0.34696795E+00 0.33724336E+04</pdfrwt>
<pdfrwt beam="2">  1       -2 0.19395936E+00 0.33724336E+04</pdfrwt>
<totfact> 0.58189663E-01</totfact>
</mgrwt>
</event>
<event>
 6    1  0.1885829E-005  0.2245493E+04  0.7818608E-02  0.8499728E-01
         -2   -1    0    0    0  501 -0.00000000000E+00  0.00000000000E+00  0.30883866526E+03  0.30883866526E+03  0.00000000000E+00 0.  1.
          2   -1    0    0  501    0  0.00000000000E+00 -0.00000000000E+00 -0.40816111910E+04  0.40816111910E+04  0.00000000000E+00 0. -1.
         23    2    1    2    0    0  0.76765645626E+03 -0.65494134219E+03 -0.28435825399E+04  0.30187215208E+04  0.92050867794E+02 0.  0.
         11    1    3    3    0    0  0.25644867454E+03 -0.23217820257E+03 -0.85148803042E+03  0.91907807414E+03  0.00000000000E+00 0.  1.
        -11    1    3    3    0    0  0.51120778172E+03 -0.42276313962E+03 -0.19920945095E+04  0.20996434467E+04  0.00000000000E+00 0. -1.
         22    1    1    2    0    0 -0.76765645626E+03  0.65494134219E+03 -0.92918998581E+03  0.13717283354E+04  0.00000000000E+00 0.  1.
<mgrwt>
<rscale>  0 0.22454927E+04</rscale>
<asrwt>0</asrwt>
<pdfrwt beam="1">  1        2 0.62794013E+00 0.22454927E+04</pdfrwt>
<pdfrwt beam="2">  1       -2 0.47513645E-01 0.22454927E+04</pdfrwt>
<totfact> 0.11288138E+00</totfact>
</mgrwt>
</event>
<event>
 6    1  0.1885829E-005  0.2431058E+04  0.7818608E-02  0.8427967E-01
         -2   -1    0    0    0  501 -0.00000000000E+00  0.00000000000E+00  0.41578864426E+03  0.41578864426E+03  0.00000000000E+00 0.  1.
          2   -1    0    0  501    0  0.00000000000E+00 -0.00000000000E+00 -0.35535134896E+04  0.35535134896E+04  0.00000000000E+00 0. -1.
         23    2    1    2    0    0  0.37413992941E+03 -0.24697488099E+03 -0.34128208864E+04  0.34433219913E+04  0.90236658906E+02 0.  0.
         11    1    3    3    0    0  0.28403129150E+03 -0.16735152265E+03 -0.22013567998E+04  0.22259047749E+04  0.00000000000E+00 0.  1.
        -11    1    3    3    0    0  0.90108637905E+02 -0.79623358339E+02 -0.12114640866E+04  0.12174172164E+04  0.00000000000E+00 0. -1.
         22    1    1    2    0    0 -0.37413992941E+03  0.24697488099E+03  0.27509604101E+03  0.52598014259E+03  0.00000000000E+00 0.  1.
<mgrwt>
<rscale>  0 0.24310578E+04</rscale>
<asrwt>0</asrwt>
<pdfrwt beam="1">  1        2 0.54669437E+00 0.24310578E+04</pdfrwt>
<pdfrwt beam="2">  1       -2 0.63967485E-01 0.24310578E+04</pdfrwt>
<totfact> 0.15134558E+00</totfact>
</mgrwt>
</event>
<event>
 6    1  0.1885829E-005  0.4193207E+04  0.7818608E-02  0.7966666E-01
          2   -1    0    0  501    0  0.00000000000E+00  0.00000000000E+00  0.28066623216E+04  0.28066623216E+04  0.00000000000E+00 0. -1.
         -2   -1    0    0    0  501 -0.00000000000E+00 -0.00000000000E+00 -0.15661829130E+04  0.15661829130E+04  0.00000000000E+00 0.  1.
         23    2    1    2    0    0 -0.86366825838E+03 -0.44337652880E+03 -0.13162046526E+04  0.16380437801E+04  0.91033681168E+02 0.  0.
         13    1    3    3    0    0 -0.70958471832E+03 -0.40192578813E+03 -0.11042219932E+04  0.13727203000E+04  0.00000000000E+00 0.  1.
        -13    1    3    3    0    0 -0.15408354006E+03 -0.41450740666E+02 -0.21198265937E+03  0.26532348010E+03  0.00000000000E+00 0. -1.
         22    1    1    2    0    0  0.86366825838E+03  0.44337652880E+03  0.25566840612E+04  0.27348014545E+04  0.00000000000E+00 0. -1.
<mgrwt>
<rscale>  0 0.41932072E+04</rscale>
<asrwt>0</asrwt>
<pdfrwt beam="1">  1        2 0.43179420E+00 0.41932072E+04</pdfrwt>
<pdfrwt beam="2">  1       -2 0.24095122E+00 0.41932072E+04</pdfrwt>
<totfact> 0.13000095E-01</totfact>
</mgrwt>
</event>
<event>
 6    1  0.1885829E-005  0.1770169E+04  0.7818608E-02  0.8722326E-01
         -2   -1    0    0    0  501 -0.00000000000E+00  0.00000000000E+00  0.46723038766E+03  0.46723038766E+03  0.00000000000E+00 0.  1.
          2   -1    0    0  501    0  0.00000000000E+00 -0.00000000000E+00 -0.16766337230E+04  0.16766337230E+04  0.00000000000E+00 0. -1.
         23    2    1    2    0    0  0.15062155066E+03 -0.84997521622E+03 -0.38194332589E+03  0.94810711739E+03  0.88778838389E+02 0.  0.
         11    1    3    3    0    0  0.98613029499E+02 -0.31247850416E+03 -0.13747007736E+03  0.35533838424E+03  0.00000000000E+00 0.  1.
        -11    1    3    3    0    0  0.52008521160E+02 -0.53749671206E+03 -0.24447324853E+03  0.59276873315E+03  0.00000000000E+00 0. -1.
         22    1    1    2    0    0 -0.15062155066E+03  0.84997521622E+03 -0.82746000940E+03  0.11957569932E+04  0.00000000000E+00 0. -1.
<mgrwt>
<rscale>  0 0.17701686E+04</rscale>
<asrwt>0</asrwt>
<pdfrwt beam="1">  1        2 0.25794365E+00 0.17701686E+04</pdfrwt>
<pdfrwt beam="2">  1       -2 0.71881598E-01 0.17701686E+04</pdfrwt>
<totfact> 0.16770188E+01</totfact>
</mgrwt>
</event>
<event>
 6    1  0.1885829E-005  0.1318594E+04  0.7818608E-02  0.9014949E-01
         -2   -1    0    0    0  501 -0.00000000000E+00  0.00000000000E+00  0.17975168231E+03  0.17975168231E+03  0.00000000000E+00 0.  1.
          2   -1    0    0  501    0  0.00000000000E+00 -0.00000000000E+00 -0.24181820501E+04  0.24181820501E+04  0.00000000000E+00 0. -1.
         23    2    1    2    0    0  0.49512841845E+03  0.29752346364E+03 -0.51121469161E+03  0.77668516227E+03  0.90702911782E+02 0.  0.
         11    1    3    3    0    0  0.45461493200E+03  0.23925827215E+03 -0.45149114928E+03  0.68393239071E+03  0.00000000000E+00 0.  1.
        -11    1    3    3    0    0  0.40513486449E+02  0.58265191488E+02 -0.59723542334E+02  0.92752771561E+02  0.00000000000E+00 0. -1.
         22    1    1    2    0    0 -0.49512841845E+03 -0.29752346364E+03 -0.17272156761E+04  0.18212485701E+04  0.00000000000E+00 0. -1.
<mgrwt>
<rscale>  0 0.13185936E+04</rscale>
<asrwt>0</asrwt>
<pdfrwt beam="1">  1        2 0.37202799E+00 0.13185936E+04</pdfrwt>
<pdfrwt beam="2">  1       -2 0.27654106E-01 0.13185936E+04</pdfrwt>
<totfact> 0.45487241E+01</totfact>
</mgrwt>
</event>
<event>
 6    1  0.1885829E-005  0.3289196E+04  0.7818608E-02  0.8165650E-01
          2   -1    0    0  501    0  0.00000000000E+00  0.00000000000E+00  0.13550222986E+04  0.13550222986E+04  0.00000000000E+00 0. -1.
         -2   -1    0    0    0  501 -0.00000000000E+00 -0.00000000000E+00 -0.19960578622E+04  0.19960578622E+04  0.00000000000E+00 0.  1.
         23    2    1    2    0    0 -0.29170996253E+03  0.14810927277E+04  0.34094896183E+03  0.15502403627E+04  0.90931937045E+02 0.  0.
         11    1    3    3    0    0 -0.22530533807E+03  0.10417877777E+04  0.27780098939E+03  0.11014797587E+04  0.00000000000E+00 0.  1.
        -11    1    3    3    0    0 -0.66404624462E+02  0.43930494999E+03  0.63147972438E+02  0.44876060395E+03  0.00000000000E+00 0. -1.
         22    1    1    2    0    0  0.29170996253E+03 -0.14810927277E+04 -0.98198452537E+03  0.18008397981E+04  0.00000000000E+00 0.  1.
<mgrwt>
<rscale>  0 0.32891962E+04</rscale>
<asrwt>0</asrwt>
<pdfrwt beam="1">  1        2 0.20846497E+00 0.32891962E+04</pdfrwt>
<pdfrwt beam="2">  1       -2 0.30708582E+00 0.32891962E+04</pdfrwt>
<totfact> 0.36916299E-01</totfact>
</mgrwt>
</event>
<event>
 6    1  0.1989897E-005  0.1973001E+04  0.7818608E-02  0.8619348E-01
          2   -1    0    0  501    0  0.00000000000E+00  0.00000000000E+00  0.12238920823E+04  0.12238920823E+04  0.00000000000E+00 0. -1.
         -2   -1    0    0    0  501 -0.00000000000E+00 -0.00000000000E+00 -0.79515479779E+03  0.79515479779E+03  0.00000000000E+00 0.  1.
         23    2    1    2    0    0 -0.57392973336E+03  0.39761619988E+02  0.10322150266E+04  0.11852832982E+04  0.91936448756E+02 0.  0.
         11    1    3    3    0    0 -0.32807750449E+03  0.26528829272E+01  0.50257955777E+03  0.60019005209E+03  0.00000000000E+00 0. -1.
        -11    1    3    3    0    0 -0.24585222887E+03  0.37108737061E+02  0.52963546884E+03  0.58509324612E+03  0.00000000000E+00 0.  1.
         22    1    1    2    0    0  0.57392973336E+03 -0.39761619988E+02 -0.60347774210E+03  0.83376358188E+03  0.00000000000E+00 0.  1.
<mgrwt>
<rscale>  0 0.19730014E+04</rscale>
<asrwt>0</asrwt>
<pdfrwt beam="1">  1        2 0.18829109E+00 0.19730014E+04</pdfrwt>
<pdfrwt beam="2">  1       -2 0.12233151E+00 0.19730014E+04</pdfrwt>
<totfact> 0.86389653E+00</totfact>
</mgrwt>
</event>
<event>
 6    1  0.1885829E-005  0.3914906E+04  0.7818608E-02  0.8021936E-01
         -2   -1    0    0    0  501 -0.00000000000E+00  0.00000000000E+00  0.14388992856E+04  0.14388992856E+04  0.00000000000E+00 0.  1.
          2   -1    0    0  501    0  0.00000000000E+00 -0.00000000000E+00 -0.26628846807E+04  0.26628846807E+04  0.00000000000E+00 0. -1.
         23    2    1    2    0    0  0.17108765630E+03  0.79191230337E+03 -0.24780911286E+04  0.26087410086E+04  0.90542397955E+02 0.  0.
         11    1    3    3    0    0  0.11089071791E+03  0.49592559458E+03 -0.14107381179E+04  0.14994735689E+04  0.00000000000E+00 0.  1.
        -11    1    3    3    0    0  0.60196938392E+02  0.29598670878E+03 -0.10673530107E+04  0.11092674397E+04  0.00000000000E+00 0. -1.
         22    1    1    2    0    0 -0.17108765630E+03 -0.79191230337E+03  0.12541057336E+04  0.14930429576E+04  0.00000000000E+00 0.  1.
<mgrwt>
<rscale>  0 0.39149063E+04</rscale>
<asrwt>0</asrwt>
<pdfrwt beam="1">  1        2 0.40967456E+00 0.39149063E+04</pdfrwt>
<pdfrwt beam="2">  1       -2 0.22136912E+00 0.39149063E+04</pdfrwt>
<totfact> 0.21497429E-01</totfact>
</mgrwt>
</event>
<event>
 6    1  0.1885829E-005  0.1512099E+04  0.7818608E-02  0.8876447E-01
         -2   -1    0    0    0  501 -0.00000000000E+00  0.00000000000E+00  0.55904502733E+03  0.55904502733E+03  0.00000000000E+00 0.  1.
          2   -1    0    0  501    0  0.00000000000E+00 -0.00000000000E+00 -0.10224776014E+04  0.10224776014E+04  0.00000000000E+00 0. -1.
         23    2    1    2    0    0 -0.66838321573E+03 -0.34579386691E+03 -0.19670500298E+03  0.78311601636E+03  0.90930277751E+02 0.  0.
         13    1    3    3    0    0 -0.62785604248E+03 -0.33436590736E+03 -0.16452029109E+03  0.73011690589E+03  0.00000000000E+00 0. -1.
        -13    1    3    3    0    0 -0.40527173247E+02 -0.11427959552E+02 -0.32184711883E+02  0.52999110463E+02  0.00000000000E+00 0.  1.
         22    1    1    2    0    0  0.66838321573E+03  0.34579386691E+03 -0.26672757106E+03  0.79840661234E+03  0.00000000000E+00 0.  1.
<mgrwt>
<rscale>  0 0.15120992E+04</rscale>
<asrwt>0</asrwt>
<pdfrwt beam="1">  1        2 0.15730425E+00 0.15120992E+04</pdfrwt>
<pdfrwt beam="2">  1       -2 0.86006928E-01 0.15120992E+04</pdfrwt>
<totfact> 0.27596862E+01</totfact>
</mgrwt>
</event>
<event>
 6    1  0.1885829E-005  0.4171179E+04  0.7818608E-02  0.7970877E-01
         -2   -1    0    0    0  501 -0.00000000000E+00  0.00000000000E+00  0.10493238228E+04  0.10493238228E+04  0.00000000000E+00 0.  1.
          2   -1    0    0  501    0  0.00000000000E+00 -0.00000000000E+00 -0.41452248317E+04  0.41452248317E+04  0.00000000000E+00 0. -1.
         23    2    1    2    0    0  0.48167544477E+03 -0.57228140194E+03 -0.39718222768E+04  0.40427000080E+04  0.92379213749E+02 0.  0.
         13    1    3    3    0    0  0.17779738451E+03 -0.14533818739E+03 -0.12026510034E+04  0.12243792446E+04  0.00000000000E+00 0. -1.
        -13    1    3    3    0    0  0.30387806027E+03 -0.42694321455E+03 -0.27691712734E+04  0.28183207634E+04  0.00000000000E+00 0.  1.
         22    1    1    2    0    0 -0.48167544477E+03  0.57228140194E+03  0.87592126783E+03  0.11518486465E+04  0.00000000000E+00 0.  1.
<mgrwt>
<rscale>  0 0.41711788E+04</rscale>
<asrwt>0</asrwt>
<pdfrwt beam="1">  1        2 0.63772689E+00 0.41711788E+04</pdfrwt>
<pdfrwt beam="2">  1       -2 0.16143444E+00 0.41711788E+04</pdfrwt>
<totfact> 0.49336221E-02</totfact>
</mgrwt>
</event>
<event>
 6    1  0.1885829E-005  0.8332316E+03  0.7818608E-02  0.9513123E-01
          2   -1    0    0  501    0  0.00000000000E+00  0.00000000000E+00  0.13096852535E+04  0.13096852535E+04  0.00000000000E+00 0. -1.
         -2   -1    0    0    0  501 -0.00000000000E+00 -0.00000000000E+00 -0.13252705449E+03  0.13252705449E+03  0.00000000000E+00 0.  1.
         23    2    1    2    0    0 -0.11695698630E+03 -0.20606753256E+03  0.10848942571E+02  0.25207784236E+03  0.85339172922E+02 0.  0.
         13    1    3    3    0    0 -0.29603448166E+02 -0.49188511227E+01 -0.10383131956E+02  0.31754821192E+02  0.00000000000E+00 0. -1.
        -13    1    3    3    0    0 -0.87353538129E+02 -0.20114868144E+03  0.21232074527E+02  0.22032302117E+03  0.00000000000E+00 0.  1.
         22    1    1    2    0    0  0.11695698630E+03  0.20606753256E+03  0.11663092564E+04  0.11901344656E+04  0.00000000000E+00 0. -1.
<mgrwt>
<rscale>  0 0.83323161E+03</rscale>
<asrwt>0</asrwt>
<pdfrwt beam="1">  1        2 0.20149003E+00 0.83323161E+03</pdfrwt>
<pdfrwt beam="2">  1       -2 0.20388779E-01 0.83323161E+03</pdfrwt>
<totfact> 0.33852085E+02</totfact>
</mgrwt>
</event>
<event>
 6    1  0.1885829E-005  0.3163396E+04  0.7818608E-02  0.8198552E-01
          2   -1    0    0  501    0  0.00000000000E+00  0.00000000000E+00  0.31607020686E+04  0.31607020686E+04  0.00000000000E+00 0.  1.
         -2   -1    0    0    0  501 -0.00000000000E+00 -0.00000000000E+00 -0.79152328315E+03  0.79152328315E+03  0.00000000000E+00 0. -1.
         23    2    1    2    0    0 -0.91272556547E+03  0.32213895519E+02 -0.42581900743E+03  0.10117970913E+04  0.91136347624E+02 0.  0.
         13    1    3    3    0    0 -0.80888151192E+03  0.16367828267E+02 -0.34629273655E+03  0.88004310436E+03  0.00000000000E+00 0. -1.
        -13    1    3    3    0    0 -0.10384405354E+03  0.15846067252E+02 -0.79526270881E+02  0.13175398690E+03  0.00000000000E+00 0.  1.
         22    1    1    2    0    0  0.91272556547E+03 -0.32213895519E+02  0.27949977929E+04  0.29404282605E+04  0.00000000000E+00 0.  1.
<mgrwt>
<rscale>  0 0.31633965E+04</rscale>
<asrwt>0</asrwt>
<pdfrwt beam="1">  1        2 0.48626185E+00 0.31633965E+04</pdfrwt>
<pdfrwt beam="2">  1       -2 0.12177281E+00 0.31633965E+04</pdfrwt>
<totfact> 0.59418048E-01</totfact>
</mgrwt>
</event>
<event>
 6    1  0.1885829E-005  0.3852014E+04  0.7818608E-02  0.8035084E-01
         -2   -1    0    0    0  501 -0.00000000000E+00  0.00000000000E+00  0.14338926465E+04  0.14338926465E+04  0.00000000000E+00 0.  1.
          2   -1    0    0  501    0  0.00000000000E+00 -0.00000000000E+00 -0.25870162571E+04  0.25870162571E+04  0.00000000000E+00 0. -1.
         23    2    1    2    0    0 -0.11517239026E+03  0.41063714159E+03 -0.25362746032E+04  0.25734994212E+04  0.91229745684E+02 0.  0.
         13    1    3    3    0    0 -0.10388486722E+02  0.65658184832E+02 -0.23769243744E+03  0.24681291034E+03  0.00000000000E+00 0.  1.
        -13    1    3    3    0    0 -0.10478390354E+03  0.34497895675E+03 -0.22985821657E+04  0.23266865108E+04  0.00000000000E+00 0. -1.
         22    1    1    2    0    0  0.11517239026E+03 -0.41063714159E+03  0.13831509925E+04  0.14474094824E+04  0.00000000000E+00 0.  1.
<mgrwt>
<rscale>  0 0.38520143E+04</rscale>
<asrwt>0</asrwt>
<pdfrwt beam="1">  1        2 0.39800250E+00 0.38520143E+04</pdfrwt>
<pdfrwt beam="2">  1       -2 0.22059887E+00 0.38520143E+04</pdfrwt>
<totfact> 0.24224898E-01</totfact>
</mgrwt>
</event>
<event>
 6    1  0.1885829E-005  0.2966411E+04  0.7818608E-02  0.8253388E-01
          2   -1    0    0  501    0  0.00000000000E+00  0.00000000000E+00  0.21060132736E+04  0.21060132736E+04  0.00000000000E+00 0.  1.
         -2   -1    0    0    0  501 -0.00000000000E+00 -0.00000000000E+00 -0.10445799241E+04  0.10445799241E+04  0.00000000000E+00 0. -1.
         23    2    1    2    0    0 -0.64518754054E+03  0.73523138565E+03  0.17134603555E+04  0.19750204141E+04  0.89034224935E+02 0.  0.
         13    1    3    3    0    0 -0.17771416508E+03  0.26207788234E+03  0.52539814152E+03  0.61344139735E+03  0.00000000000E+00 0.  1.
        -13    1    3    3    0    0 -0.46747337546E+03  0.47315350331E+03  0.11880622140E+04  0.13615790167E+04  0.00000000000E+00 0. -1.
         22    1    1    2    0    0  0.64518754054E+03 -0.73523138565E+03 -0.65202700605E+03  0.11755727836E+04  0.00000000000E+00 0. -1.
<mgrwt>
<rscale>  0 0.29664114E+04</rscale>
<asrwt>0</asrwt>
<pdfrwt beam="1">  1        2 0.32400204E+00 0.29664114E+04</pdfrwt>
<pdfrwt beam="2">  1       -2 0.16070460E+00 0.29664114E+04</pdfrwt>
<totfact> 0.12456895E+00</totfact>
</mgrwt>
</event>
<event>
 6    1  0.1885829E-005  0.2277121E+04  0.7818608E-02  0.8486997E-01
         -2   -1    0    0    0  501 -0.00000000000E+00  0.00000000000E+00  0.55522116998E+03  0.55522116998E+03  0.00000000000E+00 0.  1.
          2   -1    0    0  501    0  0.00000000000E+00 -0.00000000000E+00 -0.23347803488E+04  0.23347803488E+04  0.00000000000E+00 0. -1.
         23    2    1    2    0    0 -0.37023933847E+03 -0.48121396782E+03  0.32879362943E+03  0.69596514383E+03  0.87282186563E+02 0.  0.
         11    1    3    3    0    0 -0.18856868685E+03 -0.31495072303E+03  0.20107299834E+03  0.41854803578E+03  0.00000000000E+00 0. -1.
        -11    1    3    3    0    0 -0.18167065162E+03 -0.16626324480E+03  0.12772063109E+03  0.27741710805E+03  0.00000000000E+00 0.  1.
         22    1    1    2    0    0  0.37023933847E+03  0.48121396782E+03 -0.21083528082E+04  0.21940363749E+04  0.00000000000E+00 0. -1.
<mgrwt>
<rscale>  0 0.22771205E+04</rscale>
<asrwt>0</asrwt>
<pdfrwt beam="1">  1        2 0.35919698E+00 0.22771205E+04</pdfrwt>
<pdfrwt beam="2">  1       -2 0.85418642E-01 0.22771205E+04</pdfrwt>
<totfact> 0.46874611E+00</totfact>
</mgrwt>
</event>
<event>
 6    1  0.1885829E-005  0.2049244E+04  0.7818608E-02  0.8583938E-01
         -2   -1    0    0    0  501 -0.00000000000E+00  0.00000000000E+00  0.10450051091E+04  0.10450051091E+04  0.00000000000E+00 0. -1.
          2   -1    0    0  501    0  0.00000000000E+00 -0.00000000000E+00 -0.10046361038E+04  0.10046361038E+04  0.00000000000E+00 0.  1.
         23    2    1    2    0    0  0.27370945837E+03  0.46010136355E+03  0.89159316134E+03  0.10440604374E+04  0.92269708815E+02 0.  0.
         11    1    3    3    0    0  0.25650783389E+03  0.37386871912E+03  0.77707755739E+03  0.89967973089E+03  0.00000000000E+00 0.  1.
        -11    1    3    3    0    0  0.17201624476E+02  0.86232644436E+02  0.11451560395E+03  0.14438070646E+03  0.00000000000E+00 0. -1.
         22    1    1    2    0    0 -0.27370945837E+03 -0.46010136355E+03 -0.85122415604E+03  0.10055807756E+04  0.00000000000E+00 0.  1.
<mgrwt>
<rscale>  0 0.20492436E+04</rscale>
<asrwt>0</asrwt>
<pdfrwt beam="1">  1        2 0.15455940E+00 0.20492436E+04</pdfrwt>
<pdfrwt beam="2">  1       -2 0.16077002E+00 0.20492436E+04</pdfrwt>
<totfact> 0.57543162E+00</totfact>
</mgrwt>
</event>
<event>
 6    1  0.1885829E-005  0.1114695E+04  0.7818608E-02  0.9190986E-01
          4   -1    0    0  501    0  0.00000000000E+00  0.00000000000E+00  0.32086917970E+03  0.32086917970E+03  0.00000000000E+00 0. -1.
         -4   -1    0    0    0  501 -0.00000000000E+00 -0.00000000000E+00 -0.96810920785E+03  0.96810920785E+03  0.00000000000E+00 0.  1.
         23    2    1    2    0    0 -0.20617249178E+03  0.81193752442E+02  0.26084225829E+03  0.35425224543E+03  0.91413608823E+02 0.  0.
         11    1    3    3    0    0 -0.59033476776E+02  0.70641333804E+02  0.94759784664E+02  0.13211573037E+03  0.00000000000E+00 0. -1.
        -11    1    3    3    0    0 -0.14713901501E+03  0.10552418638E+02  0.16608247363E+03  0.22213651506E+03  0.00000000000E+00 0.  1.
         22    1    1    2    0    0  0.20617249178E+03 -0.81193752442E+02 -0.90808228644E+03  0.93472614211E+03  0.00000000000E+00 0.  1.
<mgrwt>
<rscale>  0 0.11146953E+04</rscale>
<asrwt>0</asrwt>
<pdfrwt beam="1">  1        4 0.49364491E-01 0.11146953E+04</pdfrwt>
<pdfrwt beam="2">  1       -4 0.14893987E+00 0.11146953E+04</pdfrwt>
<totfact> 0.23776309E+00</totfact>
</mgrwt>
</event>
<event>
 6    1  0.1885829E-005  0.3180285E+04  0.7818608E-02  0.8194043E-01
         -4   -1    0    0    0  501 -0.00000000000E+00  0.00000000000E+00  0.14862563208E+04  0.14862563208E+04  0.00000000000E+00 0.  1.
          4   -1    0    0  501    0  0.00000000000E+00 -0.00000000000E+00 -0.17012905323E+04  0.17012905323E+04  0.00000000000E+00 0. -1.
         23    2    1    2    0    0 -0.11286702166E+04 -0.38224075829E+03 -0.11610096051E+04  0.16660758870E+04  0.88662860632E+02 0.  0.
         13    1    3    3    0    0 -0.80837142623E+03 -0.31434789109E+03 -0.85558556171E+03  0.12183208169E+04  0.00000000000E+00 0. -1.
        -13    1    3    3    0    0 -0.32029879036E+03 -0.67892867202E+02 -0.30542404343E+03  0.44775507013E+03  0.00000000000E+00 0.  1.
         22    1    1    2    0    0  0.11286702166E+04  0.38224075829E+03  0.94597539368E+03  0.15214709661E+04  0.00000000000E+00 0.  1.
<mgrwt>
<rscale>  0 0.31802854E+04</rscale>
<asrwt>0</asrwt>
<pdfrwt beam="1">  1        4 0.26173700E+00 0.31802854E+04</pdfrwt>
<pdfrwt beam="2">  1       -4 0.22865482E+00 0.31802854E+04</pdfrwt>
<totfact> 0.76632145E-03</totfact>
</mgrwt>
</event>
<event>
 6    1  0.1885829E-005  0.4988739E+04  0.7818608E-02  0.7830247E-01
          2   -1    0    0  501    0  0.00000000000E+00  0.00000000000E+00  0.41176095010E+04  0.41176095010E+04  0.00000000000E+00 0.  1.
         -2   -1    0    0    0  501 -0.00000000000E+00 -0.00000000000E+00 -0.15110412948E+04  0.15110412948E+04  0.00000000000E+00 0. -1.
         23    2    1    2    0    0 -0.15903716190E+04  0.17255978396E+04  0.22548328898E+04  0.32557438184E+04  0.92879811028E+02 0.  0.
         13    1    3    3    0    0 -0.24763285813E+03  0.23383421518E+03  0.35908682836E+03  0.49491799615E+03  0.00000000000E+00 0.  1.
        -13    1    3    3    0    0 -0.13427387609E+04  0.14917636244E+04  0.18957460614E+04  0.27608258222E+04  0.00000000000E+00 0. -1.
         22    1    1    2    0    0  0.15903716190E+04 -0.17255978396E+04  0.35173531641E+03  0.23729069774E+04  0.00000000000E+00 0. -1.
<mgrwt>
<rscale>  0 0.49887385E+04</rscale>
<asrwt>0</asrwt>
<pdfrwt beam="1">  1        2 0.63347838E+00 0.49887385E+04</pdfrwt>
<pdfrwt beam="2">  1       -2 0.23246789E+00 0.49887385E+04</pdfrwt>
<totfact> 0.16353744E-02</totfact>
</mgrwt>
</event>
<event>
 6    1  0.1885829E-005  0.1107326E+04  0.7818608E-02  0.9198081E-01
          2   -1    0    0  501    0  0.00000000000E+00  0.00000000000E+00  0.39357885440E+03  0.39357885440E+03  0.00000000000E+00 0. -1.
         -2   -1    0    0    0  501 -0.00000000000E+00 -0.00000000000E+00 -0.77885928748E+03  0.77885928748E+03  0.00000000000E+00 0.  1.
         23    2    1    2    0    0 -0.31354142865E+03  0.87114380829E+02  0.27537379155E+03  0.43598641410E+03  0.91412719987E+02 0.  0.
         11    1    3    3    0    0 -0.28750877046E+03  0.90173751015E+02  0.21497268272E+03  0.37014301666E+03  0.00000000000E+00 0. -1.
        -11    1    3    3    0    0 -0.26032658191E+02 -0.30593701863E+01  0.60401108830E+02  0.65843397439E+02  0.00000000000E+00 0.  1.
         22    1    1    2    0    0  0.31354142865E+03 -0.87114380829E+02 -0.66065422463E+03  0.73645172778E+03  0.00000000000E+00 0.  1.
<mgrwt>
<rscale>  0 0.11073257E+04</rscale>
<asrwt>0</asrwt>
<pdfrwt beam="1">  1        2 0.60550593E-01 0.11073257E+04</pdfrwt>
<pdfrwt beam="2">  1       -2 0.11982450E+00 0.11073257E+04</pdfrwt>
<totfact> 0.42817297E+01</totfact>
</mgrwt>
</event>
<event>
 6    1  0.1885829E-005  0.2870405E+04  0.7818608E-02  0.8281738E-01
         -2   -1    0    0    0  501 -0.00000000000E+00  0.00000000000E+00  0.92320225035E+03  0.92320225035E+03  0.00000000000E+00 0.  1.
          2   -1    0    0  501    0  0.00000000000E+00 -0.00000000000E+00 -0.22311539804E+04  0.22311539804E+04  0.00000000000E+00 0. -1.
         23    2    1    2    0    0  0.37956744527E+03  0.45333062950E+03 -0.20900847784E+04  0.21738909277E+04  0.88132171123E+02 0.  0.
         11    1    3    3    0    0  0.25213787577E+03  0.27194227470E+03 -0.11641361040E+04  0.12217769754E+04  0.00000000000E+00 0. -1.
        -11    1    3    3    0    0  0.12742956951E+03  0.18138835480E+03 -0.92594867444E+03  0.95211395229E+03  0.00000000000E+00 0.  1.
         22    1    1    2    0    0 -0.37956744527E+03 -0.45333062950E+03  0.78213304834E+03  0.98046530303E+03  0.00000000000E+00 0.  1.
<mgrwt>
<rscale>  0 0.28704051E+04</rscale>
<asrwt>0</asrwt>
<pdfrwt beam="1">  1        2 0.34325445E+00 0.28704051E+04</pdfrwt>
<pdfrwt beam="2">  1       -2 0.14203112E+00 0.28704051E+04</pdfrwt>
<totfact> 0.14841094E+00</totfact>
</mgrwt>
</event>
<event>
 6    1  0.1885829E-005  0.7988862E+03  0.7818608E-02  0.9561631E-01
          3   -1    0    0  501    0  0.00000000000E+00  0.00000000000E+00  0.67703587482E+03  0.67703587482E+03  0.00000000000E+00 0. -1.
         -3   -1    0    0    0  501 -0.00000000000E+00 -0.00000000000E+00 -0.23566665874E+03  0.23566665874E+03  0.00000000000E+00 0.  1.
         23    2    1    2    0    0 -0.24475816252E+03  0.23035931110E+03 -0.11972792793E+02  0.34835251155E+03  0.90742240463E+02 0.  0.
         11    1    3    3    0    0 -0.49259924277E+02  0.93286851089E+02 -0.27702293009E+02  0.10907059074E+03  0.00000000000E+00 0. -1.
        -11    1    3    3    0    0 -0.19549823825E+03  0.13707246001E+03  0.15729500216E+02  0.23928192082E+03  0.00000000000E+00 0.  1.
         22    1    1    2    0    0  0.24475816252E+03 -0.23035931110E+03  0.45334200887E+03  0.56435002201E+03  0.00000000000E+00 0.  1.
<mgrwt>
<rscale>  0 0.79888618E+03</rscale>
<asrwt>0</asrwt>
<pdfrwt beam="1">  1        3 0.10415936E+00 0.79888618E+03</pdfrwt>
<pdfrwt beam="2">  1       -3 0.36256409E-01 0.79888618E+03</pdfrwt>
<totfact> 0.15787646E+01</totfact>
</mgrwt>
</event>
<event>
 6    1  0.1885829E-005  0.3024889E+04  0.7818608E-02  0.8236659E-01
         -2   -1    0    0    0  501 -0.00000000000E+00  0.00000000000E+00  0.95687280058E+03  0.95687280058E+03  0.00000000000E+00 0.  1.
          2   -1    0    0  501    0  0.00000000000E+00 -0.00000000000E+00 -0.23905879112E+04  0.23905879112E+04  0.00000000000E+00 0. -1.
         23    2    1    2    0    0  0.75069765642E+02 -0.13003063816E+04 -0.15653889787E+04  0.20383502645E+04  0.89425894610E+02 0.  0.
         13    1    3    3    0    0  0.17535669652E+02 -0.36025214257E+03 -0.37280051472E+03  0.51871893132E+03  0.00000000000E+00 0.  1.
        -13    1    3    3    0    0  0.57534095990E+02 -0.94005423899E+03 -0.11925884640E+04  0.15196313332E+04  0.00000000000E+00 0. -1.
         22    1    1    2    0    0 -0.75069765642E+02  0.13003063816E+04  0.13167386804E+03  0.13091104473E+04  0.00000000000E+00 0.  1.
<mgrwt>
<rscale>  0 0.30248891E+04</rscale>
<asrwt>0</asrwt>
<pdfrwt beam="1">  1        2 0.36778275E+00 0.30248891E+04</pdfrwt>
<pdfrwt beam="2">  1       -2 0.14721120E+00 0.30248891E+04</pdfrwt>
<totfact> 0.10825814E+00</totfact>
</mgrwt>
</event>
<event>
 6    1  0.1885829E-005  0.3108036E+04  0.7818608E-02  0.8213536E-01
          2   -1    0    0  501    0  0.00000000000E+00  0.00000000000E+00  0.17119276031E+04  0.17119276031E+04  0.00000000000E+00 0. -1.
         -2   -1    0    0    0  501 -0.00000000000E+00 -0.00000000000E+00 -0.14106744055E+04  0.14106744055E+04  0.00000000000E+00 0.  1.
         23    2    1    2    0    0 -0.14160580015E+04  0.53700705948E+03  0.49465199304E+03  0.15958407503E+04  0.91816450793E+02 0.  0.
         13    1    3    3    0    0 -0.11221967535E+04  0.42912264467E+03  0.43086821950E+03  0.12763695469E+04  0.00000000000E+00 0. -1.
        -13    1    3    3    0    0 -0.29386124806E+03  0.10788441481E+03  0.63783773536E+02  0.31947120346E+03  0.00000000000E+00 0.  1.
         22    1    1    2    0    0  0.14160580015E+04 -0.53700705948E+03 -0.19339879537E+03  0.15267612582E+04  0.00000000000E+00 0.  1.
<mgrwt>
<rscale>  0 0.31080363E+04</rscale>
<asrwt>0</asrwt>
<pdfrwt beam="1">  1        2 0.26337348E+00 0.31080363E+04</pdfrwt>
<pdfrwt beam="2">  1       -2 0.21702683E+00 0.31080363E+04</pdfrwt>
<totfact> 0.84599586E-01</totfact>
</mgrwt>
</event>
<event>
 6    1  0.1885829E-005  0.1843737E+04  0.7818608E-02  0.8683380E-01
         -2   -1    0    0    0  501 -0.00000000000E+00  0.00000000000E+00  0.92949303624E+03  0.92949303624E+03  0.00000000000E+00 0.  1.
          2   -1    0    0  501    0  0.00000000000E+00 -0.00000000000E+00 -0.91430617407E+03  0.91430617407E+03  0.00000000000E+00 0. -1.
         23    2    1    2    0    0  0.20032415544E+03  0.19646044903E+03  0.88331207251E+03  0.93145724805E+03  0.92983397530E+02 0.  0.
         13    1    3    3    0    0  0.14636956527E+03  0.99777580840E+02  0.64139209493E+03  0.66540471498E+03  0.00000000000E+00 0.  1.
        -13    1    3    3    0    0  0.53954590179E+02  0.96682868188E+02  0.24191997757E+03  0.26605253307E+03  0.00000000000E+00 0. -1.
         22    1    1    2    0    0 -0.20032415544E+03 -0.19646044903E+03 -0.86812521034E+03  0.91234196227E+03  0.00000000000E+00 0. -1.
<mgrwt>
<rscale>  0 0.18437367E+04</rscale>
<asrwt>0</asrwt>
<pdfrwt beam="1">  1        2 0.14066249E+00 0.18437367E+04</pdfrwt>
<pdfrwt beam="2">  1       -2 0.14299893E+00 0.18437367E+04</pdfrwt>
<totfact> 0.91667570E+00</totfact>
</mgrwt>
</event>
<event>
 6    1  0.1885829E-005  0.2131528E+04  0.7818608E-02  0.8547481E-01
         -2   -1    0    0    0  501 -0.00000000000E+00  0.00000000000E+00  0.10513194134E+04  0.10513194134E+04  0.00000000000E+00 0.  1.
          2   -1    0    0  501    0  0.00000000000E+00 -0.00000000000E+00 -0.10804070718E+04  0.10804070718E+04  0.00000000000E+00 0. -1.
         23    2    1    2    0    0 -0.73625218246E+02 -0.44321785041E+03  0.94964606945E+03  0.10547945256E+04  0.94345632528E+02 0.  0.
         13    1    3    3    0    0 -0.48952018610E+02 -0.19362550696E+03  0.52372774710E+03  0.56051573587E+03  0.00000000000E+00 0.  1.
        -13    1    3    3    0    0 -0.24673199636E+02 -0.24959234345E+03  0.42591832235E+03  0.49427878976E+03  0.00000000000E+00 0. -1.
         22    1    1    2    0    0  0.73625218246E+02  0.44321785041E+03 -0.97873372782E+03  0.10769319596E+04  0.00000000000E+00 0. -1.
<mgrwt>
<rscale>  0 0.21315280E+04</rscale>
<asrwt>0</asrwt>
<pdfrwt beam="1">  1        2 0.16621647E+00 0.21315280E+04</pdfrwt>
<pdfrwt beam="2">  1       -2 0.16174145E+00 0.21315280E+04</pdfrwt>
<totfact> 0.50359515E+00</totfact>
</mgrwt>
</event>
<event>
 6    1  0.1885829E-005  0.3451532E+04  0.7818608E-02  0.8125373E-01
         -2   -1    0    0    0  501 -0.00000000000E+00  0.00000000000E+00  0.13686416179E+04  0.13686416179E+04  0.00000000000E+00 0.  1.
          2   -1    0    0  501    0  0.00000000000E+00 -0.00000000000E+00 -0.21760758875E+04  0.21760758875E+04  0.00000000000E+00 0. -1.
         23    2    1    2    0    0 -0.10595128918E+04  0.10007265941E+04  0.54272181448E+03  0.15580261013E+04  0.94218259419E+02 0.  0.
         13    1    3    3    0    0 -0.54899239990E+03  0.53258593685E+03  0.33374953299E+03  0.83452332864E+03  0.00000000000E+00 0. -1.
        -13    1    3    3    0    0 -0.51052049188E+03  0.46814065725E+03  0.20897228149E+03  0.72350277265E+03  0.00000000000E+00 0.  1.
         22    1    1    2    0    0  0.10595128918E+04 -0.10007265941E+04 -0.13501560841E+04  0.19866914042E+04  0.00000000000E+00 0. -1.
<mgrwt>
<rscale>  0 0.34515318E+04</rscale>
<asrwt>0</asrwt>
<pdfrwt beam="1">  1        2 0.33478091E+00 0.34515318E+04</pdfrwt>
<pdfrwt beam="2">  1       -2 0.21056025E+00 0.34515318E+04</pdfrwt>
<totfact> 0.49901310E-01</totfact>
</mgrwt>
</event>
<event>
 6    1  0.1885829E-005  0.5016659E+04  0.7818608E-02  0.7825943E-01
          2   -1    0    0  501    0  0.00000000000E+00  0.00000000000E+00  0.25314251151E+04  0.25314251151E+04  0.00000000000E+00 0. -1.
         -2   -1    0    0    0  501 -0.00000000000E+00 -0.00000000000E+00 -0.24854442072E+04  0.24854442072E+04  0.00000000000E+00 0.  1.
         23    2    1    2    0    0  0.38818226896E+03  0.39037989530E+03 -0.24234092745E+04  0.24868555259E+04  0.91956286279E+02 0.  0.
         13    1    3    3    0    0  0.22567605487E+03  0.28265794551E+03 -0.14860231931E+04  0.15294084237E+04  0.00000000000E+00 0. -1.
        -13    1    3    3    0    0  0.16250621408E+03  0.10772194979E+03 -0.93738608138E+03  0.95744710227E+03  0.00000000000E+00 0.  1.
         22    1    1    2    0    0 -0.38818226896E+03 -0.39037989530E+03  0.24693901824E+04  0.25300137963E+04  0.00000000000E+00 0. -1.
<mgrwt>
<rscale>  0 0.50166586E+04</rscale>
<asrwt>0</asrwt>
<pdfrwt beam="1">  1        2 0.38945002E+00 0.50166586E+04</pdfrwt>
<pdfrwt beam="2">  1       -2 0.38237603E+00 0.50166586E+04</pdfrwt>
<totfact> 0.23462426E-02</totfact>
</mgrwt>
</event>
<event>
 6    1  0.1885829E-005  0.5534893E+04  0.7818608E-02  0.7750906E-01
         -2   -1    0    0    0  501 -0.00000000000E+00  0.00000000000E+00  0.19921877795E+04  0.19921877795E+04  0.00000000000E+00 0.  1.
          2   -1    0    0  501    0  0.00000000000E+00 -0.00000000000E+00 -0.38443962422E+04  0.38443962422E+04  0.00000000000E+00 0. -1.
         23    2    1    2    0    0  0.11871307238E+04 -0.18647617802E+04  0.82805165974E+03  0.23623344371E+04  0.91315875563E+02 0.  0.
         13    1    3    3    0    0  0.70030247461E+03 -0.10944741227E+04  0.53448188279E+03  0.14049797309E+04  0.00000000000E+00 0. -1.
        -13    1    3    3    0    0  0.48682824919E+03 -0.77028765754E+03  0.29356977695E+03  0.95735470621E+03  0.00000000000E+00 0.  1.
         22    1    1    2    0    0 -0.11871307238E+04  0.18647617802E+04 -0.26802601224E+04  0.34742495846E+04  0.00000000000E+00 0. -1.
<mgrwt>
<rscale>  0 0.55348927E+04</rscale>
<asrwt>0</asrwt>
<pdfrwt beam="1">  1        2 0.59144557E+00 0.55348927E+04</pdfrwt>
<pdfrwt beam="2">  1       -2 0.30649043E+00 0.55348927E+04</pdfrwt>
<totfact> 0.91543270E-03</totfact>
</mgrwt>
</event>
<event>
 6    1  0.1885829E-005  0.1396498E+04  0.7818608E-02  0.8956357E-01
          2   -1    0    0  501    0  0.00000000000E+00  0.00000000000E+00  0.25257991329E+04  0.25257991329E+04  0.00000000000E+00 0. -1.
         -2   -1    0    0    0  501 -0.00000000000E+00 -0.00000000000E+00 -0.19302865317E+03  0.19302865317E+03  0.00000000000E+00 0.  1.
         23    2    1    2    0    0  0.14359319717E+03 -0.42019494373E+03  0.22120263675E+04  0.22586518005E+04  0.10613438880E+03 0.  0.
         11    1    3    3    0    0  0.13103081303E+03 -0.28105878007E+03  0.16922755256E+04  0.17204533026E+04  0.00000000000E+00 0.  1.
        -11    1    3    3    0    0  0.12562384138E+02 -0.13913616366E+03  0.51975084195E+03  0.53819849799E+03  0.00000000000E+00 0. -1.
         22    1    1    2    0    0 -0.14359319717E+03  0.42019494373E+03  0.12074411219E+03  0.46017598551E+03  0.00000000000E+00 0.  1.
<mgrwt>
<rscale>  0 0.13964979E+04</rscale>
<asrwt>0</asrwt>
<pdfrwt beam="1">  1        2 0.38858446E+00 0.13964979E+04</pdfrwt>
<pdfrwt beam="2">  1       -2 0.29696718E-01 0.13964979E+04</pdfrwt>
<totfact> 0.34351625E+01</totfact>
</mgrwt>
</event>
<event>
 6    1  0.1885829E-005  0.2832201E+04  0.7818608E-02  0.8293340E-01
          2   -1    0    0  501    0  0.00000000000E+00  0.00000000000E+00  0.70444408727E+03  0.70444408727E+03  0.00000000000E+00 0. -1.
         -2   -1    0    0    0  501 -0.00000000000E+00 -0.00000000000E+00 -0.28467000635E+04  0.28467000635E+04  0.00000000000E+00 0.  1.
         23    2    1    2    0    0 -0.84980357102E+03 -0.70227849351E+03 -0.21841504422E+04  0.24479141938E+04  0.80059691197E+02 0.  0.
         13    1    3    3    0    0 -0.37350657970E+03 -0.25817939445E+03 -0.88389493551E+03  0.99369714793E+03  0.00000000000E+00 0. -1.
        -13    1    3    3    0    0 -0.47629699132E+03 -0.44409909906E+03 -0.13002555067E+04  0.14542170459E+04  0.00000000000E+00 0.  1.
         22    1    1    2    0    0  0.84980357102E+03  0.70227849351E+03  0.41894465956E+02  0.11032299570E+04  0.00000000000E+00 0. -1.
<mgrwt>
<rscale>  0 0.28322013E+04</rscale>
<asrwt>0</asrwt>
<pdfrwt beam="1">  1        2 0.10837602E+00 0.28322013E+04</pdfrwt>
<pdfrwt beam="2">  1       -2 0.43795385E+00 0.28322013E+04</pdfrwt>
<totfact> 0.14694475E-01</totfact>
</mgrwt>
</event>
<event>
 6    1  0.1885829E-005  0.2175026E+04  0.7818608E-02  0.8528895E-01
          2   -1    0    0  501    0  0.00000000000E+00  0.00000000000E+00  0.19876866693E+04  0.19876866693E+04  0.00000000000E+00 0. -1.
         -2   -1    0    0    0  501 -0.00000000000E+00 -0.00000000000E+00 -0.59500535644E+03  0.59500535644E+03  0.00000000000E+00 0.  1.
         23    2    1    2    0    0 -0.24532105401E+03  0.10430024571E+04  0.90864101867E+03  0.14069660579E+04  0.76736185228E+02 0.  0.
         11    1    3    3    0    0 -0.14892641929E+03  0.63905997132E+03  0.60488658149E+03  0.89244859895E+03  0.00000000000E+00 0.  1.
        -11    1    3    3    0    0 -0.96394634726E+02  0.40394248580E+03  0.30375443719E+03  0.51451745893E+03  0.00000000000E+00 0. -1.
         22    1    1    2    0    0  0.24532105401E+03 -0.10430024571E+04  0.48404029419E+03  0.11757259679E+04  0.00000000000E+00 0.  1.
<mgrwt>
<rscale>  0 0.21750257E+04</rscale>
<asrwt>0</asrwt>
<pdfrwt beam="1">  1        2 0.30579795E+00 0.21750257E+04</pdfrwt>
<pdfrwt beam="2">  1       -2 0.91539286E-01 0.21750257E+04</pdfrwt>
<totfact> 0.63165448E+00</totfact>
</mgrwt>
</event>
<event>
 6    1  0.1885829E-005  0.1549027E+04  0.7818608E-02  0.8852490E-01
         -2   -1    0    0    0  501 -0.00000000000E+00  0.00000000000E+00  0.38559275333E+03  0.38559275333E+03  0.00000000000E+00 0.  1.
          2   -1    0    0  501    0  0.00000000000E+00 -0.00000000000E+00 -0.15557110499E+04  0.15557110499E+04  0.00000000000E+00 0. -1.
         23    2    1    2    0    0  0.38179565491E+03 -0.53360893508E+03 -0.10964650715E+04  0.12810529303E+04  0.91403169475E+02 0.  0.
         11    1    3    3    0    0  0.24096464199E+03 -0.36596947323E+03 -0.80483533105E+03  0.91638284802E+03  0.00000000000E+00 0. -1.
        -11    1    3    3    0    0  0.14083101292E+03 -0.16763946185E+03 -0.29162974049E+03  0.36467008227E+03  0.00000000000E+00 0.  1.
         22    1    1    2    0    0 -0.38179565491E+03  0.53360893508E+03 -0.73653225069E+02  0.66025087298E+03  0.00000000000E+00 0.  1.
<mgrwt>
<rscale>  0 0.15490267E+04</rscale>
<asrwt>0</asrwt>
<pdfrwt beam="1">  1        2 0.23934016E+00 0.15490267E+04</pdfrwt>
<pdfrwt beam="2">  1       -2 0.59321961E-01 0.15490267E+04</pdfrwt>
<totfact> 0.30152777E+01</totfact>
</mgrwt>
</event>
<event>
 6    1  0.1885829E-005  0.1433555E+04  0.7818608E-02  0.8929882E-01
         -1   -1    0    0    0  501 -0.00000000000E+00  0.00000000000E+00  0.58912515989E+03  0.58912515989E+03  0.00000000000E+00 0.  1.
          1   -1    0    0  501    0  0.00000000000E+00 -0.00000000000E+00 -0.87208944054E+03  0.87208944054E+03  0.00000000000E+00 0. -1.
         23    2    1    2    0    0  0.86263608113E+02  0.67025844084E+03  0.92387532315E+02  0.68818370125E+03  0.91507174217E+02 0.  0.
         11    1    3    3    0    0 -0.99091530529E+01  0.56085562878E+02 -0.10947209408E+02  0.57996750524E+02  0.00000000000E+00 0.  1.
        -11    1    3    3    0    0  0.96172761166E+02  0.61417287796E+03  0.10333474172E+03  0.63018695072E+03  0.00000000000E+00 0. -1.
         22    1    1    2    0    0 -0.86263608113E+02 -0.67025844084E+03 -0.37535181296E+03  0.77303089919E+03  0.00000000000E+00 0.  1.
<mgrwt>
<rscale>  0 0.14335548E+04</rscale>
<asrwt>0</asrwt>
<pdfrwt beam="1">  1        1 0.13416761E+00 0.14335548E+04</pdfrwt>
<pdfrwt beam="2">  1       -1 0.90634640E-01 0.14335548E+04</pdfrwt>
<totfact> 0.22203694E+01</totfact>
</mgrwt>
</event>
<event>
 6    1  0.1885829E-005  0.2426674E+04  0.7818608E-02  0.8429584E-01
          2   -1    0    0  501    0  0.00000000000E+00  0.00000000000E+00  0.46464094134E+04  0.46464094134E+04  0.00000000000E+00 0. -1.
         -2   -1    0    0    0  501 -0.00000000000E+00 -0.00000000000E+00 -0.31684390090E+03  0.31684390090E+03  0.00000000000E+00 0.  1.
         23    2    1    2    0    0 -0.10524516322E+04  0.22120590178E+03  0.10262640166E+04  0.14892948716E+04  0.90525651339E+02 0.  0.
         13    1    3    3    0    0 -0.27044332876E+03  0.46695962333E+02  0.21073173381E+03  0.34601729813E+03  0.00000000000E+00 0. -1.
        -13    1    3    3    0    0 -0.78200830345E+03  0.17450993944E+03  0.81553228281E+03  0.11432775734E+04  0.00000000000E+00 0.  1.
         22    1    1    2    0    0  0.10524516322E+04 -0.22120590178E+03  0.33033014958E+04  0.34739584427E+04  0.00000000000E+00 0. -1.
<mgrwt>
<rscale>  0 0.24266738E+04</rscale>
<asrwt>0</asrwt>
<pdfrwt beam="1">  1        2 0.71483217E+00 0.24266738E+04</pdfrwt>
<pdfrwt beam="2">  1       -2 0.48745219E-01 0.24266738E+04</pdfrwt>
<totfact> 0.31543684E-01</totfact>
</mgrwt>
</event>
<event>
 6    1  0.1885829E-005  0.1265129E+04  0.7818608E-02  0.9057685E-01
          2   -1    0    0  501    0  0.00000000000E+00  0.00000000000E+00  0.11839007401E+04  0.11839007401E+04  0.00000000000E+00 0. -1.
         -2   -1    0    0    0  501 -0.00000000000E+00 -0.00000000000E+00 -0.33798239244E+03  0.33798239244E+03  0.00000000000E+00 0.  1.
         23    2    1    2    0    0  0.53684247457E+03  0.92787896955E+02  0.47986088387E+02  0.55570233853E+03  0.98452973782E+02 0.  0.
         11    1    3    3    0    0  0.24000235032E+03  0.89067308519E+02  0.76450383717E+01  0.25611044535E+03  0.00000000000E+00 0.  1.
        -11    1    3    3    0    0  0.29684012425E+03  0.37205884355E+01  0.40341050016E+02  0.29959189318E+03  0.00000000000E+00 0. -1.
         22    1    1    2    0    0 -0.53684247457E+03 -0.92787896955E+02  0.79793225926E+03  0.96618079399E+03  0.00000000000E+00 0. -1.
<mgrwt>
<rscale>  0 0.12651286E+04</rscale>
<asrwt>0</asrwt>
<pdfrwt beam="1">  1        2 0.18213857E+00 0.12651286E+04</pdfrwt>
<pdfrwt beam="2">  1       -2 0.51997292E-01 0.12651286E+04</pdfrwt>
<totfact> 0.66435208E+01</totfact>
</mgrwt>
</event>
<event>
 6    1  0.1885829E-005  0.2858049E+04  0.7818608E-02  0.8285470E-01
          2   -1    0    0  501    0  0.00000000000E+00  0.00000000000E+00  0.19802168787E+04  0.19802168787E+04  0.00000000000E+00 0. -1.
         -2   -1    0    0    0  501 -0.00000000000E+00 -0.00000000000E+00 -0.10312565695E+04  0.10312565695E+04  0.00000000000E+00 0.  1.
         23    2    1    2    0    0 -0.78912093080E+03  0.11864875655E+04  0.56553165770E+03  0.15358440512E+04  0.92338006114E+02 0.  0.
         13    1    3    3    0    0 -0.15255442056E+03  0.20310706898E+03  0.66733353100E+02  0.26263791257E+03  0.00000000000E+00 0. -1.
        -13    1    3    3    0    0 -0.63656651024E+03  0.98338049651E+03  0.49879830460E+03  0.12732061387E+04  0.00000000000E+00 0.  1.
         22    1    1    2    0    0  0.78912093080E+03 -0.11864875655E+04  0.38342865153E+03  0.14756293970E+04  0.00000000000E+00 0.  1.
<mgrwt>
<rscale>  0 0.28580495E+04</rscale>
<asrwt>0</asrwt>
<pdfrwt beam="1">  1        2 0.30464875E+00 0.28580495E+04</pdfrwt>
<pdfrwt beam="2">  1       -2 0.15865486E+00 0.28580495E+04</pdfrwt>
<totfact> 0.15297801E+00</totfact>
</mgrwt>
</event>
<event>
 6    1  0.1885829E-005  0.3554758E+04  0.7818608E-02  0.8100934E-01
          2   -1    0    0  501    0  0.00000000000E+00  0.00000000000E+00  0.30297197628E+04  0.30297197628E+04  0.00000000000E+00 0. -1.
         -2   -1    0    0    0  501 -0.00000000000E+00 -0.00000000000E+00 -0.10426955680E+04  0.10426955680E+04  0.00000000000E+00 0.  1.
         23    2    1    2    0    0  0.14005659646E+04  0.21847946346E+03  0.22203220575E+04  0.26358408671E+04  0.92242833604E+02 0.  0.
         13    1    3    3    0    0  0.54604001866E+03  0.10222654496E+03  0.94826235587E+03  0.10990047607E+04  0.00000000000E+00 0. -1.
        -13    1    3    3    0    0  0.85452594596E+03  0.11625291850E+03  0.12720597016E+04  0.15368361064E+04  0.00000000000E+00 0.  1.
         22    1    1    2    0    0 -0.14005659646E+04 -0.21847946346E+03 -0.23329786265E+03  0.14365744638E+04  0.00000000000E+00 0.  1.
<mgrwt>
<rscale>  0 0.35547576E+04</rscale>
<asrwt>0</asrwt>
<pdfrwt beam="1">  1        2 0.46611073E+00 0.35547576E+04</pdfrwt>
<pdfrwt beam="2">  1       -2 0.16041470E+00 0.35547576E+04</pdfrwt>
<totfact> 0.34098944E-01</totfact>
</mgrwt>
</event>
<event>
 6    1  0.1885829E-005  0.3233821E+04  0.7818608E-02  0.8179942E-01
         -1   -1    0    0    0  501 -0.00000000000E+00  0.00000000000E+00  0.10196311261E+04  0.10196311261E+04  0.00000000000E+00 0.  1.
          1   -1    0    0  501    0  0.00000000000E+00 -0.00000000000E+00 -0.25640641394E+04  0.25640641394E+04  0.00000000000E+00 0. -1.
         23    2    1    2    0    0  0.29618421575E+02 -0.13417521965E+04 -0.17696622484E+04  0.22228483174E+04  0.90409960074E+02 0.  0.
         11    1    3    3    0    0 -0.26488567733E+02 -0.53551223008E+03 -0.66931244854E+03  0.85758623272E+03  0.00000000000E+00 0. -1.
        -11    1    3    3    0    0  0.56106989308E+02 -0.80623996646E+03 -0.11003497999E+04  0.13652620847E+04  0.00000000000E+00 0.  1.
         22    1    1    2    0    0 -0.29618421575E+02  0.13417521965E+04  0.22522923518E+03  0.13608469481E+04  0.00000000000E+00 0.  1.
<mgrwt>
<rscale>  0 0.32338210E+04</rscale>
<asrwt>0</asrwt>
<pdfrwt beam="1">  1        1 0.39447140E+00 0.32338210E+04</pdfrwt>
<pdfrwt beam="2">  1       -1 0.15686633E+00 0.32338210E+04</pdfrwt>
<totfact> 0.31478867E-01</totfact>
</mgrwt>
</event>
<event>
 6    1  0.1885829E-005  0.3001360E+04  0.7818608E-02  0.8243343E-01
          2   -1    0    0  501    0  0.00000000000E+00  0.00000000000E+00  0.11979195568E+04  0.11979195568E+04  0.00000000000E+00 0. -1.
         -2   -1    0    0    0  501 -0.00000000000E+00 -0.00000000000E+00 -0.18799601727E+04  0.18799601727E+04  0.00000000000E+00 0.  1.
         23    2    1    2    0    0  0.36931575333E+03 -0.25259061344E+03  0.11260809816E+04  0.12152203792E+04  0.92228245262E+02 0.  0.
         13    1    3    3    0    0  0.26865228503E+03 -0.13760976966E+03  0.68985609688E+03  0.75300194778E+03  0.00000000000E+00 0.  1.
        -13    1    3    3    0    0  0.10066346830E+03 -0.11498084378E+03  0.43622488473E+03  0.46221843142E+03  0.00000000000E+00 0. -1.
         22    1    1    2    0    0 -0.36931575333E+03  0.25259061344E+03 -0.18081215975E+04  0.18626593503E+04  0.00000000000E+00 0.  1.
<mgrwt>
<rscale>  0 0.30013604E+04</rscale>
<asrwt>0</asrwt>
<pdfrwt beam="1">  1        2 0.18429532E+00 0.30013604E+04</pdfrwt>
<pdfrwt beam="2">  1       -2 0.28922464E+00 0.30013604E+04</pdfrwt>
<totfact> 0.60138656E-01</totfact>
</mgrwt>
</event>
<event>
 6    1  0.1885829E-005  0.2754378E+04  0.7818608E-02  0.8317574E-01
         -2   -1    0    0    0  501 -0.00000000000E+00  0.00000000000E+00  0.23079051509E+04  0.23079051509E+04  0.00000000000E+00 0.  1.
          2   -1    0    0  501    0  0.00000000000E+00 -0.00000000000E+00 -0.82180578953E+03  0.82180578953E+03  0.00000000000E+00 0. -1.
         23    2    1    2    0    0 -0.10941487748E+04  0.78003053484E+03  0.10789829667E+04  0.17256621751E+04  0.89980683123E+02 0.  0.
         11    1    3    3    0    0 -0.25748769824E+03  0.21265792031E+03  0.22918466060E+03  0.40502952296E+03  0.00000000000E+00 0. -1.
        -11    1    3    3    0    0 -0.83666107655E+03  0.56737261454E+03  0.84979830611E+03  0.13206326521E+04  0.00000000000E+00 0.  1.
         22    1    1    2    0    0  0.10941487748E+04 -0.78003053484E+03  0.40711639463E+03  0.14040487653E+04  0.00000000000E+00 0. -1.
<mgrwt>
<rscale>  0 0.27543782E+04</rscale>
<asrwt>0</asrwt>
<pdfrwt beam="1">  1        2 0.12643166E+00 0.27543782E+04</pdfrwt>
<pdfrwt beam="2">  1       -2 0.35506233E+00 0.27543782E+04</pdfrwt>
<totfact> 0.41943969E-01</totfact>
</mgrwt>
</event>
<event>
 6    1  0.1885829E-005  0.3706390E+04  0.7818608E-02  0.8066547E-01
          2   -1    0    0  501    0  0.00000000000E+00  0.00000000000E+00  0.26933008192E+04  0.26933008192E+04  0.00000000000E+00 0.  1.
         -2   -1    0    0    0  501 -0.00000000000E+00 -0.00000000000E+00 -0.12751385064E+04  0.12751385064E+04  0.00000000000E+00 0. -1.
         23    2    1    2    0    0  0.74174424601E+03  0.17563946060E+03 -0.10977866102E+04  0.13395550129E+04  0.90765877301E+02 0.  0.
         11    1    3    3    0    0  0.38445667270E+03  0.45281621822E+02 -0.56906814741E+03  0.68825570455E+03  0.00000000000E+00 0. -1.
        -11    1    3    3    0    0  0.35728757331E+03  0.13035783878E+03 -0.52871846276E+03  0.65129930833E+03  0.00000000000E+00 0.  1.
         22    1    1    2    0    0 -0.74174424601E+03 -0.17563946060E+03  0.25159489230E+04  0.26288843128E+04  0.00000000000E+00 0.  1.
<mgrwt>
<rscale>  0 0.37063899E+04</rscale>
<asrwt>0</asrwt>
<pdfrwt beam="1">  1        2 0.41435397E+00 0.37063899E+04</pdfrwt>
<pdfrwt beam="2">  1       -2 0.19617516E+00 0.37063899E+04</pdfrwt>
<totfact> 0.30516886E-01</totfact>
</mgrwt>
</event>
<event>
 6    1  0.1885829E-005  0.1219059E+04  0.7818608E-02  0.9096336E-01
          2   -1    0    0  501    0  0.00000000000E+00  0.00000000000E+00  0.70149643060E+03  0.70149643060E+03  0.00000000000E+00 0. -1.
         -2   -1    0    0    0  501 -0.00000000000E+00 -0.00000000000E+00 -0.52961985995E+03  0.52961985995E+03  0.00000000000E+00 0.  1.
         23    2    1    2    0    0 -0.30167277974E+03  0.40590678986E+03 -0.25090645287E+03  0.57194084116E+03  0.91626904378E+02 0.  0.
         11    1    3    3    0    0 -0.13226417059E+03  0.24392745085E+03 -0.11017678625E+03  0.29855206636E+03  0.00000000000E+00 0. -1.
        -11    1    3    3    0    0 -0.16940860915E+03  0.16197933902E+03 -0.14072966662E+03  0.27338877480E+03  0.00000000000E+00 0.  1.
         22    1    1    2    0    0  0.30167277974E+03 -0.40590678986E+03  0.42278302352E+03  0.65917544938E+03  0.00000000000E+00 0. -1.
<mgrwt>
<rscale>  0 0.12190594E+04</rscale>
<asrwt>0</asrwt>
<pdfrwt beam="1">  1        2 0.10792253E+00 0.12190594E+04</pdfrwt>
<pdfrwt beam="2">  1       -2 0.81479978E-01 0.12190594E+04</pdfrwt>
<totfact> 0.53437326E+01</totfact>
</mgrwt>
</event>
<event>
 6    1  0.1885829E-005  0.1231436E+04  0.7818608E-02  0.9085777E-01
         -2   -1    0    0    0  501 -0.00000000000E+00  0.00000000000E+00  0.29519947492E+03  0.29519947492E+03  0.00000000000E+00 0.  1.
          2   -1    0    0  501    0  0.00000000000E+00 -0.00000000000E+00 -0.12842461572E+04  0.12842461572E+04  0.00000000000E+00 0. -1.
         23    2    1    2    0    0 -0.60219051751E+03  0.57088162454E+02 -0.37408394326E+03  0.71684975452E+03  0.89678850769E+02 0.  0.
         11    1    3    3    0    0 -0.41042493836E+03  0.16019808167E+02 -0.21087583915E+03  0.46170757392E+03  0.00000000000E+00 0.  1.
        -11    1    3    3    0    0 -0.19176557915E+03  0.41068354288E+02 -0.16320810412E+03  0.25514218060E+03  0.00000000000E+00 0. -1.
         22    1    1    2    0    0  0.60219051751E+03 -0.57088162454E+02 -0.61496273905E+03  0.86259587762E+03  0.00000000000E+00 0. -1.
<mgrwt>
<rscale>  0 0.12314362E+04</rscale>
<asrwt>0</asrwt>
<pdfrwt beam="1">  1        2 0.19757633E+00 0.12314362E+04</pdfrwt>
<pdfrwt beam="2">  1       -2 0.45415304E-01 0.12314362E+04</pdfrwt>
<totfact> 0.76416937E+01</totfact>
</mgrwt>
</event>
<event>
 6    1  0.1885829E-005  0.2871014E+04  0.7818608E-02  0.8281554E-01
          2   -1    0    0  501    0  0.00000000000E+00  0.00000000000E+00  0.32740846035E+04  0.32740846035E+04  0.00000000000E+00 0. -1.
         -2   -1    0    0    0  501 -0.00000000000E+00 -0.00000000000E+00 -0.62939113670E+03  0.62939113670E+03  0.00000000000E+00 0.  1.
         23    2    1    2    0    0  0.12279547306E+04  0.67673932612E+03  0.17331045983E+04  0.22310992273E+04  0.91122321805E+02 0.  0.
         13    1    3    3    0    0  0.10412439745E+04  0.53516819823E+03  0.14414399126E+04  0.18569714689E+04  0.00000000000E+00 0. -1.
        -13    1    3    3    0    0  0.18671075608E+03  0.14157112789E+03  0.29166468567E+03  0.37412775834E+03  0.00000000000E+00 0.  1.
         22    1    1    2    0    0 -0.12279547306E+04 -0.67673932612E+03  0.91158886857E+03  0.16723765130E+04  0.00000000000E+00 0. -1.
<mgrwt>
<rscale>  0 0.28710136E+04</rscale>
<asrwt>0</asrwt>
<pdfrwt beam="1">  1        2 0.50370531E+00 0.28710136E+04</pdfrwt>
<pdfrwt beam="2">  1       -2 0.96829407E-01 0.28710136E+04</pdfrwt>
<totfact> 0.89317432E-01</totfact>
</mgrwt>
</event>
<event>
 6    1  0.1885829E-005  0.1682288E+04  0.7818608E-02  0.8771531E-01
         -2   -1    0    0    0  501 -0.00000000000E+00  0.00000000000E+00  0.25200459482E+03  0.25200459482E+03  0.00000000000E+00 0.  1.
          2   -1    0    0  501    0  0.00000000000E+00 -0.00000000000E+00 -0.28075811716E+04  0.28075811716E+04  0.00000000000E+00 0. -1.
         23    2    1    2    0    0 -0.76796383575E+03 -0.24396738709E+03 -0.85866860937E+03  0.11810796608E+04  0.91372016660E+02 0.  0.
         13    1    3    3    0    0 -0.13593220678E+03 -0.34947903067E+02 -0.10351468852E+03  0.17439670728E+03  0.00000000000E+00 0.  1.
        -13    1    3    3    0    0 -0.63203162897E+03 -0.20901948403E+03 -0.75515392085E+03  0.10066829535E+04  0.00000000000E+00 0. -1.
         22    1    1    2    0    0  0.76796383575E+03  0.24396738709E+03 -0.16969079674E+04  0.18785061056E+04  0.00000000000E+00 0.  1.
<mgrwt>
<rscale>  0 0.16822882E+04</rscale>
<asrwt>0</asrwt>
<pdfrwt beam="1">  1        2 0.43193553E+00 0.16822882E+04</pdfrwt>
<pdfrwt beam="2">  1       -2 0.38769940E-01 0.16822882E+04</pdfrwt>
<totfact> 0.13755118E+01</totfact>
</mgrwt>
</event>
<event>
 6    1  0.1885829E-005  0.4472555E+04  0.7818608E-02  0.7915459E-01
         -2   -1    0    0    0  501 -0.00000000000E+00  0.00000000000E+00  0.15483522370E+04  0.15483522370E+04  0.00000000000E+00 0.  1.
          2   -1    0    0  501    0  0.00000000000E+00 -0.00000000000E+00 -0.32298444228E+04  0.32298444228E+04  0.00000000000E+00 0. -1.
         23    2    1    2    0    0  0.21525840084E+04 -0.42517910041E+03 -0.12973906467E+04  0.25506578446E+04  0.90762157161E+02 0.  0.
         13    1    3    3    0    0  0.15576843364E+04 -0.31337489171E+03 -0.98566989581E+03  0.18697939614E+04  0.00000000000E+00 0.  1.
        -13    1    3    3    0    0  0.59489967204E+03 -0.11180420870E+03 -0.31172075093E+03  0.68086388319E+03  0.00000000000E+00 0. -1.
         22    1    1    2    0    0 -0.21525840084E+04  0.42517910041E+03 -0.38410153906E+03  0.22275388152E+04  0.00000000000E+00 0.  1.
<mgrwt>
<rscale>  0 0.44725549E+04</rscale>
<asrwt>0</asrwt>
<pdfrwt beam="1">  1        2 0.49689914E+00 0.44725549E+04</pdfrwt>
<pdfrwt beam="2">  1       -2 0.23820804E+00 0.44725549E+04</pdfrwt>
<totfact> 0.71465479E-02</totfact>
</mgrwt>
</event>
<event>
 6    1  0.1885829E-005  0.1851039E+04  0.7818608E-02  0.8679619E-01
          1   -1    0    0  501    0  0.00000000000E+00  0.00000000000E+00  0.13714890022E+04  0.13714890022E+04  0.00000000000E+00 0. -1.
         -1   -1    0    0    0  501 -0.00000000000E+00 -0.00000000000E+00 -0.62456657310E+03  0.62456657310E+03  0.00000000000E+00 0.  1.
         23    2    1    2    0    0 -0.39248240595E+02 -0.38370244265E+03  0.12788969065E+04  0.13389674279E+04  0.92132983567E+02 0.  0.
         11    1    3    3    0    0 -0.61123414543E+02 -0.21014142640E+03  0.78829256861E+03  0.81810797858E+03  0.00000000000E+00 0. -1.
        -11    1    3    3    0    0  0.21875173948E+02 -0.17356101624E+03  0.49060433791E+03  0.52085944934E+03  0.00000000000E+00 0.  1.
         22    1    1    2    0    0  0.39248240595E+02  0.38370244265E+03 -0.53197447738E+03  0.65708814741E+03  0.00000000000E+00 0.  1.
<mgrwt>
<rscale>  0 0.18510388E+04</rscale>
<asrwt>0</asrwt>
<pdfrwt beam="1">  1        1 0.21099831E+00 0.18510388E+04</pdfrwt>
<pdfrwt beam="2">  1       -1 0.96087166E-01 0.18510388E+04</pdfrwt>
<totfact> 0.78900718E+00</totfact>
</mgrwt>
</event>
<event>
 6    1  0.1885829E-005  0.3417792E+04  0.7818608E-02  0.8133553E-01
          2   -1    0    0  501    0  0.00000000000E+00  0.00000000000E+00  0.29765508060E+04  0.29765508060E+04  0.00000000000E+00 0. -1.
         -2   -1    0    0    0  501 -0.00000000000E+00 -0.00000000000E+00 -0.98111061904E+03  0.98111061904E+03  0.00000000000E+00 0.  1.
         23    2    1    2    0    0  0.39442601739E+03  0.15679729491E+04  0.36238744014E+03  0.16596248008E+04  0.94439241983E+02 0.  0.
         11    1    3    3    0    0  0.20305630193E+03  0.96862556367E+03  0.19707797547E+03  0.10091120219E+04  0.00000000000E+00 0. -1.
        -11    1    3    3    0    0  0.19136971546E+03  0.59934738544E+03  0.16530946467E+03  0.65051277892E+03  0.00000000000E+00 0.  1.
         22    1    1    2    0    0 -0.39442601739E+03 -0.15679729491E+04  0.16330527468E+04  0.22980366242E+04  0.00000000000E+00 0.  1.
<mgrwt>
<rscale>  0 0.34177920E+04</rscale>
<asrwt>0</asrwt>
<pdfrwt beam="1">  1        2 0.45793089E+00 0.34177920E+04</pdfrwt>
<pdfrwt beam="2">  1       -2 0.15094010E+00 0.34177920E+04</pdfrwt>
<totfact> 0.43873866E-01</totfact>
</mgrwt>
</event>
<event>
 6    1  0.1885829E-005  0.4771069E+04  0.7818608E-02  0.7864826E-01
          2   -1    0    0  501    0  0.00000000000E+00  0.00000000000E+00  0.33184655885E+04  0.33184655885E+04  0.00000000000E+00 0.  1.
         -2   -1    0    0    0  501 -0.00000000000E+00 -0.00000000000E+00 -0.17148814845E+04  0.17148814845E+04  0.00000000000E+00 0. -1.
         23    2    1    2    0    0  0.49642324194E+03 -0.32106439205E+03  0.32392747698E+04  0.32940936892E+04  0.92918354059E+02 0.  0.
         13    1    3    3    0    0  0.12369707842E+03 -0.93888027930E+02  0.10834133632E+04  0.10944863839E+04  0.00000000000E+00 0.  1.
        -13    1    3    3    0    0  0.37272616351E+03 -0.22717636412E+03  0.21558614065E+04  0.21996073053E+04  0.00000000000E+00 0. -1.
         22    1    1    2    0    0 -0.49642324194E+03  0.32106439205E+03 -0.16356906658E+04  0.17392533838E+04  0.00000000000E+00 0. -1.
<mgrwt>
<rscale>  0 0.47710691E+04</rscale>
<asrwt>0</asrwt>
<pdfrwt beam="1">  1        2 0.51053317E+00 0.47710691E+04</pdfrwt>
<pdfrwt beam="2">  1       -2 0.26382792E+00 0.47710691E+04</pdfrwt>
<totfact> 0.42374049E-02</totfact>
</mgrwt>
</event>
<event>
 6    1  0.1885829E-005  0.2901511E+03  0.7818608E-02  0.1090270E+00
          2   -1    0    0  501    0  0.00000000000E+00  0.00000000000E+00  0.51244824380E+03  0.51244824380E+03  0.00000000000E+00 0. -1.
         -2   -1    0    0    0  501 -0.00000000000E+00 -0.00000000000E+00 -0.41071296435E+02  0.41071296435E+02  0.00000000000E+00 0.  1.
         23    2    1    2    0    0 -0.62499616218E+02  0.10729852190E+03  0.33727967598E+03  0.37075944332E+03  0.91026425578E+02 0.  0.
         13    1    3    3    0    0 -0.22358976121E+02 -0.66596725713E+01  0.11906712358E+03  0.12133117889E+03  0.00000000000E+00 0. -1.
        -13    1    3    3    0    0 -0.40140640097E+02  0.11395819447E+03  0.21821255240E+03  0.24942826443E+03  0.00000000000E+00 0.  1.
         22    1    1    2    0    0  0.62499616218E+02 -0.10729852190E+03  0.13409727138E+03  0.18276009691E+03  0.00000000000E+00 0.  1.
<mgrwt>
<rscale>  0 0.29015109E+03</rscale>
<asrwt>0</asrwt>
<pdfrwt beam="1">  1        2 0.78838187E-01 0.29015109E+03</pdfrwt>
<pdfrwt beam="2">  1       -2 0.63186613E-02 0.29015109E+03</pdfrwt>
<totfact> 0.82471487E+03</totfact>
</mgrwt>
</event>
<event>
 6    1  0.1885829E-005  0.1200755E+04  0.7818608E-02  0.9112196E-01
          2   -1    0    0  501    0  0.00000000000E+00  0.00000000000E+00  0.46029297888E+03  0.46029297888E+03  0.00000000000E+00 0.  1.
         -2   -1    0    0    0  501 -0.00000000000E+00 -0.00000000000E+00 -0.78309540626E+03  0.78309540626E+03  0.00000000000E+00 0. -1.
         23    2    1    2    0    0 -0.40062402927E+03 -0.43649854957E+03 -0.23784077834E+03  0.64484926494E+03  0.90728948189E+02 0.  0.
         11    1    3    3    0    0 -0.13946790727E+03 -0.11948823448E+03 -0.35773134580E+02  0.18710545822E+03  0.00000000000E+00 0. -1.
        -11    1    3    3    0    0 -0.26115612200E+03 -0.31701031509E+03 -0.20206764376E+03  0.45774380672E+03  0.00000000000E+00 0.  1.
         22    1    1    2    0    0  0.40062402927E+03  0.43649854957E+03 -0.84961649036E+02  0.59853912020E+03  0.00000000000E+00 0.  1.
<mgrwt>
<rscale>  0 0.12007553E+04</rscale>
<asrwt>0</asrwt>
<pdfrwt beam="1">  1        2 0.70814306E-01 0.12007553E+04</pdfrwt>
<pdfrwt beam="2">  1       -2 0.12047621E+00 0.12007553E+04</pdfrwt>
<totfact> 0.35144615E+01</totfact>
</mgrwt>
</event>
<event>
 6    1  0.1885829E-005  0.2523958E+04  0.7818608E-02  0.8394500E-01
         -2   -1    0    0    0  501 -0.00000000000E+00  0.00000000000E+00  0.61917881952E+03  0.61917881952E+03  0.00000000000E+00 0.  1.
          2   -1    0    0  501    0  0.00000000000E+00 -0.00000000000E+00 -0.25721017141E+04  0.25721017141E+04  0.00000000000E+00 0. -1.
         23    2    1    2    0    0  0.47741369728E+03  0.41809041084E+03 -0.23545581779E+04  0.24402583430E+04  0.90515953866E+02 0.  0.
         13    1    3    3    0    0  0.27847378511E+03  0.26161744372E+03 -0.15729325635E+04  0.16186748238E+04  0.00000000000E+00 0. -1.
        -13    1    3    3    0    0  0.19893991217E+03  0.15647296712E+03 -0.78162561434E+03  0.82158351924E+03  0.00000000000E+00 0.  1.
         22    1    1    2    0    0 -0.47741369728E+03 -0.41809041084E+03  0.40163528327E+03  0.75102219058E+03  0.00000000000E+00 0.  1.
<mgrwt>
<rscale>  0 0.25239579E+04</rscale>
<asrwt>0</asrwt>
<pdfrwt beam="1">  1        2 0.39570796E+00 0.25239579E+04</pdfrwt>
<pdfrwt beam="2">  1       -2 0.95258280E-01 0.25239579E+04</pdfrwt>
<totfact> 0.26045487E+00</totfact>
</mgrwt>
</event>
<event>
 6    1  0.1885829E-005  0.3993796E+03  0.7818608E-02  0.1043995E+00
          2   -1    0    0  501    0  0.00000000000E+00  0.00000000000E+00  0.50805987609E+03  0.50805987609E+03  0.00000000000E+00 0.  1.
         -2   -1    0    0    0  501 -0.00000000000E+00 -0.00000000000E+00 -0.78486826525E+02  0.78486826525E+02  0.00000000000E+00 0. -1.
         23    2    1    2    0    0 -0.13372148322E+03 -0.36175004693E+02  0.37083697625E+02  0.17032806124E+03  0.91904198910E+02 0.  0.
         13    1    3    3    0    0 -0.47290658272E+02  0.26152752358E+02 -0.79887154858E+01  0.54627762089E+02  0.00000000000E+00 0. -1.
        -13    1    3    3    0    0 -0.86430824950E+02 -0.62327757051E+02  0.45072413110E+02  0.11570029915E+03  0.00000000000E+00 0.  1.
         22    1    1    2    0    0  0.13372148322E+03  0.36175004693E+02  0.39248935194E+03  0.41621864137E+03  0.00000000000E+00 0.  1.
<mgrwt>
<rscale>  0 0.39937956E+03</rscale>
<asrwt>0</asrwt>
<pdfrwt beam="1">  1        2 0.78163056E-01 0.39937956E+03</pdfrwt>
<pdfrwt beam="2">  1       -2 0.12074897E-01 0.39937956E+03</pdfrwt>
<totfact> 0.30093899E+03</totfact>
</mgrwt>
</event>
<event>
 6    1  0.1885829E-005  0.2895045E+04  0.7818608E-02  0.8274353E-01
          2   -1    0    0  501    0  0.00000000000E+00  0.00000000000E+00  0.21025956949E+04  0.21025956949E+04  0.00000000000E+00 0. -1.
         -2   -1    0    0    0  501 -0.00000000000E+00 -0.00000000000E+00 -0.99654055354E+03  0.99654055354E+03  0.00000000000E+00 0.  1.
         23    2    1    2    0    0  0.11713680165E+04 -0.68373556835E+03  0.16571914713E+02  0.13594319464E+04  0.90461212018E+02 0.  0.
         11    1    3    3    0    0  0.57251354648E+03 -0.34483916225E+03  0.52448142352E+02  0.67040034036E+03  0.00000000000E+00 0. -1.
        -11    1    3    3    0    0  0.59885447003E+03 -0.33889640610E+03 -0.35876227640E+02  0.68903160599E+03  0.00000000000E+00 0.  1.
         22    1    1    2    0    0 -0.11713680165E+04  0.68373556835E+03  0.10894832266E+04  0.17397043021E+04  0.00000000000E+00 0. -1.
<mgrwt>
<rscale>  0 0.28950453E+04</rscale>
<asrwt>0</asrwt>
<pdfrwt beam="1">  1        2 0.32347626E+00 0.28950453E+04</pdfrwt>
<pdfrwt beam="2">  1       -2 0.15331393E+00 0.28950453E+04</pdfrwt>
<totfact> 0.14293792E+00</totfact>
</mgrwt>
</event>
<event>
 6    1  0.1885829E-005  0.1450246E+04  0.7818608E-02  0.8918230E-01
          2   -1    0    0  501    0  0.00000000000E+00  0.00000000000E+00  0.32609705307E+04  0.32609705307E+04  0.00000000000E+00 0. -1.
         -2   -1    0    0    0  501 -0.00000000000E+00 -0.00000000000E+00 -0.16124140176E+03  0.16124140176E+03  0.00000000000E+00 0.  1.
         23    2    1    2    0    0 -0.49008255017E+03 -0.51272908277E+03  0.12532802180E+04  0.14442216395E+04  0.10951173875E+03 0.  0.
         13    1    3    3    0    0 -0.33687118066E+03 -0.32911099928E+03  0.72781032036E+03  0.86689336405E+03  0.00000000000E+00 0. -1.
        -13    1    3    3    0    0 -0.15321136950E+03 -0.18361808348E+03  0.52546989765E+03  0.57732827548E+03  0.00000000000E+00 0.  1.
         22    1    1    2    0    0  0.49008255017E+03  0.51272908277E+03  0.18464489109E+04  0.19779902929E+04  0.00000000000E+00 0. -1.
<mgrwt>
<rscale>  0 0.14502461E+04</rscale>
<asrwt>0</asrwt>
<pdfrwt beam="1">  1        2 0.50168772E+00 0.14502461E+04</pdfrwt>
<pdfrwt beam="2">  1       -2 0.24806372E-01 0.14502461E+04</pdfrwt>
<totfact> 0.16881397E+01</totfact>
</mgrwt>
</event>
<event>
 6    1  0.1885829E-005  0.3451190E+03  0.7818608E-02  0.1064636E+00
          2   -1    0    0  501    0  0.00000000000E+00  0.00000000000E+00  0.46276833929E+02  0.46276833929E+02  0.00000000000E+00 0. -1.
         -2   -1    0    0    0  501 -0.00000000000E+00 -0.00000000000E+00 -0.64344908128E+03  0.64344908128E+03  0.00000000000E+00 0.  1.
         23    2    1    2    0    0  0.58142431102E+02 -0.65827136977E+02 -0.58754074503E+03  0.60137140150E+03  0.93432763023E+02 0.  0.
         13    1    3    3    0    0  0.86595562954E+01  0.81152841153E+01 -0.30327800508E+03  0.30351012194E+03  0.00000000000E+00 0.  1.
        -13    1    3    3    0    0  0.49482874807E+02 -0.73942421093E+02 -0.28426273995E+03  0.29786127956E+03  0.00000000000E+00 0. -1.
         22    1    1    2    0    0 -0.58142431102E+02  0.65827136977E+02 -0.96315023222E+01  0.88354513717E+02  0.00000000000E+00 0. -1.
<mgrwt>
<rscale>  0 0.34511903E+03</rscale>
<asrwt>0</asrwt>
<pdfrwt beam="1">  1        2 0.71195132E-02 0.34511903E+03</pdfrwt>
<pdfrwt beam="2">  1       -2 0.98992163E-01 0.34511903E+03</pdfrwt>
<totfact> 0.87235579E+02</totfact>
</mgrwt>
</event>
<event>
 6    1  0.1885829E-005  0.2878567E+04  0.7818608E-02  0.8279283E-01
          2   -1    0    0  501    0  0.00000000000E+00  0.00000000000E+00  0.27613425276E+04  0.27613425276E+04  0.00000000000E+00 0. -1.
         -2   -1    0    0    0  501 -0.00000000000E+00 -0.00000000000E+00 -0.75019184077E+03  0.75019184077E+03  0.00000000000E+00 0.  1.
         23    2    1    2    0    0  0.10115570087E+04 -0.88372694820E+03  0.16324053210E+04  0.21159452623E+04  0.90864294201E+02 0.  0.
         11    1    3    3    0    0  0.74377958811E+03 -0.59651965727E+03  0.11714595401E+04  0.15104175685E+04  0.00000000000E+00 0.  1.
        -11    1    3    3    0    0  0.26777742064E+03 -0.28720729094E+03  0.46094578092E+03  0.60552769377E+03  0.00000000000E+00 0. -1.
         22    1    1    2    0    0 -0.10115570087E+04  0.88372694820E+03  0.37874536583E+03  0.13955891061E+04  0.00000000000E+00 0.  1.
<mgrwt>
<rscale>  0 0.28785668E+04</rscale>
<asrwt>0</asrwt>
<pdfrwt beam="1">  1        2 0.42482192E+00 0.28785668E+04</pdfrwt>
<pdfrwt beam="2">  1       -2 0.11541413E+00 0.28785668E+04</pdfrwt>
<totfact> 0.12325866E+00</totfact>
</mgrwt>
</event>
<event>
 6    1  0.1885829E-005  0.7616946E+04  0.7818608E-02  0.7516953E-01
          2   -1    0    0  501    0  0.00000000000E+00  0.00000000000E+00  0.41173246953E+04  0.41173246953E+04  0.00000000000E+00 0. -1.
         -2   -1    0    0    0  501 -0.00000000000E+00 -0.00000000000E+00 -0.35227893543E+04  0.35227893543E+04  0.00000000000E+00 0.  1.
         23    2    1    2    0    0 -0.29510720921E+04 -0.15243346484E+04  0.21651394344E+04  0.39659856045E+04  0.93757301590E+02 0.  0.
         13    1    3    3    0    0 -0.25860383191E+04 -0.13406375082E+04  0.19345384177E+04  0.34967616455E+04  0.00000000000E+00 0. -1.
        -13    1    3    3    0    0 -0.36503377294E+03 -0.18369714024E+03  0.23060101673E+03  0.46922395893E+03  0.00000000000E+00 0.  1.
         22    1    1    2    0    0  0.29510720921E+04  0.15243346484E+04 -0.15706040934E+04  0.36741284451E+04  0.00000000000E+00 0.  1.
<mgrwt>
<rscale>  0 0.76169463E+04</rscale>
<asrwt>0</asrwt>
<pdfrwt beam="1">  1        2 0.63343457E+00 0.76169463E+04</pdfrwt>
<pdfrwt beam="2">  1       -2 0.54196759E+00 0.76169463E+04</pdfrwt>
<totfact> 0.15622002E-04</totfact>
</mgrwt>
</event>
<event>
 6    1  0.1885829E-005  0.1496090E+04  0.7818608E-02  0.8887057E-01
          1   -1    0    0  501    0  0.00000000000E+00  0.00000000000E+00  0.19189077321E+04  0.19189077321E+04  0.00000000000E+00 0. -1.
         -1   -1    0    0    0  501 -0.00000000000E+00 -0.00000000000E+00 -0.29160913984E+03  0.29160913984E+03  0.00000000000E+00 0.  1.
         23    2    1    2    0    0  0.58380656623E+02  0.45522891693E+02  0.19124163493E+04  0.19159446905E+04  0.89594248203E+02 0.  0.
         11    1    3    3    0    0 -0.63365135299E+01 -0.19491793896E+02  0.19354828536E+03  0.19463047089E+03  0.00000000000E+00 0. -1.
        -11    1    3    3    0    0  0.64717170153E+02  0.65014685589E+02  0.17188680639E+04  0.17213142196E+04  0.00000000000E+00 0.  1.
         22    1    1    2    0    0 -0.58380656623E+02 -0.45522891693E+02 -0.28511775700E+03  0.29457218146E+03  0.00000000000E+00 0.  1.
<mgrwt>
<rscale>  0 0.14960896E+04</rscale>
<asrwt>0</asrwt>
<pdfrwt beam="1">  1        1 0.29521657E+00 0.14960896E+04</pdfrwt>
<pdfrwt beam="2">  1       -1 0.44862946E-01 0.14960896E+04</pdfrwt>
<totfact> 0.16129234E+01</totfact>
</mgrwt>
</event>
<event>
 6    1  0.1885829E-005  0.4056535E+04  0.7818608E-02  0.7993238E-01
          2   -1    0    0  501    0  0.00000000000E+00  0.00000000000E+00  0.26170987726E+04  0.26170987726E+04  0.00000000000E+00 0.  1.
         -2   -1    0    0    0  501 -0.00000000000E+00 -0.00000000000E+00 -0.15719195996E+04  0.15719195996E+04  0.00000000000E+00 0. -1.
         23    2    1    2    0    0 -0.13391223001E+04 -0.27288287034E+03  0.20691031913E+04  0.24813492033E+04  0.90511087200E+02 0.  0.
         11    1    3    3    0    0 -0.81306536282E+03 -0.20082183626E+03  0.13158279888E+04  0.15597461301E+04  0.00000000000E+00 0. -1.
        -11    1    3    3    0    0 -0.52605693725E+03 -0.72061034079E+02  0.75327520246E+03  0.92160307318E+03  0.00000000000E+00 0.  1.
         22    1    1    2    0    0  0.13391223001E+04  0.27288287034E+03 -0.10239240183E+04  0.17076691690E+04  0.00000000000E+00 0. -1.
<mgrwt>
<rscale>  0 0.40565349E+04</rscale>
<asrwt>0</asrwt>
<pdfrwt beam="1">  1        2 0.40263058E+00 0.40565349E+04</pdfrwt>
<pdfrwt beam="2">  1       -2 0.24183378E+00 0.40565349E+04</pdfrwt>
<totfact> 0.16849905E-01</totfact>
</mgrwt>
</event>
<event>
 6    1  0.1885829E-005  0.5148334E+04  0.7818608E-02  0.7806024E-01
         -2   -1    0    0    0  501 -0.00000000000E+00  0.00000000000E+00  0.19343988093E+04  0.19343988093E+04  0.00000000000E+00 0.  1.
          2   -1    0    0  501    0  0.00000000000E+00 -0.00000000000E+00 -0.34255271964E+04  0.34255271964E+04  0.00000000000E+00 0. -1.
         23    2    1    2    0    0 -0.63160681214E+03 -0.15774765306E+04 -0.27576878123E+04  0.32406024941E+04  0.96452502604E+02 0.  0.
         11    1    3    3    0    0 -0.57058662333E+03 -0.13594903200E+04 -0.24308559950E+04  0.28430342758E+04  0.00000000000E+00 0.  1.
        -11    1    3    3    0    0 -0.61020188804E+02 -0.21798621052E+03 -0.32683181728E+03  0.39756821830E+03  0.00000000000E+00 0. -1.
         22    1    1    2    0    0  0.63160681214E+03  0.15774765306E+04  0.12665594251E+04  0.21193235116E+04  0.00000000000E+00 0.  1.
<mgrwt>
<rscale>  0 0.51483340E+04</rscale>
<asrwt>0</asrwt>
<pdfrwt beam="1">  1        2 0.52700418E+00 0.51483340E+04</pdfrwt>
<pdfrwt beam="2">  1       -2 0.29759982E+00 0.51483340E+04</pdfrwt>
<totfact> 0.21625644E-02</totfact>
</mgrwt>
</event>
<event>
 6    1  0.2339731E-005  0.4080545E+04  0.7818608E-02  0.7988492E-01
          2   -1    0    0  501    0  0.00000000000E+00  0.00000000000E+00  0.22156616821E+04  0.22156616821E+04  0.00000000000E+00 0. -1.
         -2   -1    0    0    0  501 -0.00000000000E+00 -0.00000000000E+00 -0.18787666916E+04  0.18787666916E+04  0.00000000000E+00 0.  1.
         23    2    1    2    0    0 -0.18790443237E+04  0.75494690231E+03 -0.72904442983E+02  0.20283480337E+04  0.90157040859E+02 0.  0.
         11    1    3    3    0    0 -0.81120450247E+03  0.28032948123E+03 -0.16905560958E+02  0.85844228744E+03  0.00000000000E+00 0. -1.
        -11    1    3    3    0    0 -0.10678398213E+04  0.47461742108E+03 -0.55998882026E+02  0.11699057462E+04  0.00000000000E+00 0.  1.
         22    1    1    2    0    0  0.18790443237E+04 -0.75494690231E+03  0.40979943347E+03  0.20660803400E+04  0.00000000000E+00 0.  1.
<mgrwt>
<rscale>  0 0.40805448E+04</rscale>
<asrwt>0</asrwt>
<pdfrwt beam="1">  1        2 0.34087103E+00 0.40805448E+04</pdfrwt>
<pdfrwt beam="2">  1       -2 0.28904103E+00 0.40805448E+04</pdfrwt>
<totfact> 0.14708992E-01</totfact>
</mgrwt>
</event>
<event>
 6    1  0.1885829E-005  0.2069929E+04  0.7818608E-02  0.8574607E-01
         -2   -1    0    0    0  501 -0.00000000000E+00  0.00000000000E+00  0.56531506968E+03  0.56531506968E+03  0.00000000000E+00 0.  1.
          2   -1    0    0  501    0  0.00000000000E+00 -0.00000000000E+00 -0.18947871878E+04  0.18947871878E+04  0.00000000000E+00 0. -1.
         23    2    1    2    0    0 -0.67003232375E+03 -0.11392714623E+03  0.25842674699E+03  0.73286587663E+03  0.91571284055E+02 0.  0.
         11    1    3    3    0    0 -0.44071879573E+03 -0.83830779585E+02  0.21526062513E+03  0.49759199476E+03  0.00000000000E+00 0. -1.
        -11    1    3    3    0    0 -0.22931352802E+03 -0.30096366640E+02  0.43166121853E+02  0.23527388188E+03  0.00000000000E+00 0.  1.
         22    1    1    2    0    0  0.67003232375E+03  0.11392714623E+03 -0.15878988651E+04  0.17272363808E+04  0.00000000000E+00 0. -1.
<mgrwt>
<rscale>  0 0.20699292E+04</rscale>
<asrwt>0</asrwt>
<pdfrwt beam="1">  1        2 0.29150571E+00 0.20699292E+04</pdfrwt>
<pdfrwt beam="2">  1       -2 0.86971551E-01 0.20699292E+04</pdfrwt>
<totfact> 0.80738375E+00</totfact>
</mgrwt>
</event>
<event>
 6    1  0.1885829E-005  0.1175864E+04  0.7818608E-02  0.9134249E-01
         -2   -1    0    0    0  501 -0.00000000000E+00  0.00000000000E+00  0.42512616255E+03  0.42512616255E+03  0.00000000000E+00 0.  1.
          2   -1    0    0  501    0  0.00000000000E+00 -0.00000000000E+00 -0.81308515366E+03  0.81308515366E+03  0.00000000000E+00 0. -1.
         23    2    1    2    0    0 -0.36451419696E+03 -0.45259863299E+03 -0.12820814143E+03  0.60166860258E+03  0.88609578679E+02 0.  0.
         11    1    3    3    0    0 -0.13675131189E+03 -0.24029413381E+03 -0.61036141728E+02  0.28313883987E+03  0.00000000000E+00 0. -1.
        -11    1    3    3    0    0 -0.22776288507E+03 -0.21230449918E+03 -0.67171999700E+02  0.31852976271E+03  0.00000000000E+00 0.  1.
         22    1    1    2    0    0  0.36451419696E+03  0.45259863299E+03 -0.25975084968E+03  0.63654271363E+03  0.00000000000E+00 0. -1.
<mgrwt>
<rscale>  0 0.11758635E+04</rscale>
<asrwt>0</asrwt>
<pdfrwt beam="1">  1        2 0.12509002E+00 0.11758635E+04</pdfrwt>
<pdfrwt beam="2">  1       -2 0.65404025E-01 0.11758635E+04</pdfrwt>
<totfact> 0.71787670E+01</totfact>
</mgrwt>
</event>
<event>
 6    1  0.1885829E-005  0.1571370E+04  0.7818608E-02  0.8838332E-01
          2   -1    0    0  501    0  0.00000000000E+00  0.00000000000E+00  0.15301926278E+04  0.15301926278E+04  0.00000000000E+00 0. -1.
         -2   -1    0    0    0  501 -0.00000000000E+00 -0.00000000000E+00 -0.40341382802E+03  0.40341382802E+03  0.00000000000E+00 0.  1.
         23    2    1    2    0    0 -0.72082309189E+03  0.29820357327E+03  0.64815111737E+03  0.10184038776E+04  0.92386611538E+02 0.  0.
         11    1    3    3    0    0 -0.48903567513E+03  0.23306648225E+03  0.40654079365E+03  0.67731181416E+03  0.00000000000E+00 0.  1.
        -11    1    3    3    0    0 -0.23178741675E+03  0.65137091025E+02  0.24161032372E+03  0.34109206341E+03  0.00000000000E+00 0. -1.
         22    1    1    2    0    0  0.72082309189E+03 -0.29820357327E+03  0.47862768245E+03  0.91520257830E+03  0.00000000000E+00 0. -1.
<mgrwt>
<rscale>  0 0.15713699E+04</rscale>
<asrwt>0</asrwt>
<pdfrwt beam="1">  1        2 0.23541425E+00 0.15713699E+04</pdfrwt>
<pdfrwt beam="2">  1       -2 0.62063667E-01 0.15713699E+04</pdfrwt>
<totfact> 0.28269894E+01</totfact>
</mgrwt>
</event>
<event>
 6    1  0.1885829E-005  0.5833028E+03  0.7818608E-02  0.9940666E-01
          1   -1    0    0  501    0  0.00000000000E+00  0.00000000000E+00  0.88739833546E+02  0.88739833546E+02  0.00000000000E+00 0.  1.
         -1   -1    0    0    0  501 -0.00000000000E+00 -0.00000000000E+00 -0.95853857544E+03  0.95853857544E+03  0.00000000000E+00 0. -1.
         23    2    1    2    0    0 -0.17161898615E+03  0.19142806031E+02 -0.85167705690E+03  0.87364684822E+03  0.89919312293E+02 0.  0.
         13    1    3    3    0    0 -0.48691482018E+02  0.36150820610E+02 -0.16381460682E+03  0.17467961432E+03  0.00000000000E+00 0.  1.
        -13    1    3    3    0    0 -0.12292750413E+03 -0.17008014579E+02 -0.68786245008E+03  0.69896723390E+03  0.00000000000E+00 0. -1.
         22    1    1    2    0    0  0.17161898615E+03 -0.19142806031E+02 -0.18121684997E+02  0.17363156077E+03  0.00000000000E+00 0.  1.
<mgrwt>
<rscale>  0 0.58330285E+03</rscale>
<asrwt>0</asrwt>
<pdfrwt beam="1">  1        1 0.13652282E-01 0.58330285E+03</pdfrwt>
<pdfrwt beam="2">  1       -1 0.14746747E+00 0.58330285E+03</pdfrwt>
<totfact> 0.16385249E+02</totfact>
</mgrwt>
</event>
<event>
 6    1  0.1885829E-005  0.3847338E+04  0.7818608E-02  0.8036072E-01
          2   -1    0    0  501    0  0.00000000000E+00  0.00000000000E+00  0.29502386325E+04  0.29502386325E+04  0.00000000000E+00 0. -1.
         -2   -1    0    0    0  501 -0.00000000000E+00 -0.00000000000E+00 -0.12543059488E+04  0.12543059488E+04  0.00000000000E+00 0.  1.
         23    2    1    2    0    0  0.25222357782E+03  0.98199726584E+03  0.26332682905E+04  0.28237718255E+04  0.10793548760E+03 0.  0.
         11    1    3    3    0    0  0.14181432037E+02  0.11950141290E+03  0.40743334067E+03  0.42483364720E+03  0.00000000000E+00 0.  1.
        -11    1    3    3    0    0  0.23804214578E+03  0.86249585294E+03  0.22258349498E+04  0.23989381783E+04  0.00000000000E+00 0. -1.
         22    1    1    2    0    0 -0.25222357782E+03 -0.98199726584E+03 -0.93733560680E+03  0.13807727558E+04  0.00000000000E+00 0.  1.
<mgrwt>
<rscale>  0 0.38473377E+04</rscale>
<asrwt>0</asrwt>
<pdfrwt beam="1">  1        2 0.45388286E+00 0.38473377E+04</pdfrwt>
<pdfrwt beam="2">  1       -2 0.19297015E+00 0.38473377E+04</pdfrwt>
<totfact> 0.22105613E-01</totfact>
</mgrwt>
</event>
<event>
 6    1  0.1885829E-005  0.2778131E+04  0.7818608E-02  0.8310090E-01
         -2   -1    0    0    0  501 -0.00000000000E+00  0.00000000000E+00  0.68619438867E+03  0.68619438867E+03  0.00000000000E+00 0.  1.
          2   -1    0    0  501    0  0.00000000000E+00 -0.00000000000E+00 -0.28118900876E+04  0.28118900876E+04  0.00000000000E+00 0. -1.
         23    2    1    2    0    0  0.93794004414E+03 -0.29605602974E+03  0.16840412534E+03  0.10020326533E+04  0.91262203219E+02 0.  0.
         11    1    3    3    0    0  0.36900642898E+03 -0.14706108040E+03  0.10242188723E+03  0.41022304784E+03  0.00000000000E+00 0.  1.
        -11    1    3    3    0    0  0.56893361516E+03 -0.14899494935E+03  0.65982238111E+02  0.59180960548E+03  0.00000000000E+00 0. -1.
         22    1    1    2    0    0 -0.93794004414E+03  0.29605602974E+03 -0.22940998243E+04  0.24960518230E+04  0.00000000000E+00 0. -1.
<mgrwt>
<rscale>  0 0.27781312E+04</rscale>
<asrwt>0</asrwt>
<pdfrwt beam="1">  1        2 0.43259848E+00 0.27781312E+04</pdfrwt>
<pdfrwt beam="2">  1       -2 0.10556837E+00 0.27781312E+04</pdfrwt>
<totfact> 0.14380405E+00</totfact>
</mgrwt>
</event>
<event>
 6    1  0.1885829E-005  0.2882342E+04  0.7818608E-02  0.8278151E-01
         -2   -1    0    0    0  501 -0.00000000000E+00  0.00000000000E+00  0.95981151595E+03  0.95981151595E+03  0.00000000000E+00 0.  1.
          2   -1    0    0  501    0  0.00000000000E+00 -0.00000000000E+00 -0.21639397860E+04  0.21639397860E+04  0.00000000000E+00 0. -1.
         23    2    1    2    0    0  0.29711066291E+03 -0.92705954355E+03 -0.17524325937E+04  0.20064546651E+04  0.84416732003E+02 0.  0.
         11    1    3    3    0    0  0.71022445329E+02 -0.13015364399E+03 -0.29048477857E+03  0.32613734126E+03  0.00000000000E+00 0. -1.
        -11    1    3    3    0    0  0.22608821758E+03 -0.79690589956E+03 -0.14619478151E+04  0.16803173239E+04  0.00000000000E+00 0.  1.
         22    1    1    2    0    0 -0.29711066291E+03  0.92705954355E+03  0.54830432362E+03  0.11172966368E+04  0.00000000000E+00 0.  1.
<mgrwt>
<rscale>  0 0.28823423E+04</rscale>
<asrwt>0</asrwt>
<pdfrwt beam="1">  1        2 0.33291381E+00 0.28823423E+04</pdfrwt>
<pdfrwt beam="2">  1       -2 0.14766331E+00 0.28823423E+04</pdfrwt>
<totfact> 0.14606012E+00</totfact>
</mgrwt>
</event>
<event>
 6    1  0.1885829E-005  0.1451345E+04  0.7818608E-02  0.8917468E-01
         -2   -1    0    0    0  501 -0.00000000000E+00  0.00000000000E+00  0.11186021610E+04  0.11186021610E+04  0.00000000000E+00 0.  1.
          2   -1    0    0  501    0  0.00000000000E+00 -0.00000000000E+00 -0.47076690213E+03  0.47076690213E+03  0.00000000000E+00 0. -1.
         23    2    1    2    0    0 -0.35076572371E+03 -0.25280787680E+03  0.95948952553E+03  0.10563805104E+04  0.91494358281E+02 0.  0.
         11    1    3    3    0    0 -0.24644060966E+03 -0.13222057577E+03  0.55200433667E+03  0.61880856688E+03  0.00000000000E+00 0. -1.
        -11    1    3    3    0    0 -0.10432511406E+03 -0.12058730103E+03  0.40748518886E+03  0.43757194349E+03  0.00000000000E+00 0.  1.
         22    1    1    2    0    0  0.35076572371E+03  0.25280787680E+03 -0.31165426662E+03  0.53298855279E+03  0.00000000000E+00 0. -1.
<mgrwt>
<rscale>  0 0.14513454E+04</rscale>
<asrwt>0</asrwt>
<pdfrwt beam="1">  1        2 0.72425678E-01 0.14513454E+04</pdfrwt>
<pdfrwt beam="2">  1       -2 0.17209264E+00 0.14513454E+04</pdfrwt>
<totfact> 0.13173804E+01</totfact>
</mgrwt>
</event>
<event>
 6    1  0.1885829E-005  0.3408233E+04  0.7818608E-02  0.8135889E-01
          2   -1    0    0  501    0  0.00000000000E+00  0.00000000000E+00  0.41229828534E+04  0.41229828534E+04  0.00000000000E+00 0. -1.
         -2   -1    0    0    0  501 -0.00000000000E+00 -0.00000000000E+00 -0.70434778177E+03  0.70434778177E+03  0.00000000000E+00 0.  1.
         23    2    1    2    0    0 -0.15472638327E+04 -0.17318314441E+03  0.73388684650E+03  0.17238018691E+04  0.94261396208E+02 0.  0.
         13    1    3    3    0    0 -0.54890780569E+03 -0.21974079432E+02  0.23424113392E+03  0.59720310459E+03  0.00000000000E+00 0.  1.
        -13    1    3    3    0    0 -0.99835602704E+03 -0.15120906497E+03  0.49964571258E+03  0.11265987645E+04  0.00000000000E+00 0. -1.
         22    1    1    2    0    0  0.15472638327E+04  0.17318314441E+03  0.26847482251E+04  0.31035287661E+04  0.00000000000E+00 0. -1.
<mgrwt>
<rscale>  0 0.34082335E+04</rscale>
<asrwt>0</asrwt>
<pdfrwt beam="1">  1        2 0.63430504E+00 0.34082335E+04</pdfrwt>
<pdfrwt beam="2">  1       -2 0.10836120E+00 0.34082335E+04</pdfrwt>
<totfact> 0.15225458E-01</totfact>
</mgrwt>
</event>
<event>
 6    1  0.1885829E-005  0.1312456E+04  0.7818608E-02  0.9019746E-01
          2   -1    0    0  501    0  0.00000000000E+00  0.00000000000E+00  0.18511789264E+04  0.18511789264E+04  0.00000000000E+00 0. -1.
         -2   -1    0    0    0  501 -0.00000000000E+00 -0.00000000000E+00 -0.23262739287E+03  0.23262739287E+03  0.00000000000E+00 0.  1.
         23    2    1    2    0    0 -0.38989966179E+03 -0.16436132629E+03  0.16029903521E+04  0.16603933504E+04  0.91058317798E+02 0.  0.
         11    1    3    3    0    0 -0.11175744105E+03 -0.16713013266E+02  0.54217241738E+03  0.55382305894E+03  0.00000000000E+00 0.  1.
        -11    1    3    3    0    0 -0.27814222074E+03 -0.14764831302E+03  0.10608179347E+04  0.11065702915E+04  0.00000000000E+00 0. -1.
         22    1    1    2    0    0  0.38989966179E+03  0.16436132629E+03  0.15561181430E+02  0.42341296887E+03  0.00000000000E+00 0.  1.
<mgrwt>
<rscale>  0 0.13124556E+04</rscale>
<asrwt>0</asrwt>
<pdfrwt beam="1">  1        2 0.28479675E+00 0.13124556E+04</pdfrwt>
<pdfrwt beam="2">  1       -2 0.35788831E-01 0.13124556E+04</pdfrwt>
<totfact> 0.58113073E+01</totfact>
</mgrwt>
</event>
<event>
 6    1  0.1885829E-005  0.4842344E+04  0.7818608E-02  0.7853298E-01
         -2   -1    0    0    0  501 -0.00000000000E+00  0.00000000000E+00  0.17967546127E+04  0.17967546127E+04  0.00000000000E+00 0.  1.
          2   -1    0    0  501    0  0.00000000000E+00 -0.00000000000E+00 -0.32625905652E+04  0.32625905652E+04  0.00000000000E+00 0. -1.
         23    2    1    2    0    0  0.19647588740E+04 -0.10413395615E+04 -0.17316579088E+04  0.28198526400E+04  0.90908101848E+02 0.  0.
         13    1    3    3    0    0  0.39712776993E+03 -0.20413919269E+03 -0.30294932234E+03  0.53959389132E+03  0.00000000000E+00 0.  1.
        -13    1    3    3    0    0  0.15676311041E+04 -0.83720036876E+03 -0.14287085864E+04  0.22802587486E+04  0.00000000000E+00 0. -1.
         22    1    1    2    0    0 -0.19647588740E+04  0.10413395615E+04  0.26582195623E+03  0.22394925380E+04  0.00000000000E+00 0.  1.
<mgrwt>
<rscale>  0 0.48423443E+04</rscale>
<asrwt>0</asrwt>
<pdfrwt beam="1">  1        2 0.50193701E+00 0.48423443E+04</pdfrwt>
<pdfrwt beam="2">  1       -2 0.27642379E+00 0.48423443E+04</pdfrwt>
<totfact> 0.38459969E-02</totfact>
</mgrwt>
</event>
<event>
 6    1  0.1885829E-005  0.3053304E+04  0.7818608E-02  0.8228671E-01
          2   -1    0    0  501    0  0.00000000000E+00  0.00000000000E+00  0.22130539381E+04  0.22130539381E+04  0.00000000000E+00 0. -1.
         -2   -1    0    0    0  501 -0.00000000000E+00 -0.00000000000E+00 -0.10531450905E+04  0.10531450905E+04  0.00000000000E+00 0.  1.
         23    2    1    2    0    0  0.74948939831E+03  0.12026341296E+04  0.11841358478E+04  0.18489304741E+04  0.91120713298E+02 0.  0.
         11    1    3    3    0    0  0.39250981855E+03  0.67321643410E+03  0.59975961011E+03  0.98335950431E+03  0.00000000000E+00 0. -1.
        -11    1    3    3    0    0  0.35697957976E+03  0.52941769545E+03  0.58437623767E+03  0.86557096981E+03  0.00000000000E+00 0.  1.
         22    1    1    2    0    0 -0.74948939831E+03 -0.12026341296E+04 -0.24227000166E+02  0.14172685544E+04  0.00000000000E+00 0.  1.
<mgrwt>
<rscale>  0 0.30533044E+04</rscale>
<asrwt>0</asrwt>
<pdfrwt beam="1">  1        2 0.34046983E+00 0.30533044E+04</pdfrwt>
<pdfrwt beam="2">  1       -2 0.16202232E+00 0.30533044E+04</pdfrwt>
<totfact> 0.10531828E+00</totfact>
</mgrwt>
</event>
<event>
 6    1  0.1885829E-005  0.1204543E+04  0.7818608E-02  0.9108889E-01
          2   -1    0    0  501    0  0.00000000000E+00  0.00000000000E+00  0.12422453614E+04  0.12422453614E+04  0.00000000000E+00 0. -1.
         -2   -1    0    0    0  501 -0.00000000000E+00 -0.00000000000E+00 -0.29199644475E+03  0.29199644475E+03  0.00000000000E+00 0.  1.
         23    2    1    2    0    0  0.32609027424E+03  0.19150944232E+03 -0.11344304456E+03  0.40532581202E+03  0.91700360319E+02 0.  0.
         11    1    3    3    0    0  0.13029577165E+03  0.12361049407E+03 -0.74626778453E+02  0.19448829892E+03  0.00000000000E+00 0. -1.
        -11    1    3    3    0    0  0.19579450259E+03  0.67898948247E+02 -0.38816266103E+02  0.21083751310E+03  0.00000000000E+00 0.  1.
         22    1    1    2    0    0 -0.32609027424E+03 -0.19150944232E+03  0.10636919612E+04  0.11289159941E+04  0.00000000000E+00 0. -1.
<mgrwt>
<rscale>  0 0.12045434E+04</rscale>
<asrwt>0</asrwt>
<pdfrwt beam="1">  1        2 0.19111467E+00 0.12045434E+04</pdfrwt>
<pdfrwt beam="2">  1       -2 0.44922531E-01 0.12045434E+04</pdfrwt>
<totfact> 0.82826281E+01</totfact>
</mgrwt>
</event>
<event>
 6    1  0.1885829E-005  0.1174053E+04  0.7818608E-02  0.9135876E-01
          2   -1    0    0  501    0  0.00000000000E+00  0.00000000000E+00  0.14232252037E+03  0.14232252037E+03  0.00000000000E+00 0. -1.
         -2   -1    0    0    0  501 -0.00000000000E+00 -0.00000000000E+00 -0.24212623386E+04  0.24212623386E+04  0.00000000000E+00 0.  1.
         23    2    1    2    0    0  0.44573370665E+03  0.21101218205E+03 -0.46543127501E+03  0.68421849912E+03  0.91235982784E+02 0.  0.
         11    1    3    3    0    0  0.26204170891E+02  0.49548042935E+01 -0.32025551307E+01  0.26860100838E+02  0.00000000000E+00 0. -1.
        -11    1    3    3    0    0  0.41952953576E+03  0.20605737776E+03 -0.46222871988E+03  0.65735839828E+03  0.00000000000E+00 0.  1.
         22    1    1    2    0    0 -0.44573370665E+03 -0.21101218205E+03 -0.18135085432E+04  0.18793663598E+04  0.00000000000E+00 0.  1.
<mgrwt>
<rscale>  0 0.11740531E+04</rscale>
<asrwt>0</asrwt>
<pdfrwt beam="1">  1        2 0.21895774E-01 0.11740531E+04</pdfrwt>
<pdfrwt beam="2">  1       -2 0.37250187E+00 0.11740531E+04</pdfrwt>
<totfact> 0.28810838E+00</totfact>
</mgrwt>
</event>
<event>
 6    1  0.1885829E-005  0.6077404E+04  0.7818608E-02  0.7680878E-01
          2   -1    0    0  501    0  0.00000000000E+00  0.00000000000E+00  0.40698398816E+04  0.40698398816E+04  0.00000000000E+00 0. -1.
         -2   -1    0    0    0  501 -0.00000000000E+00 -0.00000000000E+00 -0.22688140627E+04  0.22688140627E+04  0.00000000000E+00 0.  1.
         23    2    1    2    0    0  0.25260766522E+03 -0.13597837408E+04 -0.19205300015E+04  0.23684146344E+04  0.90166179733E+02 0.  0.
         11    1    3    3    0    0  0.21146499006E+03 -0.10649708692E+04 -0.14461964548E+04  0.18084149358E+04  0.00000000000E+00 0.  1.
        -11    1    3    3    0    0  0.41142675159E+02 -0.29481287158E+03 -0.47433354666E+03  0.55999969862E+03  0.00000000000E+00 0. -1.
         22    1    1    2    0    0 -0.25260766522E+03  0.13597837408E+04  0.37215558203E+04  0.39702393099E+04  0.00000000000E+00 0. -1.
<mgrwt>
<rscale>  0 0.60774040E+04</rscale>
<asrwt>0</asrwt>
<pdfrwt beam="1">  1        2 0.62612921E+00 0.60774040E+04</pdfrwt>
<pdfrwt beam="2">  1       -2 0.34904832E+00 0.60774040E+04</pdfrwt>
<totfact> 0.31460589E-03</totfact>
</mgrwt>
</event>
<event>
 6    1  0.1885829E-005  0.1500699E+04  0.7818608E-02  0.8883988E-01
          2   -1    0    0  501    0  0.00000000000E+00  0.00000000000E+00  0.74909464678E+03  0.74909464678E+03  0.00000000000E+00 0. -1.
         -2   -1    0    0    0  501 -0.00000000000E+00 -0.00000000000E+00 -0.75160678226E+03  0.75160678226E+03  0.00000000000E+00 0.  1.
         23    2    1    2    0    0 -0.41086563577E+03 -0.44769668462E+02  0.62202840821E+03  0.75179169844E+03  0.86351162962E+02 0.  0.
         13    1    3    3    0    0 -0.13177779060E+03 -0.33079625343E+01  0.13333563601E+03  0.18749592140E+03  0.00000000000E+00 0. -1.
        -13    1    3    3    0    0 -0.27908784517E+03 -0.41461705928E+02  0.48869277220E+03  0.56429577704E+03  0.00000000000E+00 0.  1.
         22    1    1    2    0    0  0.41086563577E+03  0.44769668462E+02 -0.62454054370E+03  0.74890973060E+03  0.00000000000E+00 0.  1.
<mgrwt>
<rscale>  0 0.15006993E+04</rscale>
<asrwt>0</asrwt>
<pdfrwt beam="1">  1        2 0.11524533E+00 0.15006993E+04</pdfrwt>
<pdfrwt beam="2">  1       -2 0.11563181E+00 0.15006993E+04</pdfrwt>
<totfact> 0.21111565E+01</totfact>
</mgrwt>
</event>
<event>
 6    1  0.1885829E-005  0.3375458E+04  0.7818608E-02  0.8143956E-01
         -2   -1    0    0    0  501 -0.00000000000E+00  0.00000000000E+00  0.12710844472E+04  0.12710844472E+04  0.00000000000E+00 0.  1.
          2   -1    0    0  501    0  0.00000000000E+00 -0.00000000000E+00 -0.22409440222E+04  0.22409440222E+04  0.00000000000E+00 0. -1.
         23    2    1    2    0    0 -0.40455650814E+02  0.62144570205E+03  0.11454195488E+04  0.13069803539E+04  0.91543882056E+02 0.  0.
         11    1    3    3    0    0 -0.15061692631E+02  0.13967731895E+02  0.26399525672E+02  0.33449769430E+02  0.00000000000E+00 0. -1.
        -11    1    3    3    0    0 -0.25393958183E+02  0.60747797015E+03  0.11190200231E+04  0.12735305845E+04  0.00000000000E+00 0.  1.
         22    1    1    2    0    0  0.40455650814E+02 -0.62144570205E+03 -0.21152791238E+04  0.22050481155E+04  0.00000000000E+00 0. -1.
<mgrwt>
<rscale>  0 0.33754580E+04</rscale>
<asrwt>0</asrwt>
<pdfrwt beam="1">  1        2 0.34476062E+00 0.33754580E+04</pdfrwt>
<pdfrwt beam="2">  1       -2 0.19555145E+00 0.33754580E+04</pdfrwt>
<totfact> 0.57843527E-01</totfact>
</mgrwt>
</event>
<event>
 6    1  0.1885829E-005  0.1235480E+04  0.7818608E-02  0.9082355E-01
          2   -1    0    0  501    0  0.00000000000E+00  0.00000000000E+00  0.22101837860E+04  0.22101837860E+04  0.00000000000E+00 0. -1.
         -2   -1    0    0    0  501 -0.00000000000E+00 -0.00000000000E+00 -0.17265661569E+03  0.17265661569E+03  0.00000000000E+00 0.  1.
         23    2    1    2    0    0  0.53570621653E+03  0.16541797495E+03  0.54194525046E+03  0.78562108806E+03  0.95663904578E+02 0.  0.
         13    1    3    3    0    0  0.32535313798E+03  0.57258064633E+02  0.28402602103E+03  0.43566492971E+03  0.00000000000E+00 0.  1.
        -13    1    3    3    0    0  0.21035307856E+03  0.10815991031E+03  0.25791922943E+03  0.34995615835E+03  0.00000000000E+00 0. -1.
         22    1    1    2    0    0 -0.53570621653E+03 -0.16541797495E+03  0.14955819199E+04  0.15972193137E+04  0.00000000000E+00 0.  1.
<mgrwt>
<rscale>  0 0.12354802E+04</rscale>
<asrwt>0</asrwt>
<pdfrwt beam="1">  1        2 0.34002825E+00 0.12354802E+04</pdfrwt>
<pdfrwt beam="2">  1       -2 0.26562558E-01 0.12354802E+04</pdfrwt>
<totfact> 0.64612503E+01</totfact>
</mgrwt>
</event>
<event>
 6    1  0.1885829E-005  0.3697640E+04  0.7818608E-02  0.8068485E-01
         -2   -1    0    0    0  501 -0.00000000000E+00  0.00000000000E+00  0.24765050722E+04  0.24765050722E+04  0.00000000000E+00 0.  1.
          2   -1    0    0  501    0  0.00000000000E+00 -0.00000000000E+00 -0.13802257965E+04  0.13802257965E+04  0.00000000000E+00 0. -1.
         23    2    1    2    0    0  0.13815130807E+03  0.41398755568E+03 -0.13241578988E+04  0.13972619024E+04  0.92060864905E+02 0.  0.
         13    1    3    3    0    0  0.88827777719E+02  0.15311942832E+03 -0.44587967073E+03  0.47973389936E+03  0.00000000000E+00 0.  1.
        -13    1    3    3    0    0  0.49323530355E+02  0.26086812737E+03 -0.87827822804E+03  0.91752800304E+03  0.00000000000E+00 0. -1.
         22    1    1    2    0    0 -0.13815130807E+03 -0.41398755568E+03  0.24204371745E+04  0.24594689663E+04  0.00000000000E+00 0.  1.
<mgrwt>
<rscale>  0 0.36976404E+04</rscale>
<asrwt>0</asrwt>
<pdfrwt beam="1">  1        2 0.21234243E+00 0.36976404E+04</pdfrwt>
<pdfrwt beam="2">  1       -2 0.38100078E+00 0.36976404E+04</pdfrwt>
<totfact> 0.11839738E-01</totfact>
</mgrwt>
</event>
<event>
 6    1  0.1885829E-005  0.3937286E+04  0.7818608E-02  0.8017319E-01
          2   -1    0    0  501    0  0.00000000000E+00  0.00000000000E+00  0.17785942868E+04  0.17785942868E+04  0.00000000000E+00 0. -1.
         -2   -1    0    0    0  501 -0.00000000000E+00 -0.00000000000E+00 -0.21789985030E+04  0.21789985030E+04  0.00000000000E+00 0.  1.
         23    2    1    2    0    0  0.87621090383E+03  0.20889512495E+03 -0.19589505242E+04  0.21574679843E+04  0.76146083723E+02 0.  0.
         13    1    3    3    0    0  0.47028566236E+03  0.10738938020E+03 -0.11385123826E+04  0.12364916209E+04  0.00000000000E+00 0. -1.
        -13    1    3    3    0    0  0.40592524148E+03  0.10150574474E+03 -0.82043814159E+03  0.92097636346E+03  0.00000000000E+00 0.  1.
         22    1    1    2    0    0 -0.87621090383E+03 -0.20889512495E+03  0.15585463080E+04  0.18001248055E+04  0.00000000000E+00 0. -1.
<mgrwt>
<rscale>  0 0.39372855E+04</rscale>
<asrwt>0</asrwt>
<pdfrwt beam="1">  1        2 0.27362989E+00 0.39372855E+04</pdfrwt>
<pdfrwt beam="2">  1       -2 0.33523054E+00 0.39372855E+04</pdfrwt>
<totfact> 0.13538968E-01</totfact>
</mgrwt>
</event>
<event>
 6    1  0.1885829E-005  0.4763367E+04  0.7818608E-02  0.7866084E-01
          2   -1    0    0  501    0  0.00000000000E+00  0.00000000000E+00  0.35879318385E+04  0.35879318385E+04  0.00000000000E+00 0. -1.
         -2   -1    0    0    0  501 -0.00000000000E+00 -0.00000000000E+00 -0.15809707424E+04  0.15809707424E+04  0.00000000000E+00 0.  1.
         23    2    1    2    0    0 -0.64239566491E+03  0.75082583570E+03 -0.13466228963E+04  0.16727708299E+04  0.91418808401E+02 0.  0.
         11    1    3    3    0    0 -0.38669837856E+03  0.39364362711E+03 -0.70744183868E+03  0.89719835948E+03  0.00000000000E+00 0. -1.
        -11    1    3    3    0    0 -0.25569728635E+03  0.35718220859E+03 -0.63918105763E+03  0.77557247038E+03  0.00000000000E+00 0.  1.
         22    1    1    2    0    0  0.64239566491E+03 -0.75082583570E+03  0.33535839925E+04  0.34961317510E+04  0.00000000000E+00 0. -1.
<mgrwt>
<rscale>  0 0.47633666E+04</rscale>
<asrwt>0</asrwt>
<pdfrwt beam="1">  1        2 0.55198951E+00 0.47633666E+04</pdfrwt>
<pdfrwt beam="2">  1       -2 0.24322627E+00 0.47633666E+04</pdfrwt>
<totfact> 0.36878458E-02</totfact>
</mgrwt>
</event>
<event>
 6    1  0.1885829E-005  0.2653289E+04  0.7818608E-02  0.8350322E-01
          2   -1    0    0  501    0  0.00000000000E+00  0.00000000000E+00  0.17453979851E+04  0.17453979851E+04  0.00000000000E+00 0. -1.
         -2   -1    0    0    0  501 -0.00000000000E+00 -0.00000000000E+00 -0.10083581071E+04  0.10083581071E+04  0.00000000000E+00 0.  1.
         23    2    1    2    0    0  0.62205057700E+03  0.36411060306E+03 -0.78506580783E+03  0.10696156081E+04  0.90696057193E+02 0.  0.
         11    1    3    3    0    0  0.10450126519E+03  0.38698519087E+02 -0.84792545537E+02  0.14002808855E+03  0.00000000000E+00 0.  1.
        -11    1    3    3    0    0  0.51754931181E+03  0.32541208397E+03 -0.70027326229E+03  0.92958751951E+03  0.00000000000E+00 0. -1.
         22    1    1    2    0    0 -0.62205057700E+03 -0.36411060306E+03  0.15221056858E+04  0.16841404841E+04  0.00000000000E+00 0. -1.
<mgrwt>
<rscale>  0 0.26532894E+04</rscale>
<asrwt>0</asrwt>
<pdfrwt beam="1">  1        2 0.26852277E+00 0.26532894E+04</pdfrwt>
<pdfrwt beam="2">  1       -2 0.15513202E+00 0.26532894E+04</pdfrwt>
<totfact> 0.22322994E+00</totfact>
</mgrwt>
</event>
<event>
 6    1  0.1885829E-005  0.1633709E+04  0.7818608E-02  0.8800103E-01
         -2   -1    0    0    0  501 -0.00000000000E+00  0.00000000000E+00  0.16612496899E+03  0.16612496899E+03  0.00000000000E+00 0.  1.
          2   -1    0    0  501    0  0.00000000000E+00 -0.00000000000E+00 -0.40165631236E+04  0.40165631236E+04  0.00000000000E+00 0. -1.
         23    2    1    2    0    0  0.49077875367E+03  0.64396678432E+03 -0.21542806995E+04  0.23031915864E+04  0.90604342835E+02 0.  0.
         13    1    3    3    0    0  0.33766613158E+03  0.37887995640E+03 -0.14004264897E+04  0.14895512045E+04  0.00000000000E+00 0. -1.
        -13    1    3    3    0    0  0.15311262208E+03  0.26508682791E+03 -0.75385420983E+03  0.81364038189E+03  0.00000000000E+00 0.  1.
         22    1    1    2    0    0 -0.49077875367E+03 -0.64396678432E+03 -0.16961574551E+04  0.18794965062E+04  0.00000000000E+00 0.  1.
<mgrwt>
<rscale>  0 0.16337092E+04</rscale>
<asrwt>0</asrwt>
<pdfrwt beam="1">  1        2 0.61793281E+00 0.16337092E+04</pdfrwt>
<pdfrwt beam="2">  1       -2 0.25557687E-01 0.16337092E+04</pdfrwt>
<totfact> 0.44581978E+00</totfact>
</mgrwt>
</event>
<event>
 6    1  0.1885829E-005  0.1891882E+04  0.7818608E-02  0.8658908E-01
          2   -1    0    0  501    0  0.00000000000E+00  0.00000000000E+00  0.13108795631E+04  0.13108795631E+04  0.00000000000E+00 0. -1.
         -2   -1    0    0    0  501 -0.00000000000E+00 -0.00000000000E+00 -0.68259829553E+03  0.68259829553E+03  0.00000000000E+00 0.  1.
         23    2    1    2    0    0  0.25880195763E+03  0.89930570984E+03  0.18596580873E+03  0.95840676050E+03  0.90724988476E+02 0.  0.
         13    1    3    3    0    0  0.11788890339E+03  0.50805456203E+03  0.66778280268E+02  0.52581039383E+03  0.00000000000E+00 0. -1.
        -13    1    3    3    0    0  0.14091305424E+03  0.39125114781E+03  0.11918752846E+03  0.43259636667E+03  0.00000000000E+00 0.  1.
         22    1    1    2    0    0 -0.25880195763E+03 -0.89930570984E+03  0.44231545882E+03  0.10350710981E+04  0.00000000000E+00 0. -1.
<mgrwt>
<rscale>  0 0.18918818E+04</rscale>
<asrwt>0</asrwt>
<pdfrwt beam="1">  1        2 0.20167378E+00 0.18918818E+04</pdfrwt>
<pdfrwt beam="2">  1       -2 0.10501512E+00 0.18918818E+04</pdfrwt>
<totfact> 0.11221309E+01</totfact>
</mgrwt>
</event>
<event>
 6    1  0.1885829E-005  0.1467863E+04  0.7818608E-02  0.8906109E-01
          2   -1    0    0  501    0  0.00000000000E+00  0.00000000000E+00  0.18758612239E+04  0.18758612239E+04  0.00000000000E+00 0.  1.
         -2   -1    0    0    0  501 -0.00000000000E+00 -0.00000000000E+00 -0.28715119095E+03  0.28715119095E+03  0.00000000000E+00 0. -1.
         23    2    1    2    0    0 -0.32588948102E+03 -0.51848622194E+03  0.13858037979E+04  0.15178745564E+04  0.91973291924E+02 0.  0.
         13    1    3    3    0    0 -0.21559357591E+03 -0.29031355397E+03  0.72599656888E+03  0.81106939753E+03  0.00000000000E+00 0.  1.
        -13    1    3    3    0    0 -0.11029590512E+03 -0.22817266797E+03  0.65980722902E+03  0.70680515884E+03  0.00000000000E+00 0. -1.
         22    1    1    2    0    0  0.32588948102E+03  0.51848622194E+03  0.20290623501E+03  0.64513785844E+03  0.00000000000E+00 0. -1.
<mgrwt>
<rscale>  0 0.14678635E+04</rscale>
<asrwt>0</asrwt>
<pdfrwt beam="1">  1        2 0.28859403E+00 0.14678635E+04</pdfrwt>
<pdfrwt beam="2">  1       -2 0.44177108E-01 0.14678635E+04</pdfrwt>
<totfact> 0.36860863E+01</totfact>
</mgrwt>
</event>
<event>
 6    1  0.1885829E-005  0.1833389E+04  0.7818608E-02  0.8688742E-01
         -2   -1    0    0    0  501 -0.00000000000E+00  0.00000000000E+00  0.33954279454E+03  0.33954279454E+03  0.00000000000E+00 0.  1.
          2   -1    0    0  501    0  0.00000000000E+00 -0.00000000000E+00 -0.24748842389E+04  0.24748842389E+04  0.00000000000E+00 0. -1.
         23    2    1    2    0    0 -0.15850009303E+03  0.38241122088E+03 -0.23219414348E+04  0.23603563586E+04  0.92246905676E+02 0.  0.
         13    1    3    3    0    0 -0.11114191655E+03  0.23266456958E+03 -0.16684509971E+04  0.16882576987E+04  0.00000000000E+00 0. -1.
        -13    1    3    3    0    0 -0.47358176480E+02  0.14974665130E+03 -0.65349043773E+03  0.67209865991E+03  0.00000000000E+00 0.  1.
         22    1    1    2    0    0  0.15850009303E+03 -0.38241122088E+03  0.18659999042E+03  0.45407067487E+03  0.00000000000E+00 0.  1.
<mgrwt>
<rscale>  0 0.18333893E+04</rscale>
<asrwt>0</asrwt>
<pdfrwt beam="1">  1        2 0.38075141E+00 0.18333893E+04</pdfrwt>
<pdfrwt beam="2">  1       -2 0.52237354E-01 0.18333893E+04</pdfrwt>
<totfact> 0.11735402E+01</totfact>
</mgrwt>
</event>
<event>
 6    1  0.1885829E-005  0.4759851E+04  0.7818608E-02  0.7866659E-01
          2   -1    0    0  501    0  0.00000000000E+00  0.00000000000E+00  0.32438893489E+04  0.32438893489E+04  0.00000000000E+00 0. -1.
         -2   -1    0    0    0  501 -0.00000000000E+00 -0.00000000000E+00 -0.17460658328E+04  0.17460658328E+04  0.00000000000E+00 0.  1.
         23    2    1    2    0    0 -0.18633142195E+04  0.12045578200E+04 -0.15083010425E+03  0.22257268659E+04  0.90614231556E+02 0.  0.
         11    1    3    3    0    0 -0.12422258566E+04  0.77040231560E+03 -0.13247150326E+03  0.14677171069E+04  0.00000000000E+00 0.  1.
        -11    1    3    3    0    0 -0.62108836289E+03  0.43415550444E+03 -0.18358600990E+02  0.75800975903E+03  0.00000000000E+00 0. -1.
         22    1    1    2    0    0  0.18633142195E+04 -0.12045578200E+04  0.16486536203E+04  0.27642283159E+04  0.00000000000E+00 0.  1.
<mgrwt>
<rscale>  0 0.47598506E+04</rscale>
<asrwt>0</asrwt>
<pdfrwt beam="1">  1        2 0.49905990E+00 0.47598506E+04</pdfrwt>
<pdfrwt beam="2">  1       -2 0.26862551E+00 0.47598506E+04</pdfrwt>
<totfact> 0.44447420E-02</totfact>
</mgrwt>
</event>
<event>
 6    1  0.1885829E-005  0.2460116E+04  0.7818608E-02  0.8417334E-01
          2   -1    0    0  501    0  0.00000000000E+00  0.00000000000E+00  0.27422882635E+04  0.27422882635E+04  0.00000000000E+00 0. -1.
         -2   -1    0    0    0  501 -0.00000000000E+00 -0.00000000000E+00 -0.55174462977E+03  0.55174462977E+03  0.00000000000E+00 0.  1.
         23    2    1    2    0    0  0.83914900416E+03  0.79958197788E+03  0.55271962866E+03  0.12875509317E+04  0.93733789491E+02 0.  0.
         13    1    3    3    0    0  0.15066718059E+03  0.10355860794E+03  0.10722134983E+03  0.21194669718E+03  0.00000000000E+00 0. -1.
        -13    1    3    3    0    0  0.68848182357E+03  0.69602336993E+03  0.44549827882E+03  0.10756042345E+04  0.00000000000E+00 0.  1.
         22    1    1    2    0    0 -0.83914900416E+03 -0.79958197788E+03  0.16378240051E+04  0.20064819616E+04  0.00000000000E+00 0. -1.
<mgrwt>
<rscale>  0 0.24601161E+04</rscale>
<asrwt>0</asrwt>
<pdfrwt beam="1">  1        2 0.42189049E+00 0.24601161E+04</pdfrwt>
<pdfrwt beam="2">  1       -2 0.84883791E-01 0.24601161E+04</pdfrwt>
<totfact> 0.27094447E+00</totfact>
</mgrwt>
</event>
<event>
 6    1  0.1885829E-005  0.4272668E+04  0.7818608E-02  0.7951691E-01
         -1   -1    0    0    0  501 -0.00000000000E+00  0.00000000000E+00  0.14899491186E+04  0.14899491186E+04  0.00000000000E+00 0.  1.
          1   -1    0    0  501    0  0.00000000000E+00 -0.00000000000E+00 -0.30631398599E+04  0.30631398599E+04  0.00000000000E+00 0. -1.
         23    2    1    2    0    0 -0.33721258219E+03 -0.13770513122E+04 -0.24886369526E+04  0.28654798983E+04  0.87627186250E+02 0.  0.
         11    1    3    3    0    0 -0.21372801137E+03 -0.10288796011E+04 -0.18611289560E+04  0.21373052864E+04  0.00000000000E+00 0.  1.
        -11    1    3    3    0    0 -0.12348457082E+03 -0.34817171108E+03 -0.62750799663E+03  0.72817461193E+03  0.00000000000E+00 0. -1.
         22    1    1    2    0    0  0.33721258219E+03  0.13770513122E+04  0.91544621122E+03  0.16876090802E+04  0.00000000000E+00 0.  1.
<mgrwt>
<rscale>  0 0.42726678E+04</rscale>
<asrwt>0</asrwt>
<pdfrwt beam="1">  1        1 0.47125228E+00 0.42726678E+04</pdfrwt>
<pdfrwt beam="2">  1       -1 0.22922294E+00 0.42726678E+04</pdfrwt>
<totfact> 0.39266118E-02</totfact>
</mgrwt>
</event>
<event>
 6    1  0.1885829E-005  0.3751365E+04  0.7818608E-02  0.8056673E-01
          1   -1    0    0  501    0  0.00000000000E+00  0.00000000000E+00  0.13110245308E+04  0.13110245308E+04  0.00000000000E+00 0. -1.
         -1   -1    0    0    0  501 -0.00000000000E+00 -0.00000000000E+00 -0.26835378499E+04  0.26835378499E+04  0.00000000000E+00 0.  1.
         23    2    1    2    0    0  0.56271659584E+03  0.17751977980E+04 -0.91624723068E+03  0.20772319625E+04  0.86060729665E+02 0.  0.
         11    1    3    3    0    0  0.16018225204E+03  0.42226952144E+03 -0.19225455348E+03  0.49084795603E+03  0.00000000000E+00 0.  1.
        -11    1    3    3    0    0  0.40253434380E+03  0.13529282765E+04 -0.72399267720E+03  0.15863840065E+04  0.00000000000E+00 0. -1.
         22    1    1    2    0    0 -0.56271659584E+03 -0.17751977980E+04 -0.45626608841E+03  0.19173304182E+04  0.00000000000E+00 0. -1.
<mgrwt>
<rscale>  0 0.37513645E+04</rscale>
<asrwt>0</asrwt>
<pdfrwt beam="1">  1        1 0.20169608E+00 0.37513645E+04</pdfrwt>
<pdfrwt beam="2">  1       -1 0.41285198E+00 0.37513645E+04</pdfrwt>
<totfact> 0.41408401E-02</totfact>
</mgrwt>
</event>
<event>
 6    1  0.1885829E-005  0.4010916E+04  0.7818608E-02  0.8002348E-01
         -1   -1    0    0    0  501 -0.00000000000E+00  0.00000000000E+00  0.25948214265E+04  0.25948214265E+04  0.00000000000E+00 0.  1.
          1   -1    0    0  501    0  0.00000000000E+00 -0.00000000000E+00 -0.15499571890E+04  0.15499571890E+04  0.00000000000E+00 0. -1.
         23    2    1    2    0    0  0.19750182536E+04  0.34123962026E+03  0.54895248444E+03  0.20800582839E+04  0.90288726017E+02 0.  0.
         13    1    3    3    0    0  0.15632592577E+04  0.30411942060E+03  0.42078036309E+03  0.16472171207E+04  0.00000000000E+00 0. -1.
        -13    1    3    3    0    0  0.41175899582E+03  0.37120199662E+02  0.12817212135E+03  0.43284116319E+03  0.00000000000E+00 0.  1.
         22    1    1    2    0    0 -0.19750182536E+04 -0.34123962026E+03  0.49591175306E+03  0.20647203315E+04  0.00000000000E+00 0.  1.
<mgrwt>
<rscale>  0 0.40109162E+04</rscale>
<asrwt>0</asrwt>
<pdfrwt beam="1">  1        1 0.23845495E+00 0.40109162E+04</pdfrwt>
<pdfrwt beam="2">  1       -1 0.39920330E+00 0.40109162E+04</pdfrwt>
<totfact> 0.34196299E-02</totfact>
</mgrwt>
</event>
<event>
 6    1  0.1885829E-005  0.1917860E+04  0.7818608E-02  0.8646017E-01
         -2   -1    0    0    0  501 -0.00000000000E+00  0.00000000000E+00  0.53275233118E+03  0.53275233118E+03  0.00000000000E+00 0.  1.
          2   -1    0    0  501    0  0.00000000000E+00 -0.00000000000E+00 -0.17260295694E+04  0.17260295694E+04  0.00000000000E+00 0. -1.
         23    2    1    2    0    0 -0.60566865376E+03  0.66882606323E+03 -0.22309234964E+03  0.93385868053E+03  0.90327281242E+02 0.  0.
         11    1    3    3    0    0 -0.26913777681E+03  0.31217576858E+03 -0.56808094362E+02  0.41607212473E+03  0.00000000000E+00 0. -1.
        -11    1    3    3    0    0 -0.33653087695E+03  0.35665029465E+03 -0.16628425528E+03  0.51778655580E+03  0.00000000000E+00 0.  1.
         22    1    1    2    0    0  0.60566865376E+03 -0.66882606323E+03 -0.97018488860E+03  0.13249232201E+04  0.00000000000E+00 0. -1.
<mgrwt>
<rscale>  0 0.19178595E+04</rscale>
<asrwt>0</asrwt>
<pdfrwt beam="1">  1        2 0.26554301E+00 0.19178595E+04</pdfrwt>
<pdfrwt beam="2">  1       -2 0.81961898E-01 0.19178595E+04</pdfrwt>
<totfact> 0.11608884E+01</totfact>
</mgrwt>
</event>
<event>
 6    1  0.1885829E-005  0.2454332E+04  0.7818608E-02  0.8419438E-01
         -2   -1    0    0    0  501 -0.00000000000E+00  0.00000000000E+00  0.50282663016E+03  0.50282663016E+03  0.00000000000E+00 0.  1.
          2   -1    0    0  501    0  0.00000000000E+00 -0.00000000000E+00 -0.29949420782E+04  0.29949420782E+04  0.00000000000E+00 0. -1.
         23    2    1    2    0    0  0.98582208266E+03  0.62993541530E+03 -0.17676937673E+04  0.21217416092E+04  0.91555421492E+02 0.  0.
         11    1    3    3    0    0  0.72912518717E+03  0.50760561061E+03 -0.13070766358E+04  0.15804228315E+04  0.00000000000E+00 0. -1.
        -11    1    3    3    0    0  0.25669689549E+03  0.12232980469E+03 -0.46061713142E+03  0.54131877765E+03  0.00000000000E+00 0.  1.
         22    1    1    2    0    0 -0.98582208266E+03 -0.62993541530E+03 -0.72442168081E+03  0.13760270992E+04  0.00000000000E+00 0.  1.
<mgrwt>
<rscale>  0 0.24543322E+04</rscale>
<asrwt>0</asrwt>
<pdfrwt beam="1">  1        2 0.46076032E+00 0.24543322E+04</pdfrwt>
<pdfrwt beam="2">  1       -2 0.77357942E-01 0.24543322E+04</pdfrwt>
<totfact> 0.23408999E+00</totfact>
</mgrwt>
</event>
<event>
 6    1  0.1885829E-005  0.1835701E+04  0.7818608E-02  0.8687541E-01
         -2   -1    0    0    0  501 -0.00000000000E+00  0.00000000000E+00  0.37760837272E+03  0.37760837272E+03  0.00000000000E+00 0.  1.
          2   -1    0    0  501    0  0.00000000000E+00 -0.00000000000E+00 -0.22310147310E+04  0.22310147310E+04  0.00000000000E+00 0. -1.
         23    2    1    2    0    0  0.76701142122E+03  0.31929184733E+03 -0.38203735926E+03  0.91889515659E+03  0.90343571271E+02 0.  0.
         13    1    3    3    0    0  0.28075645982E+03  0.90113302139E+02 -0.96775669613E+02  0.31033872975E+03  0.00000000000E+00 0.  1.
        -13    1    3    3    0    0  0.48625496140E+03  0.22917854519E+03 -0.28526168964E+03  0.60855642683E+03  0.00000000000E+00 0. -1.
         22    1    1    2    0    0 -0.76701142122E+03 -0.31929184733E+03 -0.14713689990E+04  0.16897279472E+04  0.00000000000E+00 0. -1.
<mgrwt>
<rscale>  0 0.18357013E+04</rscale>
<asrwt>0</asrwt>
<pdfrwt beam="1">  1        2 0.34323304E+00 0.18357013E+04</pdfrwt>
<pdfrwt beam="2">  1       -2 0.58093596E-01 0.18357013E+04</pdfrwt>
<totfact> 0.12949674E+01</totfact>
</mgrwt>
</event>
<event>
 6    1  0.1885829E-005  0.3725911E+04  0.7818608E-02  0.8062244E-01
          2   -1    0    0  501    0  0.00000000000E+00  0.00000000000E+00  0.34980429977E+04  0.34980429977E+04  0.00000000000E+00 0. -1.
         -2   -1    0    0    0  501 -0.00000000000E+00 -0.00000000000E+00 -0.99215561658E+03  0.99215561658E+03  0.00000000000E+00 0.  1.
         23    2    1    2    0    0  0.16174155799E+04 -0.86923801500E+03  0.88324772269E+03  0.20397767433E+04  0.94629478861E+02 0.  0.
         13    1    3    3    0    0  0.12631554172E+04 -0.66285751642E+03  0.64465363872E+03  0.15654136862E+04  0.00000000000E+00 0. -1.
        -13    1    3    3    0    0  0.35426016265E+03 -0.20638049858E+03  0.23859408398E+03  0.47436305711E+03  0.00000000000E+00 0.  1.
         22    1    1    2    0    0 -0.16174155799E+04  0.86923801500E+03  0.16226396584E+04  0.24504218710E+04  0.00000000000E+00 0. -1.
<mgrwt>
<rscale>  0 0.37259109E+04</rscale>
<asrwt>0</asrwt>
<pdfrwt beam="1">  1        2 0.53816046E+00 0.37259109E+04</pdfrwt>
<pdfrwt beam="2">  1       -2 0.15263933E+00 0.37259109E+04</pdfrwt>
<totfact> 0.18784973E-01</totfact>
</mgrwt>
</event>
<event>
 6    1  0.1885829E-005  0.1927436E+04  0.7818608E-02  0.8641319E-01
          2   -1    0    0  501    0  0.00000000000E+00  0.00000000000E+00  0.11757435874E+04  0.11757435874E+04  0.00000000000E+00 0. -1.
         -2   -1    0    0    0  501 -0.00000000000E+00 -0.00000000000E+00 -0.78992800262E+03  0.78992800262E+03  0.00000000000E+00 0.  1.
         23    2    1    2    0    0  0.65000976106E+03  0.62932426125E+03 -0.13862749595E+03  0.91991719239E+03  0.92023599951E+02 0.  0.
         13    1    3    3    0    0  0.43372930270E+02  0.78888144695E+02 -0.73377655569E+01  0.90323824415E+02  0.00000000000E+00 0.  1.
        -13    1    3    3    0    0  0.60663683079E+03  0.55043611656E+03 -0.13128973040E+03  0.82959336798E+03  0.00000000000E+00 0. -1.
         22    1    1    2    0    0 -0.65000976106E+03 -0.62932426125E+03  0.52444308076E+03  0.10457543977E+04  0.00000000000E+00 0. -1.
<mgrwt>
<rscale>  0 0.19274364E+04</rscale>
<asrwt>0</asrwt>
<pdfrwt beam="1">  1        2 0.18088363E+00 0.19274364E+04</pdfrwt>
<pdfrwt beam="2">  1       -2 0.12152739E+00 0.19274364E+04</pdfrwt>
<totfact> 0.94194364E+00</totfact>
</mgrwt>
</event>
<event>
 6    1  0.1885829E-005  0.1287916E+04  0.7818608E-02  0.9039203E-01
         -2   -1    0    0    0  501 -0.00000000000E+00  0.00000000000E+00  0.11415642021E+03  0.11415642021E+03  0.00000000000E+00 0.  1.
          2   -1    0    0  501    0  0.00000000000E+00 -0.00000000000E+00 -0.36325741980E+04  0.36325741980E+04  0.00000000000E+00 0. -1.
         23    2    1    2    0    0 -0.49233211209E+03 -0.31016486023E+03 -0.25475010172E+04  0.26147975349E+04  0.93869945323E+02 0.  0.
         13    1    3    3    0    0 -0.23590111587E+03 -0.18642661361E+03 -0.11557325549E+04  0.11942034823E+04  0.00000000000E+00 0.  1.
        -13    1    3    3    0    0 -0.25643099622E+03 -0.12373824663E+03 -0.13917684623E+04  0.14205940526E+04  0.00000000000E+00 0. -1.
         22    1    1    2    0    0  0.49233211209E+03  0.31016486023E+03 -0.97091676053E+03  0.11319330833E+04  0.00000000000E+00 0.  1.
<mgrwt>
<rscale>  0 0.12879156E+04</rscale>
<asrwt>0</asrwt>
<pdfrwt beam="1">  1        2 0.55885762E+00 0.12879156E+04</pdfrwt>
<pdfrwt beam="2">  1       -2 0.17562525E-01 0.12879156E+04</pdfrwt>
<totfact> 0.17626744E+01</totfact>
</mgrwt>
</event>
<event>
 6    1  0.1885829E-005  0.3218315E+04  0.7818608E-02  0.8183997E-01
         -2   -1    0    0    0  501 -0.00000000000E+00  0.00000000000E+00  0.18796637939E+04  0.18796637939E+04  0.00000000000E+00 0.  1.
          2   -1    0    0  501    0  0.00000000000E+00 -0.00000000000E+00 -0.13775806347E+04  0.13775806347E+04  0.00000000000E+00 0. -1.
         23    2    1    2    0    0  0.76872482101E+03 -0.11389729134E+04 -0.59373125054E+03  0.14996874968E+04  0.91370905740E+02 0.  0.
         13    1    3    3    0    0  0.49243159839E+03 -0.68591741808E+03 -0.32391494684E+03  0.90437407985E+03  0.00000000000E+00 0. -1.
        -13    1    3    3    0    0  0.27629322262E+03 -0.45305549532E+03 -0.26981630371E+03  0.59531341699E+03  0.00000000000E+00 0.  1.
         22    1    1    2    0    0 -0.76872482101E+03  0.11389729134E+04  0.10958144097E+04  0.17575569318E+04  0.00000000000E+00 0.  1.
<mgrwt>
<rscale>  0 0.32183154E+04</rscale>
<asrwt>0</asrwt>
<pdfrwt beam="1">  1        2 0.21193548E+00 0.32183154E+04</pdfrwt>
<pdfrwt beam="2">  1       -2 0.28917904E+00 0.32183154E+04</pdfrwt>
<totfact> 0.46386515E-01</totfact>
</mgrwt>
</event>
<event>
 6    1  0.1885829E-005  0.2003661E+04  0.7818608E-02  0.8604911E-01
         -2   -1    0    0    0  501 -0.00000000000E+00  0.00000000000E+00  0.46537513495E+03  0.46537513495E+03  0.00000000000E+00 0.  1.
          2   -1    0    0  501    0  0.00000000000E+00 -0.00000000000E+00 -0.21566790878E+04  0.21566790878E+04  0.00000000000E+00 0. -1.
         23    2    1    2    0    0 -0.50076706719E+03 -0.79010603578E+03 -0.13084971850E+04  0.16113236825E+04  0.95728384060E+02 0.  0.
         13    1    3    3    0    0 -0.25792842060E+03 -0.34354610843E+03 -0.65702725521E+03  0.78500688714E+03  0.00000000000E+00 0. -1.
        -13    1    3    3    0    0 -0.24283864659E+03 -0.44655992735E+03 -0.65146992976E+03  0.82631679541E+03  0.00000000000E+00 0.  1.
         22    1    1    2    0    0  0.50076706719E+03  0.79010603578E+03 -0.38280676788E+03  0.10107305402E+04  0.00000000000E+00 0.  1.
<mgrwt>
<rscale>  0 0.20036615E+04</rscale>
<asrwt>0</asrwt>
<pdfrwt beam="1">  1        2 0.33179678E+00 0.20036615E+04</pdfrwt>
<pdfrwt beam="2">  1       -2 0.71596175E-01 0.20036615E+04</pdfrwt>
<totfact> 0.89748721E+00</totfact>
</mgrwt>
</event>
<event>
 6    1  0.1885829E-005  0.3830966E+04  0.7818608E-02  0.8039542E-01
          2   -1    0    0  501    0  0.00000000000E+00  0.00000000000E+00  0.20252174706E+04  0.20252174706E+04  0.00000000000E+00 0. -1.
         -2   -1    0    0    0  501 -0.00000000000E+00 -0.00000000000E+00 -0.18116942757E+04  0.18116942757E+04  0.00000000000E+00 0.  1.
         23    2    1    2    0    0  0.16343617291E+04  0.99053309920E+03  0.21977883425E+03  0.19258038960E+04  0.90132278661E+02 0.  0.
         11    1    3    3    0    0  0.46372150287E+03  0.30508010474E+03  0.99508101107E+02  0.56392673702E+03  0.00000000000E+00 0.  1.
        -11    1    3    3    0    0  0.11706402263E+04  0.68545299445E+03  0.12027073314E+03  0.13618771590E+04  0.00000000000E+00 0. -1.
         22    1    1    2    0    0 -0.16343617291E+04 -0.99053309920E+03 -0.62556394308E+01  0.19111078503E+04  0.00000000000E+00 0. -1.
<mgrwt>
<rscale>  0 0.38309659E+04</rscale>
<asrwt>0</asrwt>
<pdfrwt beam="1">  1        2 0.31157192E+00 0.38309659E+04</pdfrwt>
<pdfrwt beam="2">  1       -2 0.27872220E+00 0.38309659E+04</pdfrwt>
<totfact> 0.22182761E-01</totfact>
</mgrwt>
</event>
<event>
 6    1  0.1885829E-005  0.2909882E+04  0.7818608E-02  0.8269943E-01
          2   -1    0    0  501    0  0.00000000000E+00  0.00000000000E+00  0.12630615016E+04  0.12630615016E+04  0.00000000000E+00 0. -1.
         -2   -1    0    0    0  501 -0.00000000000E+00 -0.00000000000E+00 -0.16759696039E+04  0.16759696039E+04  0.00000000000E+00 0.  1.
         23    2    1    2    0    0 -0.13277579623E+04 -0.38885467675E+03 -0.65678319310E+03  0.15341737370E+04  0.90419722972E+02 0.  0.
         11    1    3    3    0    0 -0.23837378594E+03 -0.10639178074E+03 -0.12777338235E+03  0.29063260325E+03  0.00000000000E+00 0. -1.
        -11    1    3    3    0    0 -0.10893841764E+04 -0.28246289602E+03 -0.52900981075E+03  0.12435411337E+04  0.00000000000E+00 0.  1.
         22    1    1    2    0    0  0.13277579623E+04  0.38885467675E+03  0.24387509079E+03  0.14048573686E+04  0.00000000000E+00 0.  1.
<mgrwt>
<rscale>  0 0.29098816E+04</rscale>
<asrwt>0</asrwt>
<pdfrwt beam="1">  1        2 0.19431715E+00 0.29098816E+04</pdfrwt>
<pdfrwt beam="2">  1       -2 0.25784148E+00 0.29098816E+04</pdfrwt>
<totfact> 0.86189295E-01</totfact>
</mgrwt>
</event>
<event>
 6    1  0.1885829E-005  0.2821487E+04  0.7818608E-02  0.8296628E-01
         -2   -1    0    0    0  501 -0.00000000000E+00  0.00000000000E+00  0.16007775299E+04  0.16007775299E+04  0.00000000000E+00 0.  1.
          2   -1    0    0  501    0  0.00000000000E+00 -0.00000000000E+00 -0.12432690862E+04  0.12432690862E+04  0.00000000000E+00 0. -1.
         23    2    1    2    0    0  0.35442534496E+03 -0.63850745508E+02  0.15523653978E+04  0.15960973449E+04  0.89410085534E+02 0.  0.
         11    1    3    3    0    0  0.31994482137E+03 -0.27920659059E+02  0.13307210415E+04  0.13689275884E+04  0.00000000000E+00 0.  1.
        -11    1    3    3    0    0  0.34480523583E+02 -0.35930086449E+02  0.22164435625E+03  0.22716975652E+03  0.00000000000E+00 0. -1.
         22    1    1    2    0    0 -0.35442534496E+03  0.63850745508E+02 -0.11948569540E+04  0.12479492712E+04  0.00000000000E+00 0. -1.
<mgrwt>
<rscale>  0 0.28214870E+04</rscale>
<asrwt>0</asrwt>
<pdfrwt beam="1">  1        2 0.19127217E+00 0.28214870E+04</pdfrwt>
<pdfrwt beam="2">  1       -2 0.24627347E+00 0.28214870E+04</pdfrwt>
<totfact> 0.10504997E+00</totfact>
</mgrwt>
</event>
<event>
 6    1  0.1885829E-005  0.7726884E+03  0.7818608E-02  0.9600413E-01
          2   -1    0    0  501    0  0.00000000000E+00  0.00000000000E+00  0.27236874671E+04  0.27236874671E+04  0.00000000000E+00 0. -1.
         -2   -1    0    0    0  501 -0.00000000000E+00 -0.00000000000E+00 -0.54801381832E+02  0.54801381832E+02  0.00000000000E+00 0.  1.
         23    2    1    2    0    0  0.43260051177E+02 -0.37745749364E+03  0.14590097786E+04  0.15103617776E+04  0.90208501440E+02 0.  0.
         11    1    3    3    0    0  0.26505112242E+01 -0.21627317248E+03  0.67049008177E+03  0.70451264013E+03  0.00000000000E+00 0. -1.
        -11    1    3    3    0    0  0.40609539953E+02 -0.16118432116E+03  0.78851969681E+03  0.80584913748E+03  0.00000000000E+00 0.  1.
         22    1    1    2    0    0 -0.43260051177E+02  0.37745749364E+03  0.12098763067E+04  0.12681270713E+04  0.00000000000E+00 0.  1.
<mgrwt>
<rscale>  0 0.77268839E+03</rscale>
<asrwt>0</asrwt>
<pdfrwt beam="1">  1        2 0.41902874E+00 0.77268839E+03</pdfrwt>
<pdfrwt beam="2">  1       -2 0.84309839E-02 0.77268839E+03</pdfrwt>
<totfact> 0.24248979E+02</totfact>
</mgrwt>
</event>
<event>
 6    1  0.1885829E-005  0.1077079E+04  0.7818608E-02  0.9227825E-01
         -2   -1    0    0    0  501 -0.00000000000E+00  0.00000000000E+00  0.27780911710E+03  0.27780911710E+03  0.00000000000E+00 0.  1.
          2   -1    0    0  501    0  0.00000000000E+00 -0.00000000000E+00 -0.10439708956E+04  0.10439708956E+04  0.00000000000E+00 0. -1.
         23    2    1    2    0    0 -0.39554790287E+03 -0.28300639646E+02  0.54293282793E+02  0.41051409252E+03  0.91186566634E+02 0.  0.
         11    1    3    3    0    0 -0.22849259646E+03  0.13947169185E+02 -0.29595634535E+01  0.22893699828E+03  0.00000000000E+00 0. -1.
        -11    1    3    3    0    0 -0.16705530641E+03 -0.42247808830E+02  0.57252846246E+02  0.18157709424E+03  0.00000000000E+00 0.  1.
         22    1    1    2    0    0  0.39554790287E+03  0.28300639646E+02 -0.82045506130E+03  0.91126592018E+03  0.00000000000E+00 0. -1.
<mgrwt>
<rscale>  0 0.10770787E+04</rscale>
<asrwt>0</asrwt>
<pdfrwt beam="1">  1        2 0.16061091E+00 0.10770787E+04</pdfrwt>
<pdfrwt beam="2">  1       -2 0.42739864E-01 0.10770787E+04</pdfrwt>
<totfact> 0.12176477E+02</totfact>
</mgrwt>
</event>
<event>
 6    1  0.1885829E-005  0.3682828E+03  0.7818608E-02  0.1055352E+00
         -2   -1    0    0    0  501 -0.00000000000E+00  0.00000000000E+00  0.28277379641E+02  0.28277379641E+02  0.00000000000E+00 0.  1.
          2   -1    0    0  501    0  0.00000000000E+00 -0.00000000000E+00 -0.11991226995E+04  0.11991226995E+04  0.00000000000E+00 0. -1.
         23    2    1    2    0    0 -0.30553197007E+02  0.14522535187E+03 -0.91621509854E+03  0.93267910893E+03  0.91740464244E+02 0.  0.
         11    1    3    3    0    0 -0.58999593169E+01  0.37478383750E+02 -0.51862422305E+03  0.52001011865E+03  0.00000000000E+00 0. -1.
        -11    1    3    3    0    0 -0.24653237690E+02  0.10774696812E+03 -0.39759087549E+03  0.41266899028E+03  0.00000000000E+00 0.  1.
         22    1    1    2    0    0  0.30553197007E+02 -0.14522535187E+03 -0.25463022134E+03  0.29472097023E+03  0.00000000000E+00 0.  1.
<mgrwt>
<rscale>  0 0.36828276E+03</rscale>
<asrwt>0</asrwt>
<pdfrwt beam="1">  1        2 0.18448044E+00 0.36828276E+03</pdfrwt>
<pdfrwt beam="2">  1       -2 0.43503656E-02 0.36828276E+03</pdfrwt>
<totfact> 0.48604146E+03</totfact>
</mgrwt>
</event>
<event>
 6    1  0.1885829E-005  0.1425308E+04  0.7818608E-02  0.8935701E-01
          2   -1    0    0  501    0  0.00000000000E+00  0.00000000000E+00  0.11598142448E+04  0.11598142448E+04  0.00000000000E+00 0. -1.
         -2   -1    0    0    0  501 -0.00000000000E+00 -0.00000000000E+00 -0.43789382783E+03  0.43789382783E+03  0.00000000000E+00 0.  1.
         23    2    1    2    0    0  0.64291176203E+03 -0.16943885593E+03  0.83807770131E+02  0.67616978819E+03  0.90204104534E+02 0.  0.
         13    1    3    3    0    0  0.11926879686E+03 -0.11021790127E+02 -0.13383432876E+02  0.12052237152E+03  0.00000000000E+00 0.  1.
        -13    1    3    3    0    0  0.52364296517E+03 -0.15841706580E+03  0.97191203007E+02  0.55564741667E+03  0.00000000000E+00 0. -1.
         22    1    1    2    0    0 -0.64291176203E+03  0.16943885593E+03  0.63811264687E+03  0.92153828447E+03  0.00000000000E+00 0. -1.
<mgrwt>
<rscale>  0 0.14253077E+04</rscale>
<asrwt>0</asrwt>
<pdfrwt beam="1">  1        2 0.17843296E+00 0.14253077E+04</pdfrwt>
<pdfrwt beam="2">  1       -2 0.67368282E-01 0.14253077E+04</pdfrwt>
<totfact> 0.39318188E+01</totfact>
</mgrwt>
</event>
<event>
 6    1  0.2176917E-005  0.3618632E+04  0.7818608E-02  0.8086237E-01
          2   -1    0    0  501    0  0.00000000000E+00  0.00000000000E+00  0.26320481247E+04  0.26320481247E+04  0.00000000000E+00 0. -1.
         -2   -1    0    0    0  501 -0.00000000000E+00 -0.00000000000E+00 -0.12437557768E+04  0.12437557768E+04  0.00000000000E+00 0.  1.
         23    2    1    2    0    0  0.44526555119E+03  0.26207542409E+03 -0.11613972470E+04  0.12742924236E+04  0.89625199476E+02 0.  0.
         13    1    3    3    0    0  0.30875327115E+03  0.22650208974E+03 -0.87003477635E+03  0.95057471624E+03  0.00000000000E+00 0.  1.
        -13    1    3    3    0    0  0.13651228004E+03  0.35573334345E+02 -0.29136247070E+03  0.32371770735E+03  0.00000000000E+00 0. -1.
         22    1    1    2    0    0 -0.44526555119E+03 -0.26207542409E+03  0.25496895949E+04  0.26015114779E+04  0.00000000000E+00 0. -1.
<mgrwt>
<rscale>  0 0.36186324E+04</rscale>
<asrwt>0</asrwt>
<pdfrwt beam="1">  1        2 0.40493048E+00 0.36186324E+04</pdfrwt>
<pdfrwt beam="2">  1       -2 0.19134704E+00 0.36186324E+04</pdfrwt>
<totfact> 0.35990750E-01</totfact>
</mgrwt>
</event>
<event>
 6    1  0.1885829E-005  0.1070531E+04  0.7818608E-02  0.9234400E-01
         -2   -1    0    0    0  501 -0.00000000000E+00  0.00000000000E+00  0.17012558801E+03  0.17012558801E+03  0.00000000000E+00 0.  1.
          2   -1    0    0  501    0  0.00000000000E+00 -0.00000000000E+00 -0.16841047758E+04  0.16841047758E+04  0.00000000000E+00 0. -1.
         23    2    1    2    0    0  0.29127954904E+03 -0.82760641488E+02 -0.15188143455E+04  0.15513830785E+04  0.91100717840E+02 0.  0.
         11    1    3    3    0    0  0.12940234786E+03 -0.31866446006E+02 -0.45483027482E+03  0.47395254710E+03  0.00000000000E+00 0. -1.
        -11    1    3    3    0    0  0.16187720118E+03 -0.50894195481E+02 -0.10639840707E+04  0.10774305314E+04  0.00000000000E+00 0.  1.
         22    1    1    2    0    0 -0.29127954904E+03  0.82760641488E+02  0.48351576830E+01  0.30284728531E+03  0.00000000000E+00 0.  1.
<mgrwt>
<rscale>  0 0.10705313E+04</rscale>
<asrwt>0</asrwt>
<pdfrwt beam="1">  1        2 0.25909304E+00 0.10705313E+04</pdfrwt>
<pdfrwt beam="2">  1       -2 0.26173168E-01 0.10705313E+04</pdfrwt>
<totfact> 0.13135457E+02</totfact>
</mgrwt>
</event>
<event>
 6    1  0.1885829E-005  0.2244881E+04  0.7818608E-02  0.8499977E-01
         -2   -1    0    0    0  501 -0.00000000000E+00  0.00000000000E+00  0.42413050934E+03  0.42413050934E+03  0.00000000000E+00 0.  1.
          2   -1    0    0  501    0  0.00000000000E+00 -0.00000000000E+00 -0.29704822926E+04  0.29704822926E+04  0.00000000000E+00 0. -1.
         23    2    1    2    0    0 -0.60089551982E+03  0.81622843396E+03 -0.55104881336E+03  0.11566364339E+04  0.82757256113E+02 0.  0.
         11    1    3    3    0    0 -0.13982933689E+03  0.23159862984E+03 -0.17803399739E+03  0.32386150284E+03  0.00000000000E+00 0. -1.
        -11    1    3    3    0    0 -0.46106618292E+03  0.58462980412E+03 -0.37301481597E+03  0.83277493108E+03  0.00000000000E+00 0.  1.
         22    1    1    2    0    0  0.60089551982E+03 -0.81622843396E+03 -0.19953029699E+04  0.22379763680E+04  0.00000000000E+00 0. -1.
<mgrwt>
<rscale>  0 0.22448805E+04</rscale>
<asrwt>0</asrwt>
<pdfrwt beam="1">  1        2 0.45699727E+00 0.22448805E+04</pdfrwt>
<pdfrwt beam="2">  1       -2 0.65250848E-01 0.22448805E+04</pdfrwt>
<totfact> 0.35856183E+00</totfact>
</mgrwt>
</event>
<event>
 6    1  0.1885829E-005  0.7915163E+03  0.7818608E-02  0.9572379E-01
          1   -1    0    0  501    0  0.00000000000E+00  0.00000000000E+00  0.21232980123E+04  0.21232980123E+04  0.00000000000E+00 0. -1.
         -1   -1    0    0    0  501 -0.00000000000E+00 -0.00000000000E+00 -0.73764739267E+02  0.73764739267E+02  0.00000000000E+00 0.  1.
         23    2    1    2    0    0 -0.31961824440E+03 -0.18068318998E+02  0.41754349123E+03  0.53397137278E+03  0.91107483631E+02 0.  0.
         11    1    3    3    0    0 -0.45094331623E+02  0.22145567442E+02  0.34275673515E+02  0.60817322341E+02  0.00000000000E+00 0.  1.
        -11    1    3    3    0    0 -0.27452391277E+03 -0.40213886441E+02  0.38326781772E+03  0.47315405043E+03  0.00000000000E+00 0. -1.
         22    1    1    2    0    0  0.31961824440E+03  0.18068318998E+02  0.16319897818E+04  0.16630913788E+04  0.00000000000E+00 0. -1.
<mgrwt>
<rscale>  0 0.79151633E+03</rscale>
<asrwt>0</asrwt>
<pdfrwt beam="1">  1        1 0.32666119E+00 0.79151633E+03</pdfrwt>
<pdfrwt beam="2">  1       -1 0.11348423E-01 0.79151633E+03</pdfrwt>
<totfact> 0.13040620E+02</totfact>
</mgrwt>
</event>
<event>
 6    1  0.1885829E-005  0.2142480E+04  0.7818608E-02  0.8542758E-01
         -2   -1    0    0    0  501 -0.00000000000E+00  0.00000000000E+00  0.10469457774E+04  0.10469457774E+04  0.00000000000E+00 0.  1.
          2   -1    0    0  501    0  0.00000000000E+00 -0.00000000000E+00 -0.10960977875E+04  0.10960977875E+04  0.00000000000E+00 0. -1.
         23    2    1    2    0    0 -0.32925070887E+03  0.39234878351E+03  0.91422167866E+03  0.10519741530E+04  0.92221167142E+02 0.  0.
         13    1    3    3    0    0 -0.22029115246E+03  0.22368674203E+03  0.47972712206E+03  0.57332544166E+03  0.00000000000E+00 0.  1.
        -13    1    3    3    0    0 -0.10895955640E+03  0.16866204147E+03  0.43449455660E+03  0.47864871135E+03  0.00000000000E+00 0. -1.
         22    1    1    2    0    0  0.32925070887E+03 -0.39234878351E+03 -0.96337368882E+03  0.10910694119E+04  0.00000000000E+00 0. -1.
<mgrwt>
<rscale>  0 0.21424798E+04</rscale>
<asrwt>0</asrwt>
<pdfrwt beam="1">  1        2 0.16863043E+00 0.21424798E+04</pdfrwt>
<pdfrwt beam="2">  1       -2 0.16106858E+00 0.21424798E+04</pdfrwt>
<totfact> 0.49763755E+00</totfact>
</mgrwt>
</event>
<event>
 6    1  0.2751115E-005  0.4441684E+04  0.7818608E-02  0.7920926E-01
          2   -1    0    0  501    0  0.00000000000E+00  0.00000000000E+00  0.21029323724E+04  0.21029323724E+04  0.00000000000E+00 0. -1.
         -2   -1    0    0    0  501 -0.00000000000E+00 -0.00000000000E+00 -0.23453628228E+04  0.23453628228E+04  0.00000000000E+00 0.  1.
         23    2    1    2    0    0 -0.72572433442E+03 -0.81311589693E+03  0.18155707085E+04  0.21195182541E+04  0.90704799298E+02 0.  0.
         13    1    3    3    0    0 -0.32800040649E+03 -0.33764015095E+03  0.70623507317E+03  0.84873618797E+03  0.00000000000E+00 0. -1.
        -13    1    3    3    0    0 -0.39772392793E+03 -0.47547574598E+03  0.11093356353E+04  0.12707820662E+04  0.00000000000E+00 0.  1.
         22    1    1    2    0    0  0.72572433442E+03  0.81311589693E+03 -0.20580011588E+04  0.23287769411E+04  0.00000000000E+00 0.  1.
<mgrwt>
<rscale>  0 0.44416841E+04</rscale>
<asrwt>0</asrwt>
<pdfrwt beam="1">  1        2 0.32352806E+00 0.44416841E+04</pdfrwt>
<pdfrwt beam="2">  1       -2 0.36082505E+00 0.44416841E+04</pdfrwt>
<totfact> 0.59203600E-02</totfact>
</mgrwt>
</event>
<event>
 6    1  0.1885829E-005  0.1755957E+04  0.7818608E-02  0.8730078E-01
         -2   -1    0    0    0  501 -0.00000000000E+00  0.00000000000E+00  0.33209327660E+03  0.33209327660E+03  0.00000000000E+00 0. -1.
          2   -1    0    0  501    0  0.00000000000E+00 -0.00000000000E+00 -0.23211747060E+04  0.23211747060E+04  0.00000000000E+00 0.  1.
         23    2    1    2    0    0  0.10050129193E+03 -0.81947774348E+03 -0.55707653339E+03  0.10003063061E+04  0.92920182082E+02 0.  0.
         11    1    3    3    0    0  0.66415574995E+02 -0.42956707180E+03 -0.23956661218E+03  0.49631749863E+03  0.00000000000E+00 0. -1.
        -11    1    3    3    0    0  0.34085716931E+02 -0.38991067167E+03 -0.31750992121E+03  0.50398880747E+03  0.00000000000E+00 0.  1.
         22    1    1    2    0    0 -0.10050129193E+03  0.81947774348E+03 -0.14320048960E+04  0.16529616765E+04  0.00000000000E+00 0.  1.
<mgrwt>
<rscale>  0 0.17559573E+04</rscale>
<asrwt>0</asrwt>
<pdfrwt beam="1">  1        2 0.35710380E+00 0.17559573E+04</pdfrwt>
<pdfrwt beam="2">  1       -2 0.51091274E-01 0.17559573E+04</pdfrwt>
<totfact> 0.15136460E+01</totfact>
</mgrwt>
</event>
<event>
 6    1  0.1885829E-005  0.2254435E+04  0.7818608E-02  0.8496106E-01
          2   -1    0    0  501    0  0.00000000000E+00  0.00000000000E+00  0.80522162943E+03  0.80522162943E+03  0.00000000000E+00 0. -1.
         -2   -1    0    0    0  501 -0.00000000000E+00 -0.00000000000E+00 -0.15779751333E+04  0.15779751333E+04  0.00000000000E+00 0.  1.
         23    2    1    2    0    0 -0.29638150553E+03  0.47831477832E+03 -0.14171030111E+04  0.15277358862E+04  0.95754738182E+02 0.  0.
         13    1    3    3    0    0 -0.13929958443E+03  0.16482227790E+03 -0.45110518893E+03  0.50006664455E+03  0.00000000000E+00 0.  1.
        -13    1    3    3    0    0 -0.15708192109E+03  0.31349250042E+03 -0.96599782217E+03  0.10276692416E+04  0.00000000000E+00 0. -1.
         22    1    1    2    0    0  0.29638150553E+03 -0.47831477832E+03  0.64434950718E+03  0.85546087659E+03  0.00000000000E+00 0. -1.
<mgrwt>
<rscale>  0 0.22544354E+04</rscale>
<asrwt>0</asrwt>
<pdfrwt beam="1">  1        2 0.12388025E+00 0.22544354E+04</pdfrwt>
<pdfrwt beam="2">  1       -2 0.24276540E+00 0.22544354E+04</pdfrwt>
<totfact> 0.22123834E+00</totfact>
</mgrwt>
</event>
<event>
 6    1  0.1885829E-005  0.4488078E+04  0.7818608E-02  0.7912727E-01
          3   -1    0    0  501    0  0.00000000000E+00  0.00000000000E+00  0.18620785664E+04  0.18620785664E+04  0.00000000000E+00 0. -1.
         -3   -1    0    0    0  501 -0.00000000000E+00 -0.00000000000E+00 -0.27043495013E+04  0.27043495013E+04  0.00000000000E+00 0.  1.
         23    2    1    2    0    0 -0.19916461641E+04  0.81177283695E+03  0.22707472818E+03  0.21645267939E+04  0.89351706937E+02 0.  0.
         11    1    3    3    0    0 -0.40539156316E+03  0.16689495185E+03  0.82581044400E+02  0.44611195157E+03  0.00000000000E+00 0. -1.
        -11    1    3    3    0    0 -0.15862546009E+04  0.64487788511E+03  0.14449368378E+03  0.17184148423E+04  0.00000000000E+00 0.  1.
         22    1    1    2    0    0  0.19916461641E+04 -0.81177283695E+03 -0.10693456632E+04  0.24019012738E+04  0.00000000000E+00 0.  1.
<mgrwt>
<rscale>  0 0.44880781E+04</rscale>
<asrwt>0</asrwt>
<pdfrwt beam="1">  1        3 0.28647363E+00 0.44880781E+04</pdfrwt>
<pdfrwt beam="2">  1       -3 0.41605377E+00 0.44880781E+04</pdfrwt>
<totfact> 0.77206068E-04</totfact>
</mgrwt>
</event>
<event>
 6    1  0.1904642E-005  0.5848261E+04  0.7818608E-02  0.7709505E-01
         -2   -1    0    0    0  501 -0.00000000000E+00  0.00000000000E+00  0.30823358488E+04  0.30823358488E+04  0.00000000000E+00 0. -1.
          2   -1    0    0  501    0  0.00000000000E+00 -0.00000000000E+00 -0.27740457006E+04  0.27740457006E+04  0.00000000000E+00 0.  1.
         23    2    1    2    0    0  0.21272737573E+04  0.11760320279E+04  0.17806247351E+04  0.30145310774E+04  0.91805231481E+02 0.  0.
         11    1    3    3    0    0  0.11314033203E+04  0.63825127980E+03  0.10065114937E+04  0.16433208927E+04  0.00000000000E+00 0.  1.
        -11    1    3    3    0    0  0.99587043701E+03  0.53778074807E+03  0.77411324135E+03  0.13712101847E+04  0.00000000000E+00 0. -1.
         22    1    1    2    0    0 -0.21272737573E+04 -0.11760320279E+04 -0.14723345869E+04  0.28418504720E+04  0.00000000000E+00 0.  1.
<mgrwt>
<rscale>  0 0.58482615E+04</rscale>
<asrwt>0</asrwt>
<pdfrwt beam="1">  1        2 0.42677626E+00 0.58482615E+04</pdfrwt>
<pdfrwt beam="2">  1       -2 0.47420552E+00 0.58482615E+04</pdfrwt>
<totfact> 0.39587988E-03</totfact>
</mgrwt>
</event>
<event>
 6    1  0.1885829E-005  0.1004871E+04  0.7818608E-02  0.9303218E-01
          2   -1    0    0  501    0  0.00000000000E+00  0.00000000000E+00  0.51066759414E+03  0.51066759414E+03  0.00000000000E+00 0. -1.
         -2   -1    0    0    0  501 -0.00000000000E+00 -0.00000000000E+00 -0.49433659664E+03  0.49433659664E+03  0.00000000000E+00 0.  1.
         23    2    1    2    0    0 -0.46915817403E+03  0.50249802403E+02  0.16613967075E+03  0.50995159410E+03  0.99064641657E+02 0.  0.
         13    1    3    3    0    0 -0.28787600473E+03 -0.16385325522E+02  0.86517037332E+02  0.30104197505E+03  0.00000000000E+00 0. -1.
        -13    1    3    3    0    0 -0.18128216930E+03  0.66635127926E+02  0.79622633422E+02  0.20890961905E+03  0.00000000000E+00 0.  1.
         22    1    1    2    0    0  0.46915817403E+03 -0.50249802403E+02 -0.14980867325E+03  0.49505259668E+03  0.00000000000E+00 0.  1.
<mgrwt>
<rscale>  0 0.10048715E+04</rscale>
<asrwt>0</asrwt>
<pdfrwt beam="1">  1        2 0.78564246E-01 0.10048715E+04</pdfrwt>
<pdfrwt beam="2">  1       -2 0.76051784E-01 0.10048715E+04</pdfrwt>
<totfact> 0.92911680E+01</totfact>
</mgrwt>
</event>
<event>
 6    1  0.1885829E-005  0.1894220E+04  0.7818608E-02  0.8657739E-01
          2   -1    0    0  501    0  0.00000000000E+00  0.00000000000E+00  0.39976762916E+04  0.39976762916E+04  0.00000000000E+00 0. -1.
         -2   -1    0    0    0  501 -0.00000000000E+00 -0.00000000000E+00 -0.22438469554E+03  0.22438469554E+03  0.00000000000E+00 0.  1.
         23    2    1    2    0    0 -0.50100553718E+03 -0.81764964066E+01  0.36766429916E+04  0.37117528879E+04  0.91282035160E+02 0.  0.
         13    1    3    3    0    0 -0.65853525662E+02  0.29908784032E+02  0.48909875289E+03  0.49441764964E+03  0.00000000000E+00 0. -1.
        -13    1    3    3    0    0 -0.43515201151E+03 -0.38085280439E+02  0.31875442387E+04  0.32173352383E+04  0.00000000000E+00 0.  1.
         22    1    1    2    0    0  0.50100553718E+03  0.81764964066E+01  0.96648604455E+02  0.51030809921E+03  0.00000000000E+00 0.  1.
<mgrwt>
<rscale>  0 0.18942200E+04</rscale>
<asrwt>0</asrwt>
<pdfrwt beam="1">  1        2 0.61502707E+00 0.18942200E+04</pdfrwt>
<pdfrwt beam="2">  1       -2 0.34520725E-01 0.18942200E+04</pdfrwt>
<totfact> 0.25643640E+00</totfact>
</mgrwt>
</event>
<event>
 6    1  0.1885829E-005  0.2444128E+04  0.7818608E-02  0.8423165E-01
         -2   -1    0    0    0  501 -0.00000000000E+00  0.00000000000E+00  0.78577440983E+03  0.78577440983E+03  0.00000000000E+00 0.  1.
          2   -1    0    0  501    0  0.00000000000E+00 -0.00000000000E+00 -0.19005965332E+04  0.19005965332E+04  0.00000000000E+00 0. -1.
         23    2    1    2    0    0  0.15363763270E+03  0.63047341800E+03 -0.16942347225E+04  0.18164167988E+04  0.88529312077E+02 0.  0.
         13    1    3    3    0    0  0.14385423749E+03  0.44293498164E+03 -0.12601347815E+04  0.13434377943E+04  0.00000000000E+00 0. -1.
        -13    1    3    3    0    0  0.97833952034E+01  0.18753843636E+03 -0.43409994100E+03  0.47297900451E+03  0.00000000000E+00 0.  1.
         22    1    1    2    0    0 -0.15363763270E+03 -0.63047341800E+03  0.57941259914E+03  0.86995414421E+03  0.00000000000E+00 0.  1.
<mgrwt>
<rscale>  0 0.24441278E+04</rscale>
<asrwt>0</asrwt>
<pdfrwt beam="1">  1        2 0.29239947E+00 0.24441278E+04</pdfrwt>
<pdfrwt beam="2">  1       -2 0.12088837E+00 0.24441278E+04</pdfrwt>
<totfact> 0.35444355E+00</totfact>
</mgrwt>
</event>
<event>
 6    1  0.1885829E-005  0.1539315E+04  0.7818608E-02  0.8858721E-01
          2   -1    0    0  501    0  0.00000000000E+00  0.00000000000E+00  0.13345342772E+04  0.13345342772E+04  0.00000000000E+00 0. -1.
         -2   -1    0    0    0  501 -0.00000000000E+00 -0.00000000000E+00 -0.44387993433E+03  0.44387993433E+03  0.00000000000E+00 0.  1.
         23    2    1    2    0    0  0.59321218306E+03 -0.23639171078E+03 -0.43456794003E+02  0.64689074686E+03  0.93794511414E+02 0.  0.
         13    1    3    3    0    0  0.33866512603E+03 -0.90046296609E+02 -0.44696715901E+02  0.35327071707E+03  0.00000000000E+00 0. -1.
        -13    1    3    3    0    0  0.25454705703E+03 -0.14634541417E+03  0.12399218977E+01  0.29362002980E+03  0.00000000000E+00 0.  1.
         22    1    1    2    0    0 -0.59321218306E+03  0.23639171078E+03  0.93411113685E+03  0.11315234646E+04  0.00000000000E+00 0. -1.
<mgrwt>
<rscale>  0 0.15393154E+04</rscale>
<asrwt>0</asrwt>
<pdfrwt beam="1">  1        2 0.20531296E+00 0.15393154E+04</pdfrwt>
<pdfrwt beam="2">  1       -2 0.68289221E-01 0.15393154E+04</pdfrwt>
<totfact> 0.29832653E+01</totfact>
</mgrwt>
</event>
<event>
 6    1  0.1885829E-005  0.4190253E+04  0.7818608E-02  0.7967229E-01
         -2   -1    0    0    0  501 -0.00000000000E+00  0.00000000000E+00  0.17536686491E+04  0.17536686491E+04  0.00000000000E+00 0.  1.
          2   -1    0    0  501    0  0.00000000000E+00 -0.00000000000E+00 -0.25030693132E+04  0.25030693132E+04  0.00000000000E+00 0. -1.
         23    2    1    2    0    0  0.17685837151E+04  0.11036147350E+04 -0.17448103987E+03  0.20942425485E+04  0.97746498041E+02 0.  0.
         11    1    3    3    0    0  0.11627846592E+04  0.67076373614E+03 -0.10685582390E+03  0.13466292439E+04  0.00000000000E+00 0. -1.
        -11    1    3    3    0    0  0.60579905595E+03  0.43285099884E+03 -0.67625215970E+02  0.74761330460E+03  0.00000000000E+00 0.  1.
         22    1    1    2    0    0 -0.17685837151E+04 -0.11036147350E+04 -0.57491962422E+03  0.21624954139E+04  0.00000000000E+00 0. -1.
<mgrwt>
<rscale>  0 0.41902526E+04</rscale>
<asrwt>0</asrwt>
<pdfrwt beam="1">  1        2 0.38508759E+00 0.41902526E+04</pdfrwt>
<pdfrwt beam="2">  1       -2 0.26979518E+00 0.41902526E+04</pdfrwt>
<totfact> 0.13091541E-01</totfact>
</mgrwt>
</event>
<event>
 6    1  0.1885829E-005  0.3927649E+04  0.7818608E-02  0.8019303E-01
          2   -1    0    0  501    0  0.00000000000E+00  0.00000000000E+00  0.36999731224E+04  0.36999731224E+04  0.00000000000E+00 0. -1.
         -2   -1    0    0    0  501 -0.00000000000E+00 -0.00000000000E+00 -0.10423335822E+04  0.10423335822E+04  0.00000000000E+00 0.  1.
         23    2    1    2    0    0 -0.15551798239E+04  0.11777384628E+04  0.15910078896E+04  0.25189409567E+04  0.90029255774E+02 0.  0.
         11    1    3    3    0    0 -0.84250396127E+03  0.58267048008E+03  0.84565696711E+03  0.13283273389E+04  0.00000000000E+00 0.  1.
        -11    1    3    3    0    0 -0.71267586262E+03  0.59506798275E+03  0.74535092248E+03  0.11906136178E+04  0.00000000000E+00 0. -1.
         22    1    1    2    0    0  0.15551798239E+04 -0.11777384628E+04  0.10666316506E+04  0.22233657480E+04  0.00000000000E+00 0.  1.
<mgrwt>
<rscale>  0 0.39276488E+04</rscale>
<asrwt>0</asrwt>
<pdfrwt beam="1">  1        2 0.56922663E+00 0.39276488E+04</pdfrwt>
<pdfrwt beam="2">  1       -2 0.16035901E+00 0.39276488E+04</pdfrwt>
<totfact> 0.11567814E-01</totfact>
</mgrwt>
</event>
<event>
 6    1  0.1885829E-005  0.3402875E+04  0.7818608E-02  0.8137201E-01
         -1   -1    0    0    0  501 -0.00000000000E+00  0.00000000000E+00  0.16379772925E+04  0.16379772925E+04  0.00000000000E+00 0.  1.
          1   -1    0    0  501    0  0.00000000000E+00 -0.00000000000E+00 -0.17673568069E+04  0.17673568069E+04  0.00000000000E+00 0. -1.
         23    2    1    2    0    0 -0.15578904530E+04 -0.16047764141E+02 -0.74602960938E+03  0.17297632911E+04  0.90778139840E+02 0.  0.
         11    1    3    3    0    0 -0.90882929115E+03  0.29282347553E+02 -0.40977597023E+03  0.99736877939E+03  0.00000000000E+00 0.  1.
        -11    1    3    3    0    0 -0.64906116188E+03 -0.45330111695E+02 -0.33625363915E+03  0.73239451168E+03  0.00000000000E+00 0. -1.
         22    1    1    2    0    0  0.15578904530E+04  0.16047764141E+02  0.61665009498E+03  0.16755708084E+04  0.00000000000E+00 0.  1.
<mgrwt>
<rscale>  0 0.34028754E+04</rscale>
<asrwt>0</asrwt>
<pdfrwt beam="1">  1        1 0.27190104E+00 0.34028754E+04</pdfrwt>
<pdfrwt beam="2">  1       -1 0.25199651E+00 0.34028754E+04</pdfrwt>
<totfact> 0.23861255E-01</totfact>
</mgrwt>
</event>
<event>
 6    1  0.1885829E-005  0.1242374E+04  0.7818608E-02  0.9076554E-01
          2   -1    0    0  501    0  0.00000000000E+00  0.00000000000E+00  0.10999399900E+04  0.10999399900E+04  0.00000000000E+00 0. -1.
         -2   -1    0    0    0  501 -0.00000000000E+00 -0.00000000000E+00 -0.35081310150E+03  0.35081310150E+03  0.00000000000E+00 0.  1.
         23    2    1    2    0    0 -0.17303865261E+03  0.52345458518E+03  0.70063787728E+03  0.89731089733E+03  0.10161856787E+03 0.  0.
         13    1    3    3    0    0 -0.41970319355E+02  0.28304177361E+03  0.37951141690E+03  0.47529261395E+03  0.00000000000E+00 0. -1.
        -13    1    3    3    0    0 -0.13106833325E+03  0.24041281157E+03  0.32112646038E+03  0.42201828338E+03  0.00000000000E+00 0.  1.
         22    1    1    2    0    0  0.17303865261E+03 -0.52345458518E+03  0.48489011173E+02  0.55344219413E+03  0.00000000000E+00 0. -1.
<mgrwt>
<rscale>  0 0.12423741E+04</rscale>
<asrwt>0</asrwt>
<pdfrwt beam="1">  1        2 0.16922154E+00 0.12423741E+04</pdfrwt>
<pdfrwt beam="2">  1       -2 0.53971247E-01 0.12423741E+04</pdfrwt>
<totfact> 0.69314949E+01</totfact>
</mgrwt>
</event>
<event>
 6    1  0.1885829E-005  0.1954642E+04  0.7818608E-02  0.8628125E-01
          2   -1    0    0  501    0  0.00000000000E+00  0.00000000000E+00  0.18164501356E+04  0.18164501356E+04  0.00000000000E+00 0. -1.
         -2   -1    0    0    0  501 -0.00000000000E+00 -0.00000000000E+00 -0.52583703506E+03  0.52583703506E+03  0.00000000000E+00 0.  1.
         23    2    1    2    0    0 -0.73328950636E+01 -0.58320670642E+03 -0.28954870792E+03  0.65791928488E+03  0.93997326599E+02 0.  0.
         13    1    3    3    0    0 -0.36081820984E+01 -0.37917519459E+03 -0.13717332779E+03  0.40324108053E+03  0.00000000000E+00 0. -1.
        -13    1    3    3    0    0 -0.37247129652E+01 -0.20403151183E+03 -0.15237538012E+03  0.25467820435E+03  0.00000000000E+00 0.  1.
         22    1    1    2    0    0  0.73328950636E+01  0.58320670642E+03  0.15801618085E+04  0.16843678858E+04  0.00000000000E+00 0. -1.
<mgrwt>
<rscale>  0 0.19546424E+04</rscale>
<asrwt>0</asrwt>
<pdfrwt beam="1">  1        2 0.27945386E+00 0.19546424E+04</pdfrwt>
<pdfrwt beam="2">  1       -2 0.80898007E-01 0.19546424E+04</pdfrwt>
<totfact> 0.10619215E+01</totfact>
</mgrwt>
</event>
<event>
 6    1  0.1885829E-005  0.8236508E+03  0.7818608E-02  0.9526401E-01
         -2   -1    0    0    0  501 -0.00000000000E+00  0.00000000000E+00  0.81364321973E+02  0.81364321973E+02  0.00000000000E+00 0.  1.
          2   -1    0    0  501    0  0.00000000000E+00 -0.00000000000E+00 -0.20844535062E+04  0.20844535062E+04  0.00000000000E+00 0. -1.
         23    2    1    2    0    0 -0.22522524667E+03  0.25432953722E+03 -0.42466900731E+03  0.55125281550E+03  0.90144193324E+02 0.  0.
         11    1    3    3    0    0 -0.53074880745E+02  0.73273455577E+02 -0.57689237551E+02  0.10730326364E+03  0.00000000000E+00 0. -1.
        -11    1    3    3    0    0 -0.17215036593E+03  0.18105608164E+03 -0.36697976975E+03  0.44394955186E+03  0.00000000000E+00 0.  1.
         22    1    1    2    0    0  0.22522524667E+03 -0.25432953722E+03 -0.15784201769E+04  0.16145650127E+04  0.00000000000E+00 0. -1.
<mgrwt>
<rscale>  0 0.82365077E+03</rscale>
<asrwt>0</asrwt>
<pdfrwt beam="1">  1        2 0.32068517E+00 0.82365077E+03</pdfrwt>
<pdfrwt beam="2">  1       -2 0.12517587E-01 0.82365077E+03</pdfrwt>
<totfact> 0.29010103E+02</totfact>
</mgrwt>
</event>
<event>
 6    1  0.1885829E-005  0.9974268E+03  0.7818608E-02  0.9311372E-01
          2   -1    0    0  501    0  0.00000000000E+00  0.00000000000E+00  0.28118513728E+04  0.28118513728E+04  0.00000000000E+00 0. -1.
         -2   -1    0    0    0  501 -0.00000000000E+00 -0.00000000000E+00 -0.88452417731E+02  0.88452417731E+02  0.00000000000E+00 0.  1.
         23    2    1    2    0    0  0.18835389877E+03  0.23705034801E+01  0.27026115331E+04  0.27107914496E+04  0.93799647097E+02 0.  0.
         13    1    3    3    0    0  0.15168530493E+03  0.27898965074E+02  0.23939427156E+04  0.23989056900E+04  0.00000000000E+00 0. -1.
        -13    1    3    3    0    0  0.36668593844E+02 -0.25528461593E+02  0.30866881754E+03  0.31188575961E+03  0.00000000000E+00 0.  1.
         22    1    1    2    0    0 -0.18835389877E+03 -0.23705034801E+01  0.20787421992E+02  0.18951234097E+03  0.00000000000E+00 0.  1.
<mgrwt>
<rscale>  0 0.99742679E+03</rscale>
<asrwt>0</asrwt>
<pdfrwt beam="1">  1        2 0.43259245E+00 0.99742679E+03</pdfrwt>
<pdfrwt beam="2">  1       -2 0.13608066E-01 0.99742679E+03</pdfrwt>
<totfact> 0.95837056E+01</totfact>
</mgrwt>
</event>
<event>
 6    1  0.1885829E-005  0.2488599E+04  0.7818608E-02  0.8407058E-01
          2   -1    0    0  501    0  0.00000000000E+00  0.00000000000E+00  0.24097732968E+04  0.24097732968E+04  0.00000000000E+00 0. -1.
         -2   -1    0    0    0  501 -0.00000000000E+00 -0.00000000000E+00 -0.64250104522E+03  0.64250104522E+03  0.00000000000E+00 0.  1.
         23    2    1    2    0    0  0.12345264193E+04  0.80045312493E+02  0.74543976199E+03  0.14477169673E+04  0.98697754863E+02 0.  0.
         11    1    3    3    0    0  0.52600575890E+03 -0.14765180725E+02  0.31539003335E+03  0.61349078404E+03  0.00000000000E+00 0.  1.
        -11    1    3    3    0    0  0.70852066036E+03  0.94810493218E+02  0.43004972864E+03  0.83422618329E+03  0.00000000000E+00 0. -1.
         22    1    1    2    0    0 -0.12345264193E+04 -0.80045312493E+02  0.10218324896E+04  0.16045573747E+04  0.00000000000E+00 0. -1.
<mgrwt>
<rscale>  0 0.24885995E+04</rscale>
<asrwt>0</asrwt>
<pdfrwt beam="1">  1        2 0.37073435E+00 0.24885995E+04</pdfrwt>
<pdfrwt beam="2">  1       -2 0.98846316E-01 0.24885995E+04</pdfrwt>
<totfact> 0.29739309E+00</totfact>
</mgrwt>
</event>
<event>
 6    1  0.2117358E-005  0.4001063E+04  0.7818608E-02  0.8004332E-01
         -1   -1    0    0    0  501 -0.00000000000E+00  0.00000000000E+00  0.15369067482E+04  0.15369067482E+04  0.00000000000E+00 0.  1.
          1   -1    0    0  501    0  0.00000000000E+00 -0.00000000000E+00 -0.26040136421E+04  0.26040136421E+04  0.00000000000E+00 0. -1.
         23    2    1    2    0    0  0.77303231955E+03 -0.64191156128E+03 -0.23229753672E+04  0.25325563017E+04  0.89428434660E+02 0.  0.
         11    1    3    3    0    0  0.53307593740E+03 -0.44282009500E+03 -0.14947494638E+04  0.16475847630E+04  0.00000000000E+00 0.  1.
        -11    1    3    3    0    0  0.23995638215E+03 -0.19909146628E+03 -0.82822590340E+03  0.88497153872E+03  0.00000000000E+00 0. -1.
         22    1    1    2    0    0 -0.77303231955E+03  0.64191156128E+03  0.12558684733E+04  0.16083640887E+04  0.00000000000E+00 0.  1.
<mgrwt>
<rscale>  0 0.40010629E+04</rscale>
<asrwt>0</asrwt>
<pdfrwt beam="1">  1        1 0.40061748E+00 0.40010629E+04</pdfrwt>
<pdfrwt beam="2">  1       -1 0.23644719E+00 0.40010629E+04</pdfrwt>
<totfact> 0.76757634E-02</totfact>
</mgrwt>
</event>
<event>
 6    1  0.1885829E-005  0.5511187E+03  0.7818608E-02  0.1001235E+00
         -2   -1    0    0    0  501 -0.00000000000E+00  0.00000000000E+00  0.58255251236E+02  0.58255251236E+02  0.00000000000E+00 0.  1.
          2   -1    0    0  501    0  0.00000000000E+00 -0.00000000000E+00 -0.13034526803E+04  0.13034526803E+04  0.00000000000E+00 0. -1.
         23    2    1    2    0    0  0.18957179276E+03  0.79233683930E+02 -0.21532238828E+03  0.31153744970E+03  0.92067423078E+02 0.  0.
         13    1    3    3    0    0  0.10881009851E+03  0.90030008793E+02 -0.11386387287E+03  0.18141119470E+03  0.00000000000E+00 0.  1.
        -13    1    3    3    0    0  0.80761694256E+02 -0.10796324863E+02 -0.10145851541E+03  0.13012625500E+03  0.00000000000E+00 0. -1.
         22    1    1    2    0    0 -0.18957179276E+03 -0.79233683930E+02 -0.10298750408E+04  0.10501704818E+04  0.00000000000E+00 0.  1.
<mgrwt>
<rscale>  0 0.55111873E+03</rscale>
<asrwt>0</asrwt>
<pdfrwt beam="1">  1        2 0.20053118E+00 0.55111873E+03</pdfrwt>
<pdfrwt beam="2">  1       -2 0.89623464E-02 0.55111873E+03</pdfrwt>
<totfact> 0.13683500E+03</totfact>
</mgrwt>
</event>
<event>
 6    1  0.1885829E-005  0.2233751E+04  0.7818608E-02  0.8504510E-01
         -2   -1    0    0    0  501 -0.00000000000E+00  0.00000000000E+00  0.33416292061E+03  0.33416292061E+03  0.00000000000E+00 0.  1.
          2   -1    0    0  501    0  0.00000000000E+00 -0.00000000000E+00 -0.37329431513E+04  0.37329431513E+04  0.00000000000E+00 0. -1.
         23    2    1    2    0    0 -0.76443293601E+03 -0.80723107259E+03 -0.15485533204E+04  0.19085604185E+04  0.92767272341E+02 0.  0.
         13    1    3    3    0    0 -0.41199659300E+03 -0.49335470444E+03 -0.93076678347E+03  0.11311352095E+04  0.00000000000E+00 0.  1.
        -13    1    3    3    0    0 -0.35243634302E+03 -0.31387636814E+03 -0.61778653691E+03  0.77742520897E+03  0.00000000000E+00 0. -1.
         22    1    1    2    0    0  0.76443293601E+03  0.80723107259E+03 -0.18502269103E+04  0.21585456534E+04  0.00000000000E+00 0. -1.
<mgrwt>
<rscale>  0 0.22337513E+04</rscale>
<asrwt>0</asrwt>
<pdfrwt beam="1">  1        2 0.57429895E+00 0.22337513E+04</pdfrwt>
<pdfrwt beam="2">  1       -2 0.51409680E-01 0.22337513E+04</pdfrwt>
<totfact> 0.18061340E+00</totfact>
</mgrwt>
</event>
<event>
 6    1  0.1885829E-005  0.4797182E+04  0.7818608E-02  0.7860579E-01
          2   -1    0    0  501    0  0.00000000000E+00  0.00000000000E+00  0.20957173944E+04  0.20957173944E+04  0.00000000000E+00 0.  1.
         -2   -1    0    0    0  501 -0.00000000000E+00 -0.00000000000E+00 -0.27452361207E+04  0.27452361207E+04  0.00000000000E+00 0. -1.
         23    2    1    2    0    0  0.19116781490E+04 -0.46764314799E+03  0.10572542119E+04  0.22359050852E+04  0.91003419643E+02 0.  0.
         13    1    3    3    0    0  0.12904873107E+03 -0.11910487263E+02  0.83412948581E+02  0.15412058490E+03  0.00000000000E+00 0. -1.
        -13    1    3    3    0    0  0.17826294179E+04 -0.45573266073E+03  0.97384126334E+03  0.20817845004E+04  0.00000000000E+00 0.  1.
         22    1    1    2    0    0 -0.19116781490E+04  0.46764314799E+03 -0.17067729382E+04  0.26050484298E+04  0.00000000000E+00 0. -1.
<mgrwt>
<rscale>  0 0.47971821E+04</rscale>
<asrwt>0</asrwt>
<pdfrwt beam="1">  1        2 0.32241806E+00 0.47971821E+04</pdfrwt>
<pdfrwt beam="2">  1       -2 0.42234402E+00 0.47971821E+04</pdfrwt>
<totfact> 0.23151180E-02</totfact>
</mgrwt>
</event>
<event>
 6    1  0.1885829E-005  0.2476964E+04  0.7818608E-02  0.8411239E-01
         -2   -1    0    0    0  501 -0.00000000000E+00  0.00000000000E+00  0.12017851321E+04  0.12017851321E+04  0.00000000000E+00 0.  1.
          2   -1    0    0  501    0  0.00000000000E+00 -0.00000000000E+00 -0.12762989250E+04  0.12762989250E+04  0.00000000000E+00 0. -1.
         23    2    1    2    0    0  0.51063381183E+03  0.49823537542E+03  0.97386736471E+03  0.12099797906E+04  0.81535701332E+02 0.  0.
         11    1    3    3    0    0  0.81969401519E+02  0.11027318281E+03  0.22904418100E+03  0.26709622701E+03  0.00000000000E+00 0.  1.
        -11    1    3    3    0    0  0.42866441031E+03  0.38796219261E+03  0.74482318370E+03  0.94288356362E+03  0.00000000000E+00 0. -1.
         22    1    1    2    0    0 -0.51063381183E+03 -0.49823537542E+03 -0.10483811576E+04  0.12681042665E+04  0.00000000000E+00 0. -1.
<mgrwt>
<rscale>  0 0.24769635E+04</rscale>
<asrwt>0</asrwt>
<pdfrwt beam="1">  1        2 0.19635368E+00 0.24769635E+04</pdfrwt>
<pdfrwt beam="2">  1       -2 0.18489002E+00 0.24769635E+04</pdfrwt>
<totfact> 0.25599548E+00</totfact>
</mgrwt>
</event>
<event>
 6    1  0.1885829E-005  0.1598479E+04  0.7818608E-02  0.8821483E-01
          2   -1    0    0  501    0  0.00000000000E+00  0.00000000000E+00  0.11352019059E+04  0.11352019059E+04  0.00000000000E+00 0.  1.
         -2   -1    0    0    0  501 -0.00000000000E+00 -0.00000000000E+00 -0.56270493823E+03  0.56270493823E+03  0.00000000000E+00 0. -1.
         23    2    1    2    0    0 -0.15132522681E+03  0.26562752847E+03  0.10686196320E+04  0.11151590374E+04  0.90412679997E+02 0.  0.
         13    1    3    3    0    0 -0.10469460899E+03  0.19878064773E+03  0.90357374966E+03  0.93108551064E+03  0.00000000000E+00 0. -1.
        -13    1    3    3    0    0 -0.46630617821E+02  0.66846880740E+02  0.16504588235E+03  0.18407352679E+03  0.00000000000E+00 0.  1.
         22    1    1    2    0    0  0.15132522681E+03 -0.26562752847E+03 -0.49612266434E+03  0.58274780670E+03  0.00000000000E+00 0. -1.
<mgrwt>
<rscale>  0 0.15984789E+04</rscale>
<asrwt>0</asrwt>
<pdfrwt beam="1">  1        2 0.17464645E+00 0.15984789E+04</pdfrwt>
<pdfrwt beam="2">  1       -2 0.86569990E-01 0.15984789E+04</pdfrwt>
<totfact> 0.22975970E+01</totfact>
</mgrwt>
</event>
<event>
 6    1  0.1885829E-005  0.1724425E+04  0.7818608E-02  0.8747555E-01
          2   -1    0    0  501    0  0.00000000000E+00  0.00000000000E+00  0.18042665257E+04  0.18042665257E+04  0.00000000000E+00 0. -1.
         -2   -1    0    0    0  501 -0.00000000000E+00 -0.00000000000E+00 -0.41202918992E+03  0.41202918992E+03  0.00000000000E+00 0.  1.
         23    2    1    2    0    0 -0.43950481057E+03  0.19932671737E+03 -0.21662895425E+03  0.53660932883E+03  0.90143492254E+02 0.  0.
         13    1    3    3    0    0 -0.12889348096E+03  0.56442745982E+02 -0.19787029602E+02  0.14209447403E+03  0.00000000000E+00 0. -1.
        -13    1    3    3    0    0 -0.31061132961E+03  0.14288397138E+03 -0.19684192465E+03  0.39451485480E+03  0.00000000000E+00 0.  1.
         22    1    1    2    0    0  0.43950481057E+03 -0.19932671737E+03  0.16088662900E+04  0.16796863868E+04  0.00000000000E+00 0. -1.
<mgrwt>
<rscale>  0 0.17244251E+04</rscale>
<asrwt>0</asrwt>
<pdfrwt beam="1">  1        2 0.27757946E+00 0.17244251E+04</pdfrwt>
<pdfrwt beam="2">  1       -2 0.63389107E-01 0.17244251E+04</pdfrwt>
<totfact> 0.18776895E+01</totfact>
</mgrwt>
</event>
<event>
 6    1  0.1885829E-005  0.1522409E+04  0.7818608E-02  0.8869687E-01
          2   -1    0    0  501    0  0.00000000000E+00  0.00000000000E+00  0.96070606454E+03  0.96070606454E+03  0.00000000000E+00 0. -1.
         -2   -1    0    0    0  501 -0.00000000000E+00 -0.00000000000E+00 -0.60313145802E+03  0.60313145802E+03  0.00000000000E+00 0.  1.
         23    2    1    2    0    0  0.37992934780E+03  0.14837322694E+03  0.83626363409E+03  0.93494634843E+03  0.91798066213E+02 0.  0.
         13    1    3    3    0    0  0.27058413426E+03  0.59772938924E+02  0.53967463448E+03  0.60666076933E+03  0.00000000000E+00 0. -1.
        -13    1    3    3    0    0  0.10934521354E+03  0.88600288014E+02  0.29658899961E+03  0.32828557911E+03  0.00000000000E+00 0.  1.
         22    1    1    2    0    0 -0.37992934780E+03 -0.14837322694E+03 -0.47868902757E+03  0.62889117413E+03  0.00000000000E+00 0.  1.
<mgrwt>
<rscale>  0 0.15224087E+04</rscale>
<asrwt>0</asrwt>
<pdfrwt beam="1">  1        2 0.14780093E+00 0.15224087E+04</pdfrwt>
<pdfrwt beam="2">  1       -2 0.92789455E-01 0.15224087E+04</pdfrwt>
<totfact> 0.25376856E+01</totfact>
</mgrwt>
</event>
<event>
 6    1  0.1885829E-005  0.4169050E+04  0.7818608E-02  0.7971286E-01
         -1   -1    0    0    0  501 -0.00000000000E+00  0.00000000000E+00  0.17552387722E+04  0.17552387722E+04  0.00000000000E+00 0.  1.
          1   -1    0    0  501    0  0.00000000000E+00 -0.00000000000E+00 -0.24755856988E+04  0.24755856988E+04  0.00000000000E+00 0. -1.
         23    2    1    2    0    0  0.16640001680E+04  0.11715607403E+04  0.93138214081E+02  0.20392019666E+04  0.90657633891E+02 0.  0.
         11    1    3    3    0    0  0.81005156695E+03  0.62422572349E+03  0.57373595353E+02  0.10242719485E+04  0.00000000000E+00 0.  1.
        -11    1    3    3    0    0  0.85394860104E+03  0.54733501681E+03  0.35764618728E+02  0.10149300182E+04  0.00000000000E+00 0. -1.
         22    1    1    2    0    0 -0.16640001680E+04 -0.11715607403E+04 -0.81348514067E+03  0.21916225043E+04  0.00000000000E+00 0. -1.
<mgrwt>
<rscale>  0 0.41690498E+04</rscale>
<asrwt>0</asrwt>
<pdfrwt beam="1">  1        1 0.38085934E+00 0.41690498E+04</pdfrwt>
<pdfrwt beam="2">  1       -1 0.27003674E+00 0.41690498E+04</pdfrwt>
<totfact> 0.56153987E-02</totfact>
</mgrwt>
</event>
<event>
 6    1  0.1885829E-005  0.1664227E+04  0.7818608E-02  0.8782034E-01
          2   -1    0    0  501    0  0.00000000000E+00  0.00000000000E+00  0.24269195495E+04  0.24269195495E+04  0.00000000000E+00 0. -1.
         -2   -1    0    0    0  501 -0.00000000000E+00 -0.00000000000E+00 -0.28530513054E+03  0.28530513054E+03  0.00000000000E+00 0.  1.
         23    2    1    2    0    0 -0.55638712896E+03 -0.59798777647E+01  0.20768581780E+04  0.21520499154E+04  0.91523497710E+02 0.  0.
         13    1    3    3    0    0 -0.19200780030E+03 -0.11396240579E+02  0.56311187094E+03  0.59505617287E+03  0.00000000000E+00 0.  1.
        -13    1    3    3    0    0 -0.36437932866E+03  0.54163628143E+01  0.15137463071E+04  0.15569937426E+04  0.00000000000E+00 0. -1.
         22    1    1    2    0    0  0.55638712896E+03  0.59798777647E+01  0.64756240982E+02  0.56017476466E+03  0.00000000000E+00 0.  1.
<mgrwt>
<rscale>  0 0.16642267E+04</rscale>
<asrwt>0</asrwt>
<pdfrwt beam="1">  1        2 0.37337223E+00 0.16642267E+04</pdfrwt>
<pdfrwt beam="2">  1       -2 0.43893098E-01 0.16642267E+04</pdfrwt>
<totfact> 0.18045157E+01</totfact>
</mgrwt>
</event>
<event>
 6    1  0.1885829E-005  0.1247313E+04  0.7818608E-02  0.9072422E-01
         -4   -1    0    0    0  501 -0.00000000000E+00  0.00000000000E+00  0.92652515585E+03  0.92652515585E+03  0.00000000000E+00 0.  1.
          4   -1    0    0  501    0  0.00000000000E+00 -0.00000000000E+00 -0.41979179378E+03  0.41979179378E+03  0.00000000000E+00 0. -1.
         23    2    1    2    0    0  0.44051654479E+03  0.34281908396E+03  0.54672402258E+03  0.78669296560E+03  0.91645592897E+02 0.  0.
         11    1    3    3    0    0  0.20039947653E+03  0.13690662073E+03  0.17857984242E+03  0.30132064834E+03  0.00000000000E+00 0.  1.
        -11    1    3    3    0    0  0.24011706826E+03  0.20591246323E+03  0.36814418015E+03  0.48537231726E+03  0.00000000000E+00 0. -1.
         22    1    1    2    0    0 -0.44051654479E+03 -0.34281908396E+03 -0.39990660508E+02  0.55962398402E+03  0.00000000000E+00 0. -1.
<mgrwt>
<rscale>  0 0.12473134E+04</rscale>
<asrwt>0</asrwt>
<pdfrwt beam="1">  1        4 0.64583353E-01 0.12473134E+04</pdfrwt>
<pdfrwt beam="2">  1       -4 0.14254233E+00 0.12473134E+04</pdfrwt>
<totfact> 0.14956531E+00</totfact>
</mgrwt>
</event>
<event>
 6    1  0.1885829E-005  0.2036131E+04  0.7818608E-02  0.8589912E-01
          1   -1    0    0  501    0  0.00000000000E+00  0.00000000000E+00  0.10946310604E+04  0.10946310604E+04  0.00000000000E+00 0. -1.
         -1   -1    0    0    0  501 -0.00000000000E+00 -0.00000000000E+00 -0.94685510055E+03  0.94685510055E+03  0.00000000000E+00 0.  1.
         23    2    1    2    0    0  0.20341109392E+03 -0.78648547907E+03 -0.53794429926E+03  0.97840208354E+03  0.89168862548E+02 0.  0.
         11    1    3    3    0    0  0.30284958985E+02 -0.18736877978E+03 -0.86852099404E+02  0.20872835349E+03  0.00000000000E+00 0. -1.
        -11    1    3    3    0    0  0.17312613493E+03 -0.59911669929E+03 -0.45109219985E+03  0.76967373005E+03  0.00000000000E+00 0.  1.
         22    1    1    2    0    0 -0.20341109392E+03  0.78648547907E+03  0.68572025913E+03  0.10630840774E+04  0.00000000000E+00 0. -1.
<mgrwt>
<rscale>  0 0.20361306E+04</rscale>
<asrwt>0</asrwt>
<pdfrwt beam="1">  1        1 0.16840478E+00 0.20361306E+04</pdfrwt>
<pdfrwt beam="2">  1       -1 0.14567001E+00 0.20361306E+04</pdfrwt>
<totfact> 0.44670952E+00</totfact>
</mgrwt>
</event>
<event>
 6    1  0.1885829E-005  0.5011115E+03  0.7818608E-02  0.1013489E+00
          2   -1    0    0  501    0  0.00000000000E+00  0.00000000000E+00  0.22991415104E+03  0.22991415104E+03  0.00000000000E+00 0. -1.
         -2   -1    0    0    0  501 -0.00000000000E+00 -0.00000000000E+00 -0.27305052696E+03  0.27305052696E+03  0.00000000000E+00 0.  1.
         23    2    1    2    0    0 -0.22361032568E+02 -0.13140639238E+03 -0.22547834960E+03  0.27709690452E+03  0.90413232563E+02 0.  0.
         11    1    3    3    0    0 -0.54231893816E+01 -0.14460433101E+02 -0.11268920326E+03  0.11374256740E+03  0.00000000000E+00 0. -1.
        -11    1    3    3    0    0 -0.16937843187E+02 -0.11694595928E+03 -0.11278914634E+03  0.16335433711E+03  0.00000000000E+00 0.  1.
         22    1    1    2    0    0  0.22361032568E+02  0.13140639238E+03  0.18234197367E+03  0.22586777348E+03  0.00000000000E+00 0. -1.
<mgrwt>
<rscale>  0 0.50111148E+03</rscale>
<asrwt>0</asrwt>
<pdfrwt beam="1">  1        2 0.35371408E-01 0.50111148E+03</pdfrwt>
<pdfrwt beam="2">  1       -2 0.42007773E-01 0.50111148E+03</pdfrwt>
<totfact> 0.79705870E+02</totfact>
</mgrwt>
</event>
<event>
 6    1  0.1885829E-005  0.4208279E+04  0.7818608E-02  0.7963799E-01
         -1   -1    0    0    0  501 -0.00000000000E+00  0.00000000000E+00  0.15871867622E+04  0.15871867622E+04  0.00000000000E+00 0.  1.
          1   -1    0    0  501    0  0.00000000000E+00 -0.00000000000E+00 -0.27894658728E+04  0.27894658728E+04  0.00000000000E+00 0. -1.
         23    2    1    2    0    0  0.53119337922E+03  0.15463081450E+04 -0.19770350022E+04  0.25673759903E+04  0.97554038398E+02 0.  0.
         11    1    3    3    0    0  0.28357907514E+03  0.85250747098E+03 -0.10111540431E+04  0.13526339412E+04  0.00000000000E+00 0.  1.
        -11    1    3    3    0    0  0.24761430408E+03  0.69380067400E+03 -0.96588095908E+03  0.12147420491E+04  0.00000000000E+00 0. -1.
         22    1    1    2    0    0 -0.53119337922E+03 -0.15463081450E+04  0.77475589156E+03  0.18092766447E+04  0.00000000000E+00 0.  1.
<mgrwt>
<rscale>  0 0.42082791E+04</rscale>
<asrwt>0</asrwt>
<pdfrwt beam="1">  1        1 0.42914859E+00 0.42082791E+04</pdfrwt>
<pdfrwt beam="2">  1       -1 0.24418258E+00 0.42082791E+04</pdfrwt>
<totfact> 0.49650057E-02</totfact>
</mgrwt>
</event>
<event>
 6    1  0.1885829E-005  0.1708669E+04  0.7818608E-02  0.8756435E-01
          2   -1    0    0  501    0  0.00000000000E+00  0.00000000000E+00  0.40916836797E+04  0.40916836797E+04  0.00000000000E+00 0. -1.
         -2   -1    0    0    0  501 -0.00000000000E+00 -0.00000000000E+00 -0.17838321192E+03  0.17838321192E+03  0.00000000000E+00 0.  1.
         23    2    1    2    0    0  0.75320969927E+03  0.14159181415E+03  0.28955364180E+04  0.29960116519E+04  0.67687349561E+02 0.  0.
         11    1    3    3    0    0  0.19573611877E+03  0.43906641004E+02  0.87550246020E+03  0.89818983469E+03  0.00000000000E+00 0. -1.
        -11    1    3    3    0    0  0.55747358050E+03  0.97685173141E+02  0.20200339578E+04  0.20978218172E+04  0.00000000000E+00 0.  1.
         22    1    1    2    0    0 -0.75320969927E+03 -0.14159181415E+03  0.10177640497E+04  0.12740552397E+04  0.00000000000E+00 0.  1.
<mgrwt>
<rscale>  0 0.17086693E+04</rscale>
<asrwt>0</asrwt>
<pdfrwt beam="1">  1        2 0.62948973E+00 0.17086693E+04</pdfrwt>
<pdfrwt beam="2">  1       -2 0.27443574E-01 0.17086693E+04</pdfrwt>
<totfact> 0.33698761E+00</totfact>
</mgrwt>
</event>
<event>
 6    1  0.1885829E-005  0.1868478E+04  0.7818608E-02  0.8670708E-01
          2   -1    0    0  501    0  0.00000000000E+00  0.00000000000E+00  0.20667632208E+04  0.20667632208E+04  0.00000000000E+00 0. -1.
         -2   -1    0    0    0  501 -0.00000000000E+00 -0.00000000000E+00 -0.42230390562E+03  0.42230390562E+03  0.00000000000E+00 0.  1.
         23    2    1    2    0    0 -0.69183812077E+03 -0.12952912545E+03  0.16380507305E+04  0.17851787477E+04  0.90747924531E+02 0.  0.
         11    1    3    3    0    0 -0.23351156856E+03 -0.17740267746E+02  0.46007528876E+03  0.51624765479E+03  0.00000000000E+00 0.  1.
        -11    1    3    3    0    0 -0.45832655221E+03 -0.11178885770E+03  0.11779754418E+04  0.12689310929E+04  0.00000000000E+00 0. -1.
         22    1    1    2    0    0  0.69183812077E+03  0.12952912545E+03  0.64085846278E+01  0.70388837868E+03  0.00000000000E+00 0.  1.
<mgrwt>
<rscale>  0 0.18684776E+04</rscale>
<asrwt>0</asrwt>
<pdfrwt beam="1">  1        2 0.31796357E+00 0.18684776E+04</pdfrwt>
<pdfrwt beam="2">  1       -2 0.64969833E-01 0.18684776E+04</pdfrwt>
<totfact> 0.12583206E+01</totfact>
</mgrwt>
</event>
<event>
 6    1  0.1885829E-005  0.3555981E+04  0.7818608E-02  0.8100650E-01
         -2   -1    0    0    0  501 -0.00000000000E+00  0.00000000000E+00  0.23362827704E+04  0.23362827704E+04  0.00000000000E+00 0.  1.
          2   -1    0    0  501    0  0.00000000000E+00 -0.00000000000E+00 -0.13531109623E+04  0.13531109623E+04  0.00000000000E+00 0. -1.
         23    2    1    2    0    0  0.96419628923E+03 -0.12279948392E+04  0.13719850961E+04  0.20804121970E+04  0.90144308375E+02 0.  0.
         13    1    3    3    0    0  0.54001709450E+03 -0.62384245320E+03  0.69535517193E+03  0.10790350707E+04  0.00000000000E+00 0.  1.
        -13    1    3    3    0    0  0.42417919473E+03 -0.60415238603E+03  0.67662992412E+03  0.10013771263E+04  0.00000000000E+00 0. -1.
         22    1    1    2    0    0 -0.96419628923E+03  0.12279948392E+04 -0.38881328791E+03  0.16089815357E+04  0.00000000000E+00 0. -1.
<mgrwt>
<rscale>  0 0.35559808E+04</rscale>
<asrwt>0</asrwt>
<pdfrwt beam="1">  1        2 0.20817092E+00 0.35559808E+04</pdfrwt>
<pdfrwt beam="2">  1       -2 0.35942812E+00 0.35559808E+04</pdfrwt>
<totfact> 0.17071122E-01</totfact>
</mgrwt>
</event>
<event>
 6    1  0.1885829E-005  0.3347978E+04  0.7818608E-02  0.8150794E-01
         -2   -1    0    0    0  501 -0.00000000000E+00  0.00000000000E+00  0.78473253106E+03  0.78473253106E+03  0.00000000000E+00 0.  1.
          2   -1    0    0  501    0  0.00000000000E+00 -0.00000000000E+00 -0.35709477887E+04  0.35709477887E+04  0.00000000000E+00 0. -1.
         23    2    1    2    0    0  0.17607112735E+03  0.80218246802E+03 -0.32899959234E+04  0.33922008373E+04  0.91954286373E+02 0.  0.
         11    1    3    3    0    0  0.10737807769E+03  0.64273595094E+03 -0.25221823973E+04  0.26050035700E+04  0.00000000000E+00 0. -1.
        -11    1    3    3    0    0  0.68693049654E+02  0.15944651708E+03 -0.76781352609E+03  0.78719726735E+03  0.00000000000E+00 0.  1.
         22    1    1    2    0    0 -0.17607112735E+03 -0.80218246802E+03  0.50378066577E+03  0.96347948244E+03  0.00000000000E+00 0.  1.
<mgrwt>
<rscale>  0 0.33479778E+04</rscale>
<asrwt>0</asrwt>
<pdfrwt beam="1">  1        2 0.54937659E+00 0.33479778E+04</pdfrwt>
<pdfrwt beam="2">  1       -2 0.12072808E+00 0.33479778E+04</pdfrwt>
<totfact> 0.31468870E-01</totfact>
</mgrwt>
</event>
<event>
 6    1  0.1885829E-005  0.8154411E+04  0.7818608E-02  0.7468839E-01
         -2   -1    0    0    0  501 -0.00000000000E+00  0.00000000000E+00  0.43775468970E+04  0.43775468970E+04  0.00000000000E+00 0.  1.
          2   -1    0    0  501    0  0.00000000000E+00 -0.00000000000E+00 -0.37974705204E+04  0.37974705204E+04  0.00000000000E+00 0. -1.
         23    2    1    2    0    0  0.54364008268E+02 -0.16484021645E+04  0.40276652694E+04  0.43532306212E+04  0.91346469596E+02 0.  0.
         11    1    3    3    0    0  0.14436361653E+01 -0.62298912891E+02  0.11158079395E+03  0.12780262991E+03  0.00000000000E+00 0.  1.
        -11    1    3    3    0    0  0.52920372103E+02 -0.15861032516E+04  0.39160844755E+04  0.42254279913E+04  0.00000000000E+00 0. -1.
         22    1    1    2    0    0 -0.54364008268E+02  0.16484021645E+04 -0.34475888929E+04  0.38217867962E+04  0.00000000000E+00 0. -1.
<mgrwt>
<rscale>  0 0.81544111E+04</rscale>
<asrwt>0</asrwt>
<pdfrwt beam="1">  1        2 0.58422623E+00 0.81544111E+04</pdfrwt>
<pdfrwt beam="2">  1       -2 0.67346876E+00 0.81544111E+04</pdfrwt>
<totfact> 0.81796883E-05</totfact>
</mgrwt>
</event>
<event>
 6    1  0.1885829E-005  0.3166466E+04  0.7818608E-02  0.8197730E-01
         -2   -1    0    0    0  501 -0.00000000000E+00  0.00000000000E+00  0.72870491786E+03  0.72870491786E+03  0.00000000000E+00 0. -1.
          2   -1    0    0  501    0  0.00000000000E+00 -0.00000000000E+00 -0.34398367598E+04  0.34398367598E+04  0.00000000000E+00 0.  1.
         23    2    1    2    0    0 -0.35954994652E+03  0.63980739242E+03  0.48822804068E+03  0.88608325113E+03  0.90262089407E+02 0.  0.
         13    1    3    3    0    0 -0.26260761944E+03  0.37803178107E+03  0.30360909699E+03  0.55140663132E+03  0.00000000000E+00 0.  1.
        -13    1    3    3    0    0 -0.96942327081E+02  0.26177561135E+03  0.18461894369E+03  0.33467661981E+03  0.00000000000E+00 0. -1.
         22    1    1    2    0    0  0.35954994652E+03 -0.63980739242E+03 -0.31993598826E+04  0.32824584266E+04  0.00000000000E+00 0.  1.
<mgrwt>
<rscale>  0 0.31664655E+04</rscale>
<asrwt>0</asrwt>
<pdfrwt beam="1">  1        2 0.52920565E+00 0.31664655E+04</pdfrwt>
<pdfrwt beam="2">  1       -2 0.11210845E+00 0.31664655E+04</pdfrwt>
<totfact> 0.47370849E-01</totfact>
</mgrwt>
</event>
<event>
 6    1  0.1885829E-005  0.2328532E+04  0.7818608E-02  0.8466756E-01
          2   -1    0    0  501    0  0.00000000000E+00  0.00000000000E+00  0.21682261581E+04  0.21682261581E+04  0.00000000000E+00 0. -1.
         -2   -1    0    0    0  501 -0.00000000000E+00 -0.00000000000E+00 -0.62517236044E+03  0.62517236044E+03  0.00000000000E+00 0.  1.
         23    2    1    2    0    0  0.98667915234E+02  0.11052003388E+04  0.11885110413E+04  0.16285364183E+04  0.91483464775E+02 0.  0.
         13    1    3    3    0    0  0.23585402775E+02  0.62234840305E+03  0.71307093054E+03  0.94675443384E+03  0.00000000000E+00 0. -1.
        -13    1    3    3    0    0  0.75082512459E+02  0.48285193573E+03  0.47544011071E+03  0.68178198450E+03  0.00000000000E+00 0.  1.
         22    1    1    2    0    0 -0.98667915234E+02 -0.11052003388E+04  0.35454275640E+03  0.11648621002E+04  0.00000000000E+00 0.  1.
<mgrwt>
<rscale>  0 0.23285318E+04</rscale>
<asrwt>0</asrwt>
<pdfrwt beam="1">  1        2 0.33357325E+00 0.23285318E+04</pdfrwt>
<pdfrwt beam="2">  1       -2 0.96180364E-01 0.23285318E+04</pdfrwt>
<totfact> 0.44060746E+00</totfact>
</mgrwt>
</event>
<event>
 6    1  0.1885829E-005  0.2654848E+04  0.7818608E-02  0.8349806E-01
         -1   -1    0    0    0  501 -0.00000000000E+00  0.00000000000E+00  0.10082395189E+04  0.10082395189E+04  0.00000000000E+00 0.  1.
          1   -1    0    0  501    0  0.00000000000E+00 -0.00000000000E+00 -0.17476549530E+04  0.17476549530E+04  0.00000000000E+00 0. -1.
         23    2    1    2    0    0  0.16062307690E+03 -0.56715919495E+03 -0.16030160003E+04  0.17102964309E+04  0.89354682629E+02 0.  0.
         11    1    3    3    0    0  0.16885642686E+03 -0.48643027487E+03 -0.13714705354E+04  0.14649431166E+04  0.00000000000E+00 0. -1.
        -11    1    3    3    0    0 -0.82333499553E+01 -0.80728920082E+02 -0.23154546483E+03  0.24535331437E+03  0.00000000000E+00 0.  1.
         22    1    1    2    0    0 -0.16062307690E+03  0.56715919495E+03  0.86360056619E+03  0.10455980409E+04  0.00000000000E+00 0.  1.
<mgrwt>
<rscale>  0 0.26548482E+04</rscale>
<asrwt>0</asrwt>
<pdfrwt beam="1">  1        1 0.26886999E+00 0.26548482E+04</pdfrwt>
<pdfrwt beam="2">  1       -1 0.15511377E+00 0.26548482E+04</pdfrwt>
<totfact> 0.12345819E+00</totfact>
</mgrwt>
</event>
<event>
 6    1  0.1885829E-005  0.1344294E+04  0.7818608E-02  0.8995159E-01
         -2   -1    0    0    0  501 -0.00000000000E+00  0.00000000000E+00  0.33784322180E+03  0.33784322180E+03  0.00000000000E+00 0.  1.
          2   -1    0    0  501    0  0.00000000000E+00 -0.00000000000E+00 -0.13372524028E+04  0.13372524028E+04  0.00000000000E+00 0. -1.
         23    2    1    2    0    0 -0.12247304262E+03 -0.64027254375E+03 -0.69133849167E+03  0.95408513503E+03  0.85912504111E+02 0.  0.
         11    1    3    3    0    0 -0.47955171736E+02 -0.12767260376E+03 -0.18398024114E+03  0.22901685828E+03  0.00000000000E+00 0.  1.
        -11    1    3    3    0    0 -0.74517870885E+02 -0.51259993999E+03 -0.50735825053E+03  0.72506827675E+03  0.00000000000E+00 0. -1.
         22    1    1    2    0    0  0.12247304262E+03  0.64027254375E+03 -0.30807068931E+03  0.72101048956E+03  0.00000000000E+00 0.  1.
<mgrwt>
<rscale>  0 0.13442941E+04</rscale>
<asrwt>0</asrwt>
<pdfrwt beam="1">  1        2 0.20573114E+00 0.13442941E+04</pdfrwt>
<pdfrwt beam="2">  1       -2 0.51975881E-01 0.13442941E+04</pdfrwt>
<totfact> 0.53700280E+01</totfact>
</mgrwt>
</event>
<event>
 6    1  0.1885829E-005  0.2694003E+04  0.7818608E-02  0.8336953E-01
          2   -1    0    0  501    0  0.00000000000E+00  0.00000000000E+00  0.13223069190E+04  0.13223069190E+04  0.00000000000E+00 0. -1.
         -2   -1    0    0    0  501 -0.00000000000E+00 -0.00000000000E+00 -0.13721577256E+04  0.13721577256E+04  0.00000000000E+00 0.  1.
         23    2    1    2    0    0 -0.12493931550E+04  0.22692418720E+03 -0.47011028121E+03  0.13568937610E+04  0.87630814350E+02 0.  0.
         11    1    3    3    0    0 -0.33376348707E+03  0.94929547268E+02 -0.10750446753E+03  0.36327248008E+03  0.00000000000E+00 0. -1.
        -11    1    3    3    0    0 -0.91562966793E+03  0.13199463993E+03 -0.36260581368E+03  0.99362128091E+03  0.00000000000E+00 0.  1.
         22    1    1    2    0    0  0.12493931550E+04 -0.22692418720E+03  0.42025947462E+03  0.13375708835E+04  0.00000000000E+00 0.  1.
<mgrwt>
<rscale>  0 0.26940035E+04</rscale>
<asrwt>0</asrwt>
<pdfrwt beam="1">  1        2 0.20343184E+00 0.26940035E+04</pdfrwt>
<pdfrwt beam="2">  1       -2 0.21110119E+00 0.26940035E+04</pdfrwt>
<totfact> 0.15865072E+00</totfact>
</mgrwt>
</event>
<event>
 6    1  0.1885829E-005  0.2632300E+04  0.7818608E-02  0.8357312E-01
         -2   -1    0    0    0  501 -0.00000000000E+00  0.00000000000E+00  0.11942809059E+04  0.11942809059E+04  0.00000000000E+00 0. -1.
          2   -1    0    0  501    0  0.00000000000E+00 -0.00000000000E+00 -0.14504550605E+04  0.14504550605E+04  0.00000000000E+00 0.  1.
         23    2    1    2    0    0 -0.15223166190E+03  0.37667947549E+03  0.11278724545E+04  0.12022911938E+04  0.91356088146E+02 0.  0.
         11    1    3    3    0    0 -0.10706585908E+03  0.28973091414E+03  0.95343376778E+03  0.10022190630E+04  0.00000000000E+00 0. -1.
        -11    1    3    3    0    0 -0.45165802817E+02  0.86948561356E+02  0.17443868672E+03  0.20007213072E+03  0.00000000000E+00 0.  1.
         22    1    1    2    0    0  0.15223166190E+03 -0.37667947549E+03 -0.13840466091E+04  0.14424447727E+04  0.00000000000E+00 0.  1.
<mgrwt>
<rscale>  0 0.26323000E+04</rscale>
<asrwt>0</asrwt>
<pdfrwt beam="1">  1        2 0.22314693E+00 0.26323000E+04</pdfrwt>
<pdfrwt beam="2">  1       -2 0.18373553E+00 0.26323000E+04</pdfrwt>
<totfact> 0.20421431E+00</totfact>
</mgrwt>
</event>
<event>
 6    1  0.1885829E-005  0.1604647E+04  0.7818608E-02  0.8817698E-01
          1   -1    0    0  501    0  0.00000000000E+00  0.00000000000E+00  0.98028175728E+03  0.98028175728E+03  0.00000000000E+00 0. -1.
         -1   -1    0    0    0  501 -0.00000000000E+00 -0.00000000000E+00 -0.65667156541E+03  0.65667156541E+03  0.00000000000E+00 0.  1.
         23    2    1    2    0    0 -0.20474857073E+03 -0.17406899307E+03  0.93070884091E+03  0.97303257348E+03  0.91386273279E+02 0.  0.
         11    1    3    3    0    0 -0.13177376569E+03 -0.71917934270E+02  0.38887842519E+03  0.41684882652E+03  0.00000000000E+00 0.  1.
        -11    1    3    3    0    0 -0.72974805047E+02 -0.10215105880E+03  0.54183041572E+03  0.55618374697E+03  0.00000000000E+00 0. -1.
         22    1    1    2    0    0  0.20474857073E+03  0.17406899307E+03 -0.60709864904E+03  0.66392074921E+03  0.00000000000E+00 0.  1.
<mgrwt>
<rscale>  0 0.16046472E+04</rscale>
<asrwt>0</asrwt>
<pdfrwt beam="1">  1        1 0.15081258E+00 0.16046472E+04</pdfrwt>
<pdfrwt beam="2">  1       -1 0.10102640E+00 0.16046472E+04</pdfrwt>
<totfact> 0.14006327E+01</totfact>
</mgrwt>
</event>
<event>
 6    1  0.1885829E-005  0.3470429E+04  0.7818608E-02  0.8120834E-01
         -2   -1    0    0    0  501 -0.00000000000E+00  0.00000000000E+00  0.61199204746E+03  0.61199204746E+03  0.00000000000E+00 0.  1.
          2   -1    0    0  501    0  0.00000000000E+00 -0.00000000000E+00 -0.49199478852E+04  0.49199478852E+04  0.00000000000E+00 0. -1.
         23    2    1    2    0    0  0.28156922394E+03 -0.15363833217E+04 -0.33557344363E+04  0.37026011077E+04  0.92446830140E+02 0.  0.
         13    1    3    3    0    0  0.89016100276E+02 -0.29855580922E+03 -0.63357917496E+03  0.70603258301E+03  0.00000000000E+00 0. -1.
        -13    1    3    3    0    0  0.19255312367E+03 -0.12378275125E+04 -0.27221552613E+04  0.29965685247E+04  0.00000000000E+00 0.  1.
         22    1    1    2    0    0 -0.28156922394E+03  0.15363833217E+04 -0.95222140143E+03  0.18293388250E+04  0.00000000000E+00 0.  1.
<mgrwt>
<rscale>  0 0.34704288E+04</rscale>
<asrwt>0</asrwt>
<pdfrwt beam="1">  1        2 0.75691507E+00 0.34704288E+04</pdfrwt>
<pdfrwt beam="2">  1       -2 0.94152621E-01 0.34704288E+04</pdfrwt>
<totfact> 0.33572815E-02</totfact>
</mgrwt>
</event>
<event>
 6    1  0.1885829E-005  0.2819731E+04  0.7818608E-02  0.8297169E-01
         -2   -1    0    0    0  501 -0.00000000000E+00  0.00000000000E+00  0.66972901819E+03  0.66972901819E+03  0.00000000000E+00 0.  1.
          2   -1    0    0  501    0  0.00000000000E+00 -0.00000000000E+00 -0.29679478173E+04  0.29679478173E+04  0.00000000000E+00 0. -1.
         23    2    1    2    0    0  0.11119321094E+04  0.30765824442E+03 -0.21924967868E+04  0.24791330274E+04  0.89508639478E+02 0.  0.
         11    1    3    3    0    0  0.13535655108E+03  0.28243265712E+02 -0.32673678556E+03  0.35479008585E+03  0.00000000000E+00 0. -1.
        -11    1    3    3    0    0  0.97657555828E+03  0.27941497871E+03 -0.18657600012E+04  0.21243429416E+04  0.00000000000E+00 0.  1.
         22    1    1    2    0    0 -0.11119321094E+04 -0.30765824442E+03 -0.10572201230E+03  0.11585438080E+04  0.00000000000E+00 0.  1.
<mgrwt>
<rscale>  0 0.28197310E+04</rscale>
<asrwt>0</asrwt>
<pdfrwt beam="1">  1        2 0.45660735E+00 0.28197310E+04</pdfrwt>
<pdfrwt beam="2">  1       -2 0.10303523E+00 0.28197310E+04</pdfrwt>
<totfact> 0.12178725E+00</totfact>
</mgrwt>
</event>
<event>
 6    1  0.1885829E-005  0.1590617E+04  0.7818608E-02  0.8826333E-01
          1   -1    0    0  501    0  0.00000000000E+00  0.00000000000E+00  0.45862075201E+03  0.45862075201E+03  0.00000000000E+00 0. -1.
         -1   -1    0    0    0  501 -0.00000000000E+00 -0.00000000000E+00 -0.13791689803E+04  0.13791689803E+04  0.00000000000E+00 0.  1.
         23    2    1    2    0    0 -0.64324082569E+03 -0.42842539441E+03 -0.66361268926E+03  0.10233433255E+04  0.97686652304E+02 0.  0.
         11    1    3    3    0    0 -0.57189555851E+03 -0.38714770535E+03 -0.54937768062E+03  0.88247589858E+03  0.00000000000E+00 0.  1.
        -11    1    3    3    0    0 -0.71345267187E+02 -0.41277689059E+02 -0.11423500864E+03  0.14086742690E+03  0.00000000000E+00 0. -1.
         22    1    1    2    0    0  0.64324082569E+03  0.42842539441E+03 -0.25693553907E+03  0.81444640686E+03  0.00000000000E+00 0. -1.
<mgrwt>
<rscale>  0 0.15906169E+04</rscale>
<asrwt>0</asrwt>
<pdfrwt beam="1">  1        1 0.70557039E-01 0.15906169E+04</pdfrwt>
<pdfrwt beam="2">  1       -1 0.21217984E+00 0.15906169E+04</pdfrwt>
<totfact> 0.59530928E+00</totfact>
</mgrwt>
</event>
<event>
 6    1  0.1885829E-005  0.4509174E+04  0.7818608E-02  0.7909033E-01
         -2   -1    0    0    0  501 -0.00000000000E+00  0.00000000000E+00  0.28126669431E+04  0.28126669431E+04  0.00000000000E+00 0.  1.
          2   -1    0    0  501    0  0.00000000000E+00 -0.00000000000E+00 -0.18072394555E+04  0.18072394555E+04  0.00000000000E+00 0. -1.
         23    2    1    2    0    0  0.24526166764E+03  0.14677088558E+04 -0.12311800980E+04  0.19335080545E+04  0.91249067808E+02 0.  0.
         11    1    3    3    0    0  0.10779625319E+03  0.47859770769E+03 -0.44880135344E+03  0.66490484497E+03  0.00000000000E+00 0.  1.
        -11    1    3    3    0    0  0.13746541445E+03  0.98911114807E+03 -0.78237874451E+03  0.12686032095E+04  0.00000000000E+00 0. -1.
         22    1    1    2    0    0 -0.24526166764E+03 -0.14677088558E+04  0.22366075856E+04  0.26863983440E+04  0.00000000000E+00 0.  1.
<mgrwt>
<rscale>  0 0.45091741E+04</rscale>
<asrwt>0</asrwt>
<pdfrwt beam="1">  1        2 0.27803684E+00 0.45091741E+04</pdfrwt>
<pdfrwt beam="2">  1       -2 0.43271799E+00 0.45091741E+04</pdfrwt>
<totfact> 0.29263032E-02</totfact>
</mgrwt>
</event>
<event>
 6    1  0.1885829E-005  0.5414961E+03  0.7818608E-02  0.1003482E+00
          2   -1    0    0  501    0  0.00000000000E+00  0.00000000000E+00  0.58679541663E+02  0.58679541663E+02  0.00000000000E+00 0.  1.
         -2   -1    0    0    0  501 -0.00000000000E+00 -0.00000000000E+00 -0.12492345832E+04  0.12492345832E+04  0.00000000000E+00 0. -1.
         23    2    1    2    0    0  0.15326267817E+03  0.17484861189E+03 -0.91212143773E+03  0.94516523469E+03  0.85500398163E+02 0.  0.
         13    1    3    3    0    0  0.40052413985E+02  0.11027346992E+03 -0.42019296095E+03  0.43626432179E+03  0.00000000000E+00 0.  1.
        -13    1    3    3    0    0  0.11321026418E+03  0.64575141976E+02 -0.49192847678E+03  0.50890091289E+03  0.00000000000E+00 0. -1.
         22    1    1    2    0    0 -0.15326267817E+03 -0.17484861189E+03 -0.27843360382E+03  0.36274889019E+03  0.00000000000E+00 0.  1.
<mgrwt>
<rscale>  0 0.54149612E+03</rscale>
<asrwt>0</asrwt>
<pdfrwt beam="1">  1        2 0.90276212E-02 0.54149612E+03</pdfrwt>
<pdfrwt beam="2">  1       -2 0.19218995E+00 0.54149612E+03</pdfrwt>
<totfact> 0.11648832E+02</totfact>
</mgrwt>
</event>
<event>
 6    1  0.1885829E-005  0.1593354E+04  0.7818608E-02  0.8824641E-01
          2   -1    0    0  501    0  0.00000000000E+00  0.00000000000E+00  0.49687827828E+04  0.49687827828E+04  0.00000000000E+00 0. -1.
         -2   -1    0    0    0  501 -0.00000000000E+00 -0.00000000000E+00 -0.12773633342E+03  0.12773633342E+03  0.00000000000E+00 0.  1.
         23    2    1    2    0    0  0.11597471164E+03  0.73793754183E+03  0.32888047366E+04  0.33738884872E+04  0.94260165189E+02 0.  0.
         11    1    3    3    0    0  0.12877001519E+02  0.23452167113E+03  0.87359501809E+03  0.90461842067E+03  0.00000000000E+00 0.  1.
        -11    1    3    3    0    0  0.10309771012E+03  0.50341587070E+03  0.24152097185E+04  0.24692700665E+04  0.00000000000E+00 0. -1.
         22    1    1    2    0    0 -0.11597471164E+03 -0.73793754183E+03  0.15522417128E+04  0.17226306291E+04  0.00000000000E+00 0.  1.
<mgrwt>
<rscale>  0 0.15933538E+04</rscale>
<asrwt>0</asrwt>
<pdfrwt beam="1">  1        2 0.76442797E+00 0.15933538E+04</pdfrwt>
<pdfrwt beam="2">  1       -2 0.19651747E-01 0.15933538E+04</pdfrwt>
<totfact> 0.83059993E-01</totfact>
</mgrwt>
</event>
<event>
 6    1  0.1885829E-005  0.1846227E+04  0.7818608E-02  0.8682095E-01
         -2   -1    0    0    0  501 -0.00000000000E+00  0.00000000000E+00  0.37074276645E+03  0.37074276645E+03  0.00000000000E+00 0.  1.
          2   -1    0    0  501    0  0.00000000000E+00 -0.00000000000E+00 -0.22984640272E+04  0.22984640272E+04  0.00000000000E+00 0. -1.
         23    2    1    2    0    0  0.38751433364E+03 -0.61043684392E+03 -0.14164966198E+03  0.74233049894E+03  0.90495545331E+02 0.  0.
         13    1    3    3    0    0  0.19599695592E+03 -0.23014759416E+03 -0.73707646514E+02  0.31115195481E+03  0.00000000000E+00 0. -1.
        -13    1    3    3    0    0  0.19151737773E+03 -0.38028924977E+03 -0.67942015465E+02  0.43117854414E+03  0.00000000000E+00 0.  1.
         22    1    1    2    0    0 -0.38751433364E+03  0.61043684392E+03 -0.17860715987E+04  0.19268762947E+04  0.00000000000E+00 0. -1.
<mgrwt>
<rscale>  0 0.18462274E+04</rscale>
<asrwt>0</asrwt>
<pdfrwt beam="1">  1        2 0.35360985E+00 0.18462274E+04</pdfrwt>
<pdfrwt beam="2">  1       -2 0.57037349E-01 0.18462274E+04</pdfrwt>
<totfact> 0.12317048E+01</totfact>
</mgrwt>
</event>
<event>
 6    1  0.1885829E-005  0.9024737E+03  0.7818608E-02  0.9422495E-01
          2   -1    0    0  501    0  0.00000000000E+00  0.00000000000E+00  0.44717374030E+03  0.44717374030E+03  0.00000000000E+00 0. -1.
         -2   -1    0    0    0  501 -0.00000000000E+00 -0.00000000000E+00 -0.45533682808E+03  0.45533682808E+03  0.00000000000E+00 0.  1.
         23    2    1    2    0    0 -0.42989049833E+03 -0.10824163812E+03 -0.31491557134E+01  0.45917409087E+03  0.11961954594E+03 0.  0.
         11    1    3    3    0    0 -0.35076963177E+03 -0.10827587949E+03 -0.44690023756E+02  0.36981103131E+03  0.00000000000E+00 0.  1.
        -11    1    3    3    0    0 -0.79120866556E+02  0.34241372371E-01  0.41540868042E+02  0.89363059565E+02  0.00000000000E+00 0. -1.
         22    1    1    2    0    0  0.42989049833E+03  0.10824163812E+03 -0.50139320646E+01  0.44333647751E+03  0.00000000000E+00 0.  1.
<mgrwt>
<rscale>  0 0.90247365E+03</rscale>
<asrwt>0</asrwt>
<pdfrwt beam="1">  1        2 0.68795960E-01 0.90247365E+03</pdfrwt>
<pdfrwt beam="2">  1       -2 0.70051820E-01 0.90247365E+03</pdfrwt>
<totfact> 0.13052188E+02</totfact>
</mgrwt>
</event>
<event>
 6    1  0.1885829E-005  0.3451898E+04  0.7818608E-02  0.8125285E-01
         -2   -1    0    0    0  501 -0.00000000000E+00  0.00000000000E+00  0.88500133250E+03  0.88500133250E+03  0.00000000000E+00 0.  1.
          2   -1    0    0  501    0  0.00000000000E+00 -0.00000000000E+00 -0.33659843838E+04  0.33659843838E+04  0.00000000000E+00 0. -1.
         23    2    1    2    0    0 -0.42788824024E+03  0.14197091001E+04 -0.23262319796E+04  0.27601436157E+04  0.91516562204E+02 0.  0.
         11    1    3    3    0    0 -0.30606983159E+02  0.15062164568E+03 -0.19887085036E+03  0.25134295830E+03  0.00000000000E+00 0.  1.
        -11    1    3    3    0    0 -0.39728125708E+03  0.12690874544E+04 -0.21273611293E+04  0.25088006574E+04  0.00000000000E+00 0. -1.
         22    1    1    2    0    0  0.42788824024E+03 -0.14197091001E+04 -0.15475107171E+03  0.14908421007E+04  0.00000000000E+00 0. -1.
<mgrwt>
<rscale>  0 0.34518984E+04</rscale>
<asrwt>0</asrwt>
<pdfrwt beam="1">  1        2 0.51784375E+00 0.34518984E+04</pdfrwt>
<pdfrwt beam="2">  1       -2 0.13615405E+00 0.34518984E+04</pdfrwt>
<totfact> 0.31979993E-01</totfact>
</mgrwt>
</event>
<event>
 6    1  0.1885829E-005  0.1446337E+04  0.7818608E-02  0.8920944E-01
         -2   -1    0    0    0  501 -0.00000000000E+00  0.00000000000E+00  0.27745316640E+03  0.27745316640E+03  0.00000000000E+00 0.  1.
          2   -1    0    0  501    0  0.00000000000E+00 -0.00000000000E+00 -0.18849055556E+04  0.18849055556E+04  0.00000000000E+00 0. -1.
         23    2    1    2    0    0  0.64332669325E+03 -0.29280018801E+03 -0.10138849582E+04  0.12393617125E+04  0.91943252464E+02 0.  0.
         13    1    3    3    0    0  0.41166371577E+03 -0.18994339354E+03 -0.57131407151E+03  0.72934578626E+03  0.00000000000E+00 0. -1.
        -13    1    3    3    0    0  0.23166297748E+03 -0.10285679446E+03 -0.44257088667E+03  0.51001592625E+03  0.00000000000E+00 0.  1.
         22    1    1    2    0    0 -0.64332669325E+03  0.29280018801E+03 -0.59356743102E+03  0.92299700948E+03  0.00000000000E+00 0.  1.
<mgrwt>
<rscale>  0 0.14463375E+04</rscale>
<asrwt>0</asrwt>
<pdfrwt beam="1">  1        2 0.28998546E+00 0.14463375E+04</pdfrwt>
<pdfrwt beam="2">  1       -2 0.42685104E-01 0.14463375E+04</pdfrwt>
<totfact> 0.39078942E+01</totfact>
</mgrwt>
</event>
<event>
 6    1  0.1885829E-005  0.2857768E+04  0.7818608E-02  0.8285555E-01
          2   -1    0    0  501    0  0.00000000000E+00  0.00000000000E+00  0.24864611699E+04  0.24864611699E+04  0.00000000000E+00 0. -1.
         -2   -1    0    0    0  501 -0.00000000000E+00 -0.00000000000E+00 -0.82113049936E+03  0.82113049936E+03  0.00000000000E+00 0.  1.
         23    2    1    2    0    0 -0.28069915638E+03 -0.24791686373E+02  0.24531038707E+04  0.24709356712E+04  0.91639764775E+02 0.  0.
         13    1    3    3    0    0 -0.16876222844E+03 -0.58081598225E+02  0.15830680327E+04  0.15930971589E+04  0.00000000000E+00 0.  1.
        -13    1    3    3    0    0 -0.11193692794E+03  0.33289911852E+02  0.87003583807E+03  0.87783851226E+03  0.00000000000E+00 0. -1.
         22    1    1    2    0    0  0.28069915638E+03  0.24791686373E+02 -0.78777320020E+03  0.83665599805E+03  0.00000000000E+00 0.  1.
<mgrwt>
<rscale>  0 0.28577677E+04</rscale>
<asrwt>0</asrwt>
<pdfrwt beam="1">  1        2 0.38253248E+00 0.28577677E+04</pdfrwt>
<pdfrwt beam="2">  1       -2 0.12632777E+00 0.28577677E+04</pdfrwt>
<totfact> 0.14330012E+00</totfact>
</mgrwt>
</event>
<event>
 6    1  0.1885829E-005  0.9217274E+03  0.7818608E-02  0.9398821E-01
         -2   -1    0    0    0  501 -0.00000000000E+00  0.00000000000E+00  0.28552036044E+03  0.28552036044E+03  0.00000000000E+00 0.  1.
          2   -1    0    0  501    0  0.00000000000E+00 -0.00000000000E+00 -0.74388861425E+03  0.74388861425E+03  0.00000000000E+00 0. -1.
         23    2    1    2    0    0 -0.16059412502E+03  0.32151259286E+03 -0.54534791043E+03  0.65964380458E+03  0.92546124479E+02 0.  0.
         11    1    3    3    0    0 -0.54505267217E+02  0.36889381073E+02 -0.12166572379E+03  0.13832642168E+03  0.00000000000E+00 0.  1.
        -11    1    3    3    0    0 -0.10608885780E+03  0.28462321179E+03 -0.42368218664E+03  0.52131738290E+03  0.00000000000E+00 0. -1.
         22    1    1    2    0    0  0.16059412502E+03 -0.32151259286E+03  0.86979656618E+02  0.36976517011E+03  0.00000000000E+00 0.  1.
<mgrwt>
<rscale>  0 0.92172739E+03</rscale>
<asrwt>0</asrwt>
<pdfrwt beam="1">  1        2 0.11444440E+00 0.92172739E+03</pdfrwt>
<pdfrwt beam="2">  1       -2 0.43926210E-01 0.92172739E+03</pdfrwt>
<totfact> 0.18659923E+02</totfact>
</mgrwt>
</event>
<event>
 6    1  0.1885829E-005  0.5957503E+03  0.7818608E-02  0.9914262E-01
          2   -1    0    0  501    0  0.00000000000E+00  0.00000000000E+00  0.25613822579E+03  0.25613822579E+03  0.00000000000E+00 0. -1.
         -2   -1    0    0    0  501 -0.00000000000E+00 -0.00000000000E+00 -0.34641292191E+03  0.34641292191E+03  0.00000000000E+00 0.  1.
         23    2    1    2    0    0 -0.40310199559E+02 -0.15984356725E+03 -0.28890968609E+03  0.34442184402E+03  0.89346078470E+02 0.  0.
         11    1    3    3    0    0 -0.57006446528E+02 -0.13870025043E+03 -0.19078082565E+03  0.24266194150E+03  0.00000000000E+00 0. -1.
        -11    1    3    3    0    0  0.16696246969E+02 -0.21143316815E+02 -0.98128860437E+02  0.10175990251E+03  0.00000000000E+00 0.  1.
         22    1    1    2    0    0  0.40310199559E+02  0.15984356725E+03  0.19863498997E+03  0.25812930369E+03  0.00000000000E+00 0. -1.
<mgrwt>
<rscale>  0 0.59575025E+03</rscale>
<asrwt>0</asrwt>
<pdfrwt beam="1">  1        2 0.39405881E-01 0.59575025E+03</pdfrwt>
<pdfrwt beam="2">  1       -2 0.53294296E-01 0.59575025E+03</pdfrwt>
<totfact> 0.43865521E+02</totfact>
</mgrwt>
</event>
<event>
 6    1  0.1885829E-005  0.1783673E+04  0.7818608E-02  0.8715030E-01
         -2   -1    0    0    0  501 -0.00000000000E+00  0.00000000000E+00  0.46169205827E+03  0.46169205827E+03  0.00000000000E+00 0. -1.
          2   -1    0    0  501    0  0.00000000000E+00 -0.00000000000E+00 -0.17227340775E+04  0.17227340775E+04  0.00000000000E+00 0.  1.
         23    2    1    2    0    0  0.11658415680E+03 -0.32480095016E+03 -0.16362177008E+04  0.16746768691E+04  0.90811501869E+02 0.  0.
         13    1    3    3    0    0  0.40571546448E+02 -0.17323791289E+03 -0.64634323516E+03  0.67038571172E+03  0.00000000000E+00 0. -1.
        -13    1    3    3    0    0  0.76012610350E+02 -0.15156303727E+03 -0.98987446559E+03  0.10042911574E+04  0.00000000000E+00 0.  1.
         22    1    1    2    0    0 -0.11658415680E+03  0.32480095016E+03  0.37517568153E+03  0.50974926665E+03  0.00000000000E+00 0. -1.
<mgrwt>
<rscale>  0 0.17836733E+04</rscale>
<asrwt>0</asrwt>
<pdfrwt beam="1">  1        2 0.26503601E+00 0.17836733E+04</pdfrwt>
<pdfrwt beam="2">  1       -2 0.71029548E-01 0.17836733E+04</pdfrwt>
<totfact> 0.16209787E+01</totfact>
</mgrwt>
</event>
<event>
 6    1  0.1885829E-005  0.4070716E+04  0.7818608E-02  0.7990431E-01
          2   -1    0    0  501    0  0.00000000000E+00  0.00000000000E+00  0.26802923049E+04  0.26802923049E+04  0.00000000000E+00 0. -1.
         -2   -1    0    0    0  501 -0.00000000000E+00 -0.00000000000E+00 -0.15456083977E+04  0.15456083977E+04  0.00000000000E+00 0.  1.
         23    2    1    2    0    0  0.83101501947E+03  0.24175387808E+03  0.24789021899E+04  0.26271656740E+04  0.89512633451E+02 0.  0.
         13    1    3    3    0    0  0.42998884929E+03  0.94739906993E+02  0.13607128637E+04  0.14301767576E+04  0.00000000000E+00 0. -1.
        -13    1    3    3    0    0  0.40102617018E+03  0.14701397109E+03  0.11181893262E+04  0.11969889164E+04  0.00000000000E+00 0.  1.
         22    1    1    2    0    0 -0.83101501947E+03 -0.24175387808E+03 -0.13442182827E+04  0.15987350286E+04  0.00000000000E+00 0.  1.
<mgrwt>
<rscale>  0 0.40707161E+04</rscale>
<asrwt>0</asrwt>
<pdfrwt beam="1">  1        2 0.41235266E+00 0.40707161E+04</pdfrwt>
<pdfrwt beam="2">  1       -2 0.23778591E+00 0.40707161E+04</pdfrwt>
<totfact> 0.16359394E-01</totfact>
</mgrwt>
</event>
<event>
 6    1  0.1885829E-005  0.3471733E+04  0.7818608E-02  0.8120522E-01
          2   -1    0    0  501    0  0.00000000000E+00  0.00000000000E+00  0.28429819731E+04  0.28429819731E+04  0.00000000000E+00 0. -1.
         -2   -1    0    0    0  501 -0.00000000000E+00 -0.00000000000E+00 -0.10598847848E+04  0.10598847848E+04  0.00000000000E+00 0.  1.
         23    2    1    2    0    0 -0.88933212179E+03 -0.14769851346E+04  0.67733522246E+03  0.18546709090E+04  0.92868004758E+02 0.  0.
         11    1    3    3    0    0 -0.33407418552E+03 -0.47069129096E+03  0.23282689768E+03  0.62238590689E+03  0.00000000000E+00 0.  1.
        -11    1    3    3    0    0 -0.55525793628E+03 -0.10062938436E+04  0.44450832479E+03  0.12322850021E+04  0.00000000000E+00 0. -1.
         22    1    1    2    0    0  0.88933212179E+03  0.14769851346E+04  0.11057619658E+04  0.20481958490E+04  0.00000000000E+00 0.  1.
<mgrwt>
<rscale>  0 0.34717335E+04</rscale>
<asrwt>0</asrwt>
<pdfrwt beam="1">  1        2 0.43738184E+00 0.34717335E+04</pdfrwt>
<pdfrwt beam="2">  1       -2 0.16305920E+00 0.34717335E+04</pdfrwt>
<totfact> 0.42871378E-01</totfact>
</mgrwt>
</event>
<event>
 6    1  0.2081003E-005  0.2829234E+04  0.7818608E-02  0.8294249E-01
          2   -1    0    0  501    0  0.00000000000E+00  0.00000000000E+00  0.27112620612E+04  0.27112620612E+04  0.00000000000E+00 0. -1.
         -2   -1    0    0    0  501 -0.00000000000E+00 -0.00000000000E+00 -0.73808494472E+03  0.73808494472E+03  0.00000000000E+00 0.  1.
         23    2    1    2    0    0  0.34457544232E+03  0.10730030645E+04  0.20271577031E+04  0.23210820921E+04  0.89363935791E+02 0.  0.
         11    1    3    3    0    0  0.15953894817E+03  0.50116772011E+03  0.85498155195E+03  0.10038003855E+04  0.00000000000E+00 0.  1.
        -11    1    3    3    0    0  0.18503649415E+03  0.57183534440E+03  0.11721761512E+04  0.13172817067E+04  0.00000000000E+00 0. -1.
         22    1    1    2    0    0 -0.34457544232E+03 -0.10730030645E+04 -0.53980586689E+02  0.11282649138E+04  0.00000000000E+00 0.  1.
<mgrwt>
<rscale>  0 0.28292343E+04</rscale>
<asrwt>0</asrwt>
<pdfrwt beam="1">  1        2 0.41711723E+00 0.28292343E+04</pdfrwt>
<pdfrwt beam="2">  1       -2 0.11355153E+00 0.28292343E+04</pdfrwt>
<totfact> 0.13799548E+00</totfact>
</mgrwt>
</event>
<event>
 6    1  0.1885829E-005  0.4093551E+04  0.7818608E-02  0.7985936E-01
         -2   -1    0    0    0  501 -0.00000000000E+00  0.00000000000E+00  0.11545243548E+04  0.11545243548E+04  0.00000000000E+00 0.  1.
          2   -1    0    0  501    0  0.00000000000E+00 -0.00000000000E+00 -0.36285859773E+04  0.36285859773E+04  0.00000000000E+00 0. -1.
         23    2    1    2    0    0  0.13566402478E+04  0.93635785437E+03 -0.26533096779E+04  0.31249883044E+04  0.90889286909E+02 0.  0.
         13    1    3    3    0    0  0.41907313245E+03  0.26833515704E+03 -0.87405607405E+03  0.10057833104E+04  0.00000000000E+00 0.  1.
        -13    1    3    3    0    0  0.93756711533E+03  0.66802269733E+03 -0.17792536039E+04  0.21192049940E+04  0.00000000000E+00 0. -1.
         22    1    1    2    0    0 -0.13566402478E+04 -0.93635785437E+03  0.17924805535E+03  0.16581220277E+04  0.00000000000E+00 0.  1.
<mgrwt>
<rscale>  0 0.40935515E+04</rscale>
<asrwt>0</asrwt>
<pdfrwt beam="1">  1        2 0.55824399E+00 0.40935515E+04</pdfrwt>
<pdfrwt beam="2">  1       -2 0.17761914E+00 0.40935515E+04</pdfrwt>
<totfact> 0.96873344E-02</totfact>
</mgrwt>
</event>
<event>
 6    1  0.1885829E-005  0.1423948E+04  0.7818608E-02  0.8936664E-01
         -1   -1    0    0    0  501 -0.00000000000E+00  0.00000000000E+00  0.10564226832E+04  0.10564226832E+04  0.00000000000E+00 0.  1.
          1   -1    0    0  501    0  0.00000000000E+00 -0.00000000000E+00 -0.47983334851E+03  0.47983334851E+03  0.00000000000E+00 0. -1.
         23    2    1    2    0    0 -0.40776262147E+03 -0.23198639825E+03 -0.28461830431E+03  0.55555901331E+03  0.86891850480E+02 0.  0.
         13    1    3    3    0    0 -0.33420986312E+03 -0.15677012329E+03 -0.24543785710E+03  0.44329769440E+03  0.00000000000E+00 0.  1.
        -13    1    3    3    0    0 -0.73552758349E+02 -0.75216274957E+02 -0.39180447210E+02  0.11226131891E+03  0.00000000000E+00 0. -1.
         22    1    1    2    0    0  0.40776262147E+03  0.23198639825E+03  0.86120763904E+03  0.98069701844E+03  0.00000000000E+00 0.  1.
<mgrwt>
<rscale>  0 0.14239478E+04</rscale>
<asrwt>0</asrwt>
<pdfrwt beam="1">  1        1 0.73820516E-01 0.14239478E+04</pdfrwt>
<pdfrwt beam="2">  1       -1 0.16252657E+00 0.14239478E+04</pdfrwt>
<totfact> 0.12767794E+01</totfact>
</mgrwt>
</event>
<event>
 6    1  0.1885829E-005  0.1400627E+04  0.7818608E-02  0.8953364E-01
          2   -1    0    0  501    0  0.00000000000E+00  0.00000000000E+00  0.60291157953E+03  0.60291157953E+03  0.00000000000E+00 0. -1.
         -2   -1    0    0    0  501 -0.00000000000E+00 -0.00000000000E+00 -0.81345152829E+03  0.81345152829E+03  0.00000000000E+00 0.  1.
         23    2    1    2    0    0 -0.47918012420E+02  0.67460232836E+03 -0.27643446388E+03  0.73685849087E+03  0.95707812664E+02 0.  0.
         11    1    3    3    0    0 -0.47358190047E+02  0.32885567655E+03 -0.18019479994E+03  0.37796695635E+03  0.00000000000E+00 0.  1.
        -11    1    3    3    0    0 -0.55982237287E+00  0.34574665180E+03 -0.96239663942E+02  0.35889153452E+03  0.00000000000E+00 0. -1.
         22    1    1    2    0    0  0.47918012420E+02 -0.67460232836E+03  0.65894515123E+02  0.67950461695E+03  0.00000000000E+00 0. -1.
<mgrwt>
<rscale>  0 0.14006275E+04</rscale>
<asrwt>0</asrwt>
<pdfrwt beam="1">  1        2 0.92755628E-01 0.14006275E+04</pdfrwt>
<pdfrwt beam="2">  1       -2 0.12514639E+00 0.14006275E+04</pdfrwt>
<totfact> 0.22934498E+01</totfact>
</mgrwt>
</event>
<event>
 6    1  0.1885829E-005  0.9399475E+03  0.7818608E-02  0.9376978E-01
         -1   -1    0    0    0  501 -0.00000000000E+00  0.00000000000E+00  0.46249483419E+03  0.46249483419E+03  0.00000000000E+00 0.  1.
          1   -1    0    0  501    0  0.00000000000E+00 -0.00000000000E+00 -0.47757363622E+03  0.47757363622E+03  0.00000000000E+00 0. -1.
         23    2    1    2    0    0  0.98667829877E+02  0.78160413428E+02 -0.45588017377E+03  0.48164700473E+03  0.91174083239E+02 0.  0.
         11    1    3    3    0    0  0.83432398182E+02  0.18106200149E+02 -0.18466687639E+03  0.20344693358E+03  0.00000000000E+00 0.  1.
        -11    1    3    3    0    0  0.15235431696E+02  0.60054213279E+02 -0.27121329738E+03  0.27820007115E+03  0.00000000000E+00 0. -1.
         22    1    1    2    0    0 -0.98667829877E+02 -0.78160413428E+02  0.44080137173E+03  0.45842146568E+03  0.00000000000E+00 0.  1.
<mgrwt>
<rscale>  0 0.93994753E+03</rscale>
<asrwt>0</asrwt>
<pdfrwt beam="1">  1        1 0.73472867E-01 0.93994753E+03</pdfrwt>
<pdfrwt beam="2">  1       -1 0.71153051E-01 0.93994753E+03</pdfrwt>
<totfact> 0.94791880E+01</totfact>
</mgrwt>
</event>
<event>
 6    1  0.1885829E-005  0.2137800E+04  0.7818608E-02  0.8544773E-01
          1   -1    0    0  501    0  0.00000000000E+00  0.00000000000E+00  0.22182246218E+04  0.22182246218E+04  0.00000000000E+00 0. -1.
         -1   -1    0    0    0  501 -0.00000000000E+00 -0.00000000000E+00 -0.51507260843E+03  0.51507260843E+03  0.00000000000E+00 0.  1.
         23    2    1    2    0    0 -0.88845602864E+03  0.86915649152E+01  0.97640246206E+02  0.89833191922E+03  0.89649100861E+02 0.  0.
         13    1    3    3    0    0 -0.76896372285E+03 -0.22611500681E+02  0.90504082527E+02  0.77460149494E+03  0.00000000000E+00 0. -1.
        -13    1    3    3    0    0 -0.11949230579E+03  0.31303065596E+02  0.71361636798E+01  0.12373042427E+03  0.00000000000E+00 0.  1.
         22    1    1    2    0    0  0.88845602864E+03 -0.86915649152E+01  0.16055117672E+04  0.18349653111E+04  0.00000000000E+00 0. -1.
<mgrwt>
<rscale>  0 0.21377996E+04</rscale>
<asrwt>0</asrwt>
<pdfrwt beam="1">  1        1 0.34126532E+00 0.21377996E+04</pdfrwt>
<pdfrwt beam="2">  1       -1 0.79241941E-01 0.21377996E+04</pdfrwt>
<totfact> 0.30889079E+00</totfact>
</mgrwt>
</event>
<event>
 6    1  0.1885829E-005  0.3826524E+04  0.7818608E-02  0.8040487E-01
         -2   -1    0    0    0  501 -0.00000000000E+00  0.00000000000E+00  0.15210193762E+04  0.15210193762E+04  0.00000000000E+00 0.  1.
          2   -1    0    0  501    0  0.00000000000E+00 -0.00000000000E+00 -0.24066566095E+04  0.24066566095E+04  0.00000000000E+00 0. -1.
         23    2    1    2    0    0 -0.47637773253E+03 -0.12466195843E+04  0.96239330808E+03  0.16481556384E+04  0.96020815944E+02 0.  0.
         11    1    3    3    0    0 -0.60019051054E+02 -0.20891916869E+03  0.19514496898E+03  0.29211481382E+03  0.00000000000E+00 0. -1.
        -11    1    3    3    0    0 -0.41635868147E+03 -0.10377004156E+04  0.76724833910E+03  0.13560408246E+04  0.00000000000E+00 0.  1.
         22    1    1    2    0    0  0.47637773253E+03  0.12466195843E+04 -0.18480305413E+04  0.22795203473E+04  0.00000000000E+00 0. -1.
<mgrwt>
<rscale>  0 0.38265239E+04</rscale>
<asrwt>0</asrwt>
<pdfrwt beam="1">  1        2 0.37025486E+00 0.38265239E+04</pdfrwt>
<pdfrwt beam="2">  1       -2 0.23400298E+00 0.38265239E+04</pdfrwt>
<totfact> 0.25448187E-01</totfact>
</mgrwt>
</event>
<event>
 6    1  0.1885829E-005  0.1214616E+04  0.7818608E-02  0.9100159E-01
          2   -1    0    0  501    0  0.00000000000E+00  0.00000000000E+00  0.10934402357E+04  0.10934402357E+04  0.00000000000E+00 0. -1.
         -2   -1    0    0    0  501 -0.00000000000E+00 -0.00000000000E+00 -0.33730505688E+03  0.33730505688E+03  0.00000000000E+00 0.  1.
         23    2    1    2    0    0 -0.59943047650E+03  0.64507267940E+02  0.34028132120E+03  0.69834341201E+03  0.91728184103E+02 0.  0.
         13    1    3    3    0    0 -0.47698698957E+03  0.63207160529E+02  0.30943361299E+03  0.57206721126E+03  0.00000000000E+00 0. -1.
        -13    1    3    3    0    0 -0.12244348693E+03  0.13001074112E+01  0.30847708218E+02  0.12627620074E+03  0.00000000000E+00 0.  1.
         22    1    1    2    0    0  0.59943047650E+03 -0.64507267940E+02  0.41585385760E+03  0.73240188057E+03  0.00000000000E+00 0.  1.
<mgrwt>
<rscale>  0 0.12146159E+04</rscale>
<asrwt>0</asrwt>
<pdfrwt beam="1">  1        2 0.16822157E+00 0.12146159E+04</pdfrwt>
<pdfrwt beam="2">  1       -2 0.51893086E-01 0.12146159E+04</pdfrwt>
<totfact> 0.76005528E+01</totfact>
</mgrwt>
</event>
<event>
 6    1  0.1885829E-005  0.2028474E+04  0.7818608E-02  0.8593423E-01
         -1   -1    0    0    0  501 -0.00000000000E+00  0.00000000000E+00  0.55498445677E+03  0.55498445677E+03  0.00000000000E+00 0.  1.
          1   -1    0    0  501    0  0.00000000000E+00 -0.00000000000E+00 -0.18535227133E+04  0.18535227133E+04  0.00000000000E+00 0. -1.
         23    2    1    2    0    0  0.18549439414E+03 -0.95202417423E+03 -0.30714891843E+03  0.10215641221E+04  0.92166148289E+02 0.  0.
         11    1    3    3    0    0  0.13895621207E+03 -0.47463400010E+03 -0.16271824301E+03  0.52063757983E+03  0.00000000000E+00 0. -1.
        -11    1    3    3    0    0  0.46538182069E+02 -0.47739017413E+03 -0.14443067543E+03  0.50092654227E+03  0.00000000000E+00 0.  1.
         22    1    1    2    0    0 -0.18549439414E+03  0.95202417423E+03 -0.99138933807E+03  0.13869430479E+04  0.00000000000E+00 0. -1.
<mgrwt>
<rscale>  0 0.20284736E+04</rscale>
<asrwt>0</asrwt>
<pdfrwt beam="1">  1        1 0.28515734E+00 0.20284736E+04</pdfrwt>
<pdfrwt beam="2">  1       -1 0.85382224E-01 0.20284736E+04</pdfrwt>
<totfact> 0.47001882E+00</totfact>
</mgrwt>
</event>
<event>
 6    1  0.1885829E-005  0.3928503E+04  0.7818608E-02  0.8019127E-01
         -2   -1    0    0    0  501 -0.00000000000E+00  0.00000000000E+00  0.26323853487E+04  0.26323853487E+04  0.00000000000E+00 0.  1.
          2   -1    0    0  501    0  0.00000000000E+00 -0.00000000000E+00 -0.14656991297E+04  0.14656991297E+04  0.00000000000E+00 0. -1.
         23    2    1    2    0    0 -0.69963413732E+03 -0.11207402468E+04  0.20983723202E+04  0.24814256962E+04  0.93597354944E+02 0.  0.
         11    1    3    3    0    0 -0.53699966274E+03 -0.90123962899E+03  0.16045717372E+04  0.19170946681E+04  0.00000000000E+00 0. -1.
        -11    1    3    3    0    0 -0.16263447458E+03 -0.21950061778E+03  0.49380058299E+03  0.56433102811E+03  0.00000000000E+00 0.  1.
         22    1    1    2    0    0  0.69963413732E+03  0.11207402468E+04 -0.93168610120E+03  0.16166587822E+04  0.00000000000E+00 0. -1.
<mgrwt>
<rscale>  0 0.39285035E+04</rscale>
<asrwt>0</asrwt>
<pdfrwt beam="1">  1        2 0.22549217E+00 0.39285035E+04</pdfrwt>
<pdfrwt beam="2">  1       -2 0.40498236E+00 0.39285035E+04</pdfrwt>
<totfact> 0.72476207E-02</totfact>
</mgrwt>
</event>
<event>
 6    1  0.1885829E-005  0.4275391E+04  0.7818608E-02  0.7951184E-01
          1   -1    0    0  501    0  0.00000000000E+00  0.00000000000E+00  0.44841160527E+04  0.44841160527E+04  0.00000000000E+00 0. -1.
         -1   -1    0    0    0  501 -0.00000000000E+00 -0.00000000000E+00 -0.10190953437E+04  0.10190953437E+04  0.00000000000E+00 0.  1.
         23    2    1    2    0    0  0.10738298198E+04  0.34280744070E+03 -0.60315531244E+03  0.12817562486E+04  0.92061535991E+02 0.  0.
         11    1    3    3    0    0  0.48047465187E+03  0.12805066698E+03 -0.22200045439E+03  0.54455217028E+03  0.00000000000E+00 0. -1.
        -11    1    3    3    0    0  0.59335516797E+03  0.21475677372E+03 -0.38115485805E+03  0.73720407828E+03  0.00000000000E+00 0.  1.
         22    1    1    2    0    0 -0.10738298198E+04 -0.34280744070E+03  0.40681760215E+04  0.42214551479E+04  0.00000000000E+00 0. -1.
<mgrwt>
<rscale>  0 0.42753909E+04</rscale>
<asrwt>0</asrwt>
<pdfrwt beam="1">  1        1 0.68986399E+00 0.42753909E+04</pdfrwt>
<pdfrwt beam="2">  1       -1 0.15678390E+00 0.42753909E+04</pdfrwt>
<totfact> 0.78630652E-03</totfact>
</mgrwt>
</event>
<event>
 6    1  0.1885829E-005  0.3363027E+04  0.7818608E-02  0.8147041E-01
         -2   -1    0    0    0  501 -0.00000000000E+00  0.00000000000E+00  0.13234151198E+04  0.13234151198E+04  0.00000000000E+00 0.  1.
          2   -1    0    0  501    0  0.00000000000E+00 -0.00000000000E+00 -0.21365090553E+04  0.21365090553E+04  0.00000000000E+00 0. -1.
         23    2    1    2    0    0  0.88196424390E+03  0.12960856928E+04  0.21521144347E+03  0.15850612460E+04  0.91674082614E+02 0.  0.
         13    1    3    3    0    0  0.33790740377E+03  0.47740995201E+03  0.36961203541E+02  0.58606126503E+03  0.00000000000E+00 0. -1.
        -13    1    3    3    0    0  0.54405684013E+03  0.81867574083E+03  0.17825023993E+03  0.99899998096E+03  0.00000000000E+00 0.  1.
         22    1    1    2    0    0 -0.88196424390E+03 -0.12960856928E+04 -0.10283053789E+04  0.18748629291E+04  0.00000000000E+00 0. -1.
<mgrwt>
<rscale>  0 0.33630274E+04</rscale>
<asrwt>0</asrwt>
<pdfrwt beam="1">  1        2 0.32869370E+00 0.33630274E+04</pdfrwt>
<pdfrwt beam="2">  1       -2 0.20360233E+00 0.33630274E+04</pdfrwt>
<totfact> 0.58679949E-01</totfact>
</mgrwt>
</event>
<event>
 6    1  0.1885829E-005  0.1204788E+04  0.7818608E-02  0.9108676E-01
         -2   -1    0    0    0  501 -0.00000000000E+00  0.00000000000E+00  0.45259152747E+03  0.45259152747E+03  0.00000000000E+00 0.  1.
          2   -1    0    0  501    0  0.00000000000E+00 -0.00000000000E+00 -0.80177886652E+03  0.80177886652E+03  0.00000000000E+00 0. -1.
         23    2    1    2    0    0 -0.52875278937E+02 -0.31259753931E+03 -0.70458294327E+03  0.77811515548E+03  0.92266215589E+02 0.  0.
         13    1    3    3    0    0  0.11551793562E+02 -0.41133036408E+02 -0.16778571597E+03  0.17313987728E+03  0.00000000000E+00 0. -1.
        -13    1    3    3    0    0 -0.64427072500E+02 -0.27146450290E+03 -0.53679722729E+03  0.60497527820E+03  0.00000000000E+00 0.  1.
         22    1    1    2    0    0  0.52875278937E+02  0.31259753931E+03  0.35539560422E+03  0.47625523851E+03  0.00000000000E+00 0.  1.
<mgrwt>
<rscale>  0 0.12047877E+04</rscale>
<asrwt>0</asrwt>
<pdfrwt beam="1">  1        2 0.12335060E+00 0.12047877E+04</pdfrwt>
<pdfrwt beam="2">  1       -2 0.69629465E-01 0.12047877E+04</pdfrwt>
<totfact> 0.63739904E+01</totfact>
</mgrwt>
</event>
<event>
 6    1  0.1885829E-005  0.1348863E+04  0.7818608E-02  0.8991689E-01
         -2   -1    0    0    0  501 -0.00000000000E+00  0.00000000000E+00  0.36797813693E+03  0.36797813693E+03  0.00000000000E+00 0.  1.
          2   -1    0    0  501    0  0.00000000000E+00 -0.00000000000E+00 -0.12361004859E+04  0.12361004859E+04  0.00000000000E+00 0. -1.
         23    2    1    2    0    0 -0.15083322137E+02 -0.62717480876E+03 -0.15299999181E+03  0.65277649781E+03  0.95563650312E+02 0.  0.
         11    1    3    3    0    0 -0.49636805546E+02 -0.43936046922E+03 -0.12710733536E+03  0.46006272298E+03  0.00000000000E+00 0. -1.
        -11    1    3    3    0    0  0.34553483408E+02 -0.18781433954E+03 -0.25892656445E+02  0.19271377483E+03  0.00000000000E+00 0.  1.
         22    1    1    2    0    0  0.15083322137E+02  0.62717480876E+03 -0.71512235717E+03  0.95130212502E+03  0.00000000000E+00 0. -1.
<mgrwt>
<rscale>  0 0.13488632E+04</rscale>
<asrwt>0</asrwt>
<pdfrwt beam="1">  1        2 0.19016931E+00 0.13488632E+04</pdfrwt>
<pdfrwt beam="2">  1       -2 0.56612021E-01 0.13488632E+04</pdfrwt>
<totfact> 0.51536175E+01</totfact>
</mgrwt>
</event>
<event>
 6    1  0.1885829E-005  0.1413964E+04  0.7818608E-02  0.8943773E-01
          2   -1    0    0  501    0  0.00000000000E+00  0.00000000000E+00  0.36656281480E+04  0.36656281480E+04  0.00000000000E+00 0. -1.
         -2   -1    0    0    0  501 -0.00000000000E+00 -0.00000000000E+00 -0.13635404773E+03  0.13635404773E+03  0.00000000000E+00 0.  1.
         23    2    1    2    0    0  0.28877470043E+03 -0.46257106996E+03  0.29696152074E+04  0.30205854343E+04  0.89213583954E+02 0.  0.
         11    1    3    3    0    0  0.63365253254E+02 -0.17795747803E+03  0.95082840328E+03  0.96941150797E+03  0.00000000000E+00 0. -1.
        -11    1    3    3    0    0  0.22540944718E+03 -0.28461359193E+03  0.20187868041E+04  0.20511739264E+04  0.00000000000E+00 0.  1.
         22    1    1    2    0    0 -0.28877470043E+03  0.46257106996E+03  0.55965889281E+03  0.78139676137E+03  0.00000000000E+00 0.  1.
<mgrwt>
<rscale>  0 0.14139636E+04</rscale>
<asrwt>0</asrwt>
<pdfrwt beam="1">  1        2 0.56394272E+00 0.14139636E+04</pdfrwt>
<pdfrwt beam="2">  1       -2 0.20977549E-01 0.14139636E+04</pdfrwt>
<totfact> 0.12058896E+01</totfact>
</mgrwt>
</event>
<event>
 6    1  0.1885829E-005  0.2424932E+04  0.7818608E-02  0.8430228E-01
          2   -1    0    0  501    0  0.00000000000E+00  0.00000000000E+00  0.15555103233E+04  0.15555103233E+04  0.00000000000E+00 0. -1.
         -2   -1    0    0    0  501 -0.00000000000E+00 -0.00000000000E+00 -0.94507529710E+03  0.94507529710E+03  0.00000000000E+00 0.  1.
         23    2    1    2    0    0 -0.65915235262E+03  0.10110938400E+04  0.20770014333E+03  0.12281910420E+04  0.92310935887E+02 0.  0.
         11    1    3    3    0    0 -0.46729962900E+03  0.75152930916E+03  0.11523955043E+03  0.89243789687E+03  0.00000000000E+00 0.  1.
        -11    1    3    3    0    0 -0.19185272362E+03  0.25956453084E+03  0.92460592900E+02  0.33575314514E+03  0.00000000000E+00 0. -1.
         22    1    1    2    0    0  0.65915235262E+03 -0.10110938400E+04  0.40273488286E+03  0.12723945784E+04  0.00000000000E+00 0. -1.
<mgrwt>
<rscale>  0 0.24249325E+04</rscale>
<asrwt>0</asrwt>
<pdfrwt beam="1">  1        2 0.23930928E+00 0.24249325E+04</pdfrwt>
<pdfrwt beam="2">  1       -2 0.14539620E+00 0.24249325E+04</pdfrwt>
<totfact> 0.34490235E+00</totfact>
</mgrwt>
</event>
<event>
 6    1  0.1885829E-005  0.3298709E+04  0.7818608E-02  0.8163224E-01
         -2   -1    0    0    0  501 -0.00000000000E+00  0.00000000000E+00  0.22559412400E+04  0.22559412400E+04  0.00000000000E+00 0.  1.
          2   -1    0    0  501    0  0.00000000000E+00 -0.00000000000E+00 -0.12058692764E+04  0.12058692764E+04  0.00000000000E+00 0. -1.
         23    2    1    2    0    0  0.21807065615E+03  0.39329348349E+02  0.22393136010E+04  0.22521009311E+04  0.91277552223E+02 0.  0.
         13    1    3    3    0    0  0.21611410645E+03  0.27255829961E+02  0.18796555827E+04  0.18922350004E+04  0.00000000000E+00 0. -1.
        -13    1    3    3    0    0  0.19565497011E+01  0.12073518388E+02  0.35965801831E+03  0.35986593068E+03  0.00000000000E+00 0.  1.
         22    1    1    2    0    0 -0.21807065615E+03 -0.39329348349E+02 -0.11892416374E+04  0.12097095853E+04  0.00000000000E+00 0. -1.
<mgrwt>
<rscale>  0 0.32987090E+04</rscale>
<asrwt>0</asrwt>
<pdfrwt beam="1">  1        2 0.18551835E+00 0.32987090E+04</pdfrwt>
<pdfrwt beam="2">  1       -2 0.34706788E+00 0.32987090E+04</pdfrwt>
<totfact> 0.25467619E-01</totfact>
</mgrwt>
</event>
<event>
 6    1  0.1885829E-005  0.1147973E+04  0.7818608E-02  0.9159655E-01
         -2   -1    0    0    0  501 -0.00000000000E+00  0.00000000000E+00  0.37475048299E+03  0.37475048299E+03  0.00000000000E+00 0.  1.
          2   -1    0    0  501    0  0.00000000000E+00 -0.00000000000E+00 -0.87914648830E+03  0.87914648830E+03  0.00000000000E+00 0. -1.
         23    2    1    2    0    0 -0.96475065576E+02 -0.28340974522E+03 -0.78399074631E+03  0.84426086307E+03  0.92230107081E+02 0.  0.
         13    1    3    3    0    0 -0.38402070132E+02 -0.16026840613E+03 -0.30975465851E+03  0.35086839336E+03  0.00000000000E+00 0.  1.
        -13    1    3    3    0    0 -0.58072995444E+02 -0.12314133910E+03 -0.47423608780E+03  0.49339246971E+03  0.00000000000E+00 0. -1.
         22    1    1    2    0    0  0.96475065576E+02  0.28340974522E+03  0.27959474100E+03  0.40963610822E+03  0.00000000000E+00 0.  1.
<mgrwt>
<rscale>  0 0.11479731E+04</rscale>
<asrwt>0</asrwt>
<pdfrwt beam="1">  1        2 0.13525330E+00 0.11479731E+04</pdfrwt>
<pdfrwt beam="2">  1       -2 0.57653921E-01 0.11479731E+04</pdfrwt>
<totfact> 0.84515632E+01</totfact>
</mgrwt>
</event>
<event>
 6    1  0.1885829E-005  0.2729996E+04  0.7818608E-02  0.8325337E-01
         -2   -1    0    0    0  501 -0.00000000000E+00  0.00000000000E+00  0.29403823780E+04  0.29403823780E+04  0.00000000000E+00 0.  1.
          2   -1    0    0  501    0  0.00000000000E+00 -0.00000000000E+00 -0.63366570233E+03  0.63366570233E+03  0.00000000000E+00 0. -1.
         23    2    1    2    0    0  0.71005612978E+03 -0.36734972045E+03 -0.29283009670E+03  0.85434792292E+03  0.70960434809E+02 0.  0.
         11    1    3    3    0    0  0.46659709864E+03 -0.24214766013E+03 -0.22804470899E+03  0.57302070736E+03  0.00000000000E+00 0.  1.
        -11    1    3    3    0    0  0.24345903113E+03 -0.12520206032E+03 -0.64785387701E+02  0.28132721555E+03  0.00000000000E+00 0. -1.
         22    1    1    2    0    0 -0.71005612978E+03  0.36734972045E+03  0.25995467724E+04  0.27197001574E+04  0.00000000000E+00 0.  1.
<mgrwt>
<rscale>  0 0.27299959E+04</rscale>
<asrwt>0</asrwt>
<pdfrwt beam="1">  1        2 0.97487033E-01 0.27299959E+04</pdfrwt>
<pdfrwt beam="2">  1       -2 0.45236651E+00 0.27299959E+04</pdfrwt>
<totfact> 0.13575569E-01</totfact>
</mgrwt>
</event>
<event>
 6    1  0.1885829E-005  0.2907303E+04  0.7818608E-02  0.8270708E-01
         -2   -1    0    0    0  501 -0.00000000000E+00  0.00000000000E+00  0.70103782989E+03  0.70103782989E+03  0.00000000000E+00 0.  1.
          2   -1    0    0  501    0  0.00000000000E+00 -0.00000000000E+00 -0.30142492000E+04  0.30142492000E+04  0.00000000000E+00 0. -1.
         23    2    1    2    0    0 -0.11417132626E+04  0.42476175199E+03 -0.14737371628E+03  0.12303756708E+04  0.90407737056E+02 0.  0.
         11    1    3    3    0    0 -0.18606105459E+03  0.10103635306E+03 -0.87644800429E+01  0.21190534865E+03  0.00000000000E+00 0. -1.
        -11    1    3    3    0    0 -0.95565220805E+03  0.32372539892E+03 -0.13860923624E+03  0.10184703221E+04  0.00000000000E+00 0.  1.
         22    1    1    2    0    0  0.11417132626E+04 -0.42476175199E+03 -0.21658376538E+04  0.24849113591E+04  0.00000000000E+00 0. -1.
<mgrwt>
<rscale>  0 0.29073030E+04</rscale>
<asrwt>0</asrwt>
<pdfrwt beam="1">  1        2 0.46373065E+00 0.29073030E+04</pdfrwt>
<pdfrwt beam="2">  1       -2 0.10785197E+00 0.29073030E+04</pdfrwt>
<totfact> 0.10132932E+00</totfact>
</mgrwt>
</event>
<event>
 6    1  0.1885829E-005  0.5660751E+03  0.7818608E-02  0.9978402E-01
          2   -1    0    0  501    0  0.00000000000E+00  0.00000000000E+00  0.14903734088E+04  0.14903734088E+04  0.00000000000E+00 0. -1.
         -2   -1    0    0    0  501 -0.00000000000E+00 -0.00000000000E+00 -0.53751792237E+02  0.53751792237E+02  0.00000000000E+00 0.  1.
         23    2    1    2    0    0 -0.57064864642E+02  0.15789189713E+03  0.13332573708E+04  0.13469693813E+04  0.92547541605E+02 0.  0.
         13    1    3    3    0    0  0.63139585633E+01  0.11480527935E+03  0.77969176385E+03  0.78812395272E+03  0.00000000000E+00 0. -1.
        -13    1    3    3    0    0 -0.63378823205E+02  0.43086617771E+02  0.55356560692E+03  0.55884542856E+03  0.00000000000E+00 0.  1.
         22    1    1    2    0    0  0.57064864642E+02 -0.15789189713E+03  0.10336424580E+03  0.19715581976E+03  0.00000000000E+00 0.  1.
<mgrwt>
<rscale>  0 0.56607505E+03</rscale>
<asrwt>0</asrwt>
<pdfrwt beam="1">  1        2 0.22928819E+00 0.56607505E+03</pdfrwt>
<pdfrwt beam="2">  1       -2 0.82695076E-02 0.56607505E+03</pdfrwt>
<totfact> 0.12223128E+03</totfact>
</mgrwt>
</event>
<event>
 6    1  0.1885829E-005  0.2247815E+04  0.7818608E-02  0.8498786E-01
         -2   -1    0    0    0  501 -0.00000000000E+00  0.00000000000E+00  0.64050937611E+03  0.64050937611E+03  0.00000000000E+00 0.  1.
          2   -1    0    0  501    0  0.00000000000E+00 -0.00000000000E+00 -0.19721313118E+04  0.19721313118E+04  0.00000000000E+00 0. -1.
         23    2    1    2    0    0  0.22769180667E+03  0.60529504360E+03  0.39876176555E+03  0.76535798021E+03  0.92391793885E+02 0.  0.
         13    1    3    3    0    0  0.15149691468E+03  0.44203077481E+03  0.33204373600E+03  0.57323255635E+03  0.00000000000E+00 0. -1.
        -13    1    3    3    0    0  0.76194891987E+02  0.16326426879E+03  0.66718029549E+02  0.19212542386E+03  0.00000000000E+00 0.  1.
         22    1    1    2    0    0 -0.22769180667E+03 -0.60529504360E+03 -0.17303837012E+04  0.18472827077E+04  0.00000000000E+00 0. -1.
<mgrwt>
<rscale>  0 0.22478155E+04</rscale>
<asrwt>0</asrwt>
<pdfrwt beam="1">  1        2 0.30340482E+00 0.22478155E+04</pdfrwt>
<pdfrwt beam="2">  1       -2 0.98539905E-01 0.22478155E+04</pdfrwt>
<totfact> 0.53912925E+00</totfact>
</mgrwt>
</event>
<event>
 6    1  0.1885829E-005  0.3016726E+04  0.7818608E-02  0.8238971E-01
          2   -1    0    0  501    0  0.00000000000E+00  0.00000000000E+00  0.36463707083E+04  0.36463707083E+04  0.00000000000E+00 0. -1.
         -2   -1    0    0    0  501 -0.00000000000E+00 -0.00000000000E+00 -0.62395156310E+03  0.62395156310E+03  0.00000000000E+00 0.  1.
         23    2    1    2    0    0  0.12111866589E+04  0.52109337169E+03  0.47971251752E+03  0.14060826831E+04  0.91831299086E+02 0.  0.
         11    1    3    3    0    0  0.10603875449E+04  0.43014311592E+03  0.43666624801E+03  0.12247947818E+04  0.00000000000E+00 0. -1.
        -11    1    3    3    0    0  0.15079911406E+03  0.90950255772E+02  0.43046269506E+02  0.18128790126E+03  0.00000000000E+00 0.  1.
         22    1    1    2    0    0 -0.12111866589E+04 -0.52109337169E+03  0.25427066277E+04  0.28642395883E+04  0.00000000000E+00 0. -1.
<mgrwt>
<rscale>  0 0.30167258E+04</rscale>
<asrwt>0</asrwt>
<pdfrwt beam="1">  1        2 0.56098010E+00 0.30167258E+04</pdfrwt>
<pdfrwt beam="2">  1       -2 0.95992550E-01 0.30167258E+04</pdfrwt>
<totfact> 0.49648879E-01</totfact>
</mgrwt>
</event>
<event>
 6    1  0.1885829E-005  0.9173850E+03  0.7818608E-02  0.9404106E-01
         -2   -1    0    0    0  501 -0.00000000000E+00  0.00000000000E+00  0.30356863882E+03  0.30356863882E+03  0.00000000000E+00 0. -1.
          2   -1    0    0  501    0  0.00000000000E+00 -0.00000000000E+00 -0.69308485492E+03  0.69308485492E+03  0.00000000000E+00 0.  1.
         23    2    1    2    0    0 -0.44871571104E+03  0.44910878180E+02 -0.13847224821E+03  0.48052768530E+03  0.91485061629E+02 0.  0.
         13    1    3    3    0    0 -0.10209358215E+03  0.49051238153E+02 -0.27574559248E+02  0.11657392418E+03  0.00000000000E+00 0. -1.
        -13    1    3    3    0    0 -0.34662212889E+03 -0.41403599729E+01 -0.11089768896E+03  0.36395376112E+03  0.00000000000E+00 0.  1.
         22    1    1    2    0    0  0.44871571104E+03 -0.44910878180E+02 -0.25104396790E+03  0.51612580844E+03  0.00000000000E+00 0. -1.
<mgrwt>
<rscale>  0 0.91738504E+03</rscale>
<asrwt>0</asrwt>
<pdfrwt beam="1">  1        2 0.10662844E+00 0.91738504E+03</pdfrwt>
<pdfrwt beam="2">  1       -2 0.46702868E-01 0.91738504E+03</pdfrwt>
<totfact> 0.18073976E+02</totfact>
</mgrwt>
</event>
<event>
 6    1  0.1885829E-005  0.2821063E+04  0.7818608E-02  0.8296759E-01
         -2   -1    0    0    0  501 -0.00000000000E+00  0.00000000000E+00  0.11925817204E+04  0.11925817204E+04  0.00000000000E+00 0.  1.
          2   -1    0    0  501    0  0.00000000000E+00 -0.00000000000E+00 -0.16683125607E+04  0.16683125607E+04  0.00000000000E+00 0. -1.
         23    2    1    2    0    0 -0.39308614735E+03  0.10186008326E+04  0.66526366865E+03  0.12816752194E+04  0.89728723883E+02 0.  0.
         13    1    3    3    0    0 -0.20303783431E+03  0.63619938333E+03  0.38398024514E+03  0.77033424315E+03  0.00000000000E+00 0. -1.
        -13    1    3    3    0    0 -0.19004831304E+03  0.38240144927E+03  0.28128342350E+03  0.51134097629E+03  0.00000000000E+00 0.  1.
         22    1    1    2    0    0  0.39308614735E+03 -0.10186008326E+04 -0.11409945089E+04  0.15792190617E+04  0.00000000000E+00 0. -1.
<mgrwt>
<rscale>  0 0.28210630E+04</rscale>
<asrwt>0</asrwt>
<pdfrwt beam="1">  1        2 0.25666347E+00 0.28210630E+04</pdfrwt>
<pdfrwt beam="2">  1       -2 0.18347411E+00 0.28210630E+04</pdfrwt>
<totfact> 0.15228747E+00</totfact>
</mgrwt>
</event>
<event>
 6    1  0.1885829E-005  0.2942938E+04  0.7818608E-02  0.8260216E-01
         -2   -1    0    0    0  501 -0.00000000000E+00  0.00000000000E+00  0.22236581238E+04  0.22236581238E+04  0.00000000000E+00 0.  1.
          2   -1    0    0  501    0  0.00000000000E+00 -0.00000000000E+00 -0.97372040749E+03  0.97372040749E+03  0.00000000000E+00 0. -1.
         23    2    1    2    0    0 -0.11213394930E+04  0.57051588889E+03 -0.20055464191E+03  0.12772694929E+04  0.91129331030E+02 0.  0.
         11    1    3    3    0    0 -0.30637757062E+03  0.11653233521E+03 -0.71593840378E+02  0.33551852245E+03  0.00000000000E+00 0. -1.
        -11    1    3    3    0    0 -0.81496192241E+03  0.45398355369E+03 -0.12896080153E+03  0.94175097044E+03  0.00000000000E+00 0.  1.
         22    1    1    2    0    0  0.11213394930E+04 -0.57051588889E+03  0.14504923582E+04  0.19201090384E+04  0.00000000000E+00 0.  1.
<mgrwt>
<rscale>  0 0.29429382E+04</rscale>
<asrwt>0</asrwt>
<pdfrwt beam="1">  1        2 0.14980314E+00 0.29429382E+04</pdfrwt>
<pdfrwt beam="2">  1       -2 0.34210125E+00 0.29429382E+04</pdfrwt>
<totfact> 0.39291768E-01</totfact>
</mgrwt>
</event>
<event>
 6    1  0.1885829E-005  0.5852356E+04  0.7818608E-02  0.7708982E-01
         -2   -1    0    0    0  501 -0.00000000000E+00  0.00000000000E+00  0.39023603061E+04  0.39023603061E+04  0.00000000000E+00 0.  1.
          2   -1    0    0  501    0  0.00000000000E+00 -0.00000000000E+00 -0.21941896124E+04  0.21941896124E+04  0.00000000000E+00 0. -1.
         23    2    1    2    0    0 -0.99518911359E+03  0.23128124068E+04  0.24061045127E+04  0.34837708968E+04  0.88420215491E+02 0.  0.
         11    1    3    3    0    0 -0.66762829009E+03  0.14701125974E+04  0.15804167664E+04  0.22593529468E+04  0.00000000000E+00 0.  1.
        -11    1    3    3    0    0 -0.32756082351E+03  0.84269980942E+03  0.82568774628E+03  0.12244179500E+04  0.00000000000E+00 0. -1.
         22    1    1    2    0    0  0.99518911359E+03 -0.23128124068E+04 -0.69793381895E+03  0.26127790217E+04  0.00000000000E+00 0.  1.
<mgrwt>
<rscale>  0 0.58523563E+04</rscale>
<asrwt>0</asrwt>
<pdfrwt beam="1">  1        2 0.33756763E+00 0.58523563E+04</pdfrwt>
<pdfrwt beam="2">  1       -2 0.60036312E+00 0.58523563E+04</pdfrwt>
<totfact> 0.18276989E-03</totfact>
</mgrwt>
</event>
<event>
 6    1  0.1885829E-005  0.2010941E+04  0.7818608E-02  0.8601522E-01
         -1   -1    0    0    0  501 -0.00000000000E+00  0.00000000000E+00  0.17836964321E+04  0.17836964321E+04  0.00000000000E+00 0.  1.
          1   -1    0    0  501    0  0.00000000000E+00 -0.00000000000E+00 -0.56678411364E+03  0.56678411364E+03  0.00000000000E+00 0. -1.
         23    2    1    2    0    0 -0.12856810608E+03  0.64431639592E+02  0.17704698446E+04  0.17785477448E+04  0.89372344353E+02 0.  0.
         13    1    3    3    0    0 -0.38373371237E+02  0.68852417328E+02  0.78311253918E+03  0.78706951409E+03  0.00000000000E+00 0.  1.
        -13    1    3    3    0    0 -0.90194734847E+02 -0.44207777365E+01  0.98735730539E+03  0.99147823072E+03  0.00000000000E+00 0. -1.
         22    1    1    2    0    0  0.12856810608E+03 -0.64431639592E+02 -0.55355752611E+03  0.57193280094E+03  0.00000000000E+00 0. -1.
<mgrwt>
<rscale>  0 0.20109409E+04</rscale>
<asrwt>0</asrwt>
<pdfrwt beam="1">  1        1 0.87197557E-01 0.20109409E+04</pdfrwt>
<pdfrwt beam="2">  1       -1 0.27441483E+00 0.20109409E+04</pdfrwt>
<totfact> 0.16667741E+00</totfact>
</mgrwt>
</event>
<event>
 6    1  0.1885829E-005  0.1758641E+04  0.7818608E-02  0.8728608E-01
         -2   -1    0    0    0  501 -0.00000000000E+00  0.00000000000E+00  0.64812882732E+03  0.64812882732E+03  0.00000000000E+00 0. -1.
          2   -1    0    0  501    0  0.00000000000E+00 -0.00000000000E+00 -0.11929794360E+04  0.11929794360E+04  0.00000000000E+00 0.  1.
         23    2    1    2    0    0  0.76477288212E+03  0.12411882208E+03 -0.70352486846E+03  0.10502476157E+04  0.88259676208E+02 0.  0.
         11    1    3    3    0    0  0.58411412674E+03  0.13243450665E+03 -0.53966633920E+03  0.80620590997E+03  0.00000000000E+00 0.  1.
        -11    1    3    3    0    0  0.18065875538E+03 -0.83156845708E+01 -0.16385852926E+03  0.24404170569E+03  0.00000000000E+00 0. -1.
         22    1    1    2    0    0 -0.76477288212E+03 -0.12411882208E+03  0.15867425982E+03  0.79086064761E+03  0.00000000000E+00 0. -1.
<mgrwt>
<rscale>  0 0.17586408E+04</rscale>
<asrwt>0</asrwt>
<pdfrwt beam="1">  1        2 0.18353530E+00 0.17586408E+04</pdfrwt>
<pdfrwt beam="2">  1       -2 0.99712128E-01 0.17586408E+04</pdfrwt>
<totfact> 0.15068303E+01</totfact>
</mgrwt>
</event>
<event>
 6    1  0.1885829E-005  0.3284348E+04  0.7818608E-02  0.8166889E-01
          2   -1    0    0  501    0  0.00000000000E+00  0.00000000000E+00  0.11359631941E+04  0.11359631941E+04  0.00000000000E+00 0. -1.
         -2   -1    0    0    0  501 -0.00000000000E+00 -0.00000000000E+00 -0.23739643664E+04  0.23739643664E+04  0.00000000000E+00 0.  1.
         23    2    1    2    0    0  0.12395784325E+04 -0.64486460234E+02 -0.17664343021E+04  0.21608705689E+04  0.91423617520E+02 0.  0.
         11    1    3    3    0    0  0.31191395479E+03 -0.20128644125E+02 -0.51576282678E+03  0.60308106503E+03  0.00000000000E+00 0.  1.
        -11    1    3    3    0    0  0.92766447773E+03 -0.44357816109E+02 -0.12506714753E+04  0.15577895038E+04  0.00000000000E+00 0. -1.
         22    1    1    2    0    0 -0.12395784325E+04  0.64486460234E+02  0.52843312983E+03  0.13490569916E+04  0.00000000000E+00 0. -1.
<mgrwt>
<rscale>  0 0.32843484E+04</rscale>
<asrwt>0</asrwt>
<pdfrwt beam="1">  1        2 0.17476357E+00 0.32843484E+04</pdfrwt>
<pdfrwt beam="2">  1       -2 0.36522529E+00 0.32843484E+04</pdfrwt>
<totfact> 0.21555474E-01</totfact>
</mgrwt>
</event>
<event>
 6    1  0.1885829E-005  0.2453651E+04  0.7818608E-02  0.8419686E-01
         -2   -1    0    0    0  501 -0.00000000000E+00  0.00000000000E+00  0.15272511528E+04  0.15272511528E+04  0.00000000000E+00 0. -1.
          2   -1    0    0  501    0  0.00000000000E+00 -0.00000000000E+00 -0.98549698264E+03  0.98549698264E+03  0.00000000000E+00 0.  1.
         23    2    1    2    0    0 -0.10309217423E+04  0.65877721051E+03  0.20674723877E+03  0.12442779167E+04  0.93252675105E+02 0.  0.
         13    1    3    3    0    0 -0.23698140511E+03  0.19342599263E+03  0.32021431639E+02  0.30756978570E+03  0.00000000000E+00 0.  1.
        -13    1    3    3    0    0 -0.79394033715E+03  0.46535121788E+03  0.17472580713E+03  0.93670813096E+03  0.00000000000E+00 0. -1.
         22    1    1    2    0    0  0.10309217423E+04 -0.65877721051E+03  0.33500693135E+03  0.12684702187E+04  0.00000000000E+00 0. -1.
<mgrwt>
<rscale>  0 0.24536515E+04</rscale>
<asrwt>0</asrwt>
<pdfrwt beam="1">  1        2 0.15161492E+00 0.24536515E+04</pdfrwt>
<pdfrwt beam="2">  1       -2 0.23496172E+00 0.24536515E+04</pdfrwt>
<totfact> 0.18341098E+00</totfact>
</mgrwt>
</event>
<event>
 6    1  0.1885829E-005  0.2272568E+04  0.7818608E-02  0.8488816E-01
          2   -1    0    0  501    0  0.00000000000E+00  0.00000000000E+00  0.73614765637E+03  0.73614765637E+03  0.00000000000E+00 0. -1.
         -2   -1    0    0    0  501 -0.00000000000E+00 -0.00000000000E+00 -0.17539165384E+04  0.17539165384E+04  0.00000000000E+00 0.  1.
         23    2    1    2    0    0  0.90197654246E+03  0.61345853046E+03 -0.85088386347E+03  0.13865499623E+04  0.92867632612E+02 0.  0.
         11    1    3    3    0    0  0.71800112637E+03  0.52179009882E+03 -0.71980118669E+03  0.11427616869E+04  0.00000000000E+00 0. -1.
        -11    1    3    3    0    0  0.18397541609E+03  0.91668431642E+02 -0.13108267678E+03  0.24378827543E+03  0.00000000000E+00 0.  1.
         22    1    1    2    0    0 -0.90197654246E+03 -0.61345853046E+03 -0.16688501854E+03  0.11035142324E+04  0.00000000000E+00 0. -1.
<mgrwt>
<rscale>  0 0.22725682E+04</rscale>
<asrwt>0</asrwt>
<pdfrwt beam="1">  1        2 0.11325349E+00 0.22725682E+04</pdfrwt>
<pdfrwt beam="2">  1       -2 0.26983331E+00 0.22725682E+04</pdfrwt>
<totfact> 0.16958164E+00</totfact>
</mgrwt>
</event>
<event>
 6    1  0.1885829E-005  0.1817934E+04  0.7818608E-02  0.8696820E-01
          1   -1    0    0  501    0  0.00000000000E+00  0.00000000000E+00  0.10386298033E+04  0.10386298033E+04  0.00000000000E+00 0. -1.
         -1   -1    0    0    0  501 -0.00000000000E+00 -0.00000000000E+00 -0.79549128548E+03  0.79549128548E+03  0.00000000000E+00 0.  1.
         23    2    1    2    0    0 -0.35031032526E+02 -0.89066854601E+03  0.28934847001E+03  0.94156689336E+03  0.91148480361E+02 0.  0.
         13    1    3    3    0    0 -0.31928779006E+02 -0.76158687777E+03  0.28019944556E+03  0.81212421994E+03  0.00000000000E+00 0. -1.
        -13    1    3    3    0    0 -0.31022535205E+01 -0.12908166824E+03  0.91490244531E+01  0.12944267342E+03  0.00000000000E+00 0.  1.
         22    1    1    2    0    0  0.35031032526E+02  0.89066854601E+03 -0.46209952182E+02  0.89255419543E+03  0.00000000000E+00 0.  1.
<mgrwt>
<rscale>  0 0.18179339E+04</rscale>
<asrwt>0</asrwt>
<pdfrwt beam="1">  1        1 0.15978920E+00 0.18179339E+04</pdfrwt>
<pdfrwt beam="2">  1       -1 0.12238327E+00 0.18179339E+04</pdfrwt>
<totfact> 0.78480792E+00</totfact>
</mgrwt>
</event>
<event>
 6    1  0.1885829E-005  0.1537511E+04  0.7818608E-02  0.8859885E-01
         -2   -1    0    0    0  501 -0.00000000000E+00  0.00000000000E+00  0.26934810584E+03  0.26934810584E+03  0.00000000000E+00 0.  1.
          2   -1    0    0  501    0  0.00000000000E+00 -0.00000000000E+00 -0.21941298201E+04  0.21941298201E+04  0.00000000000E+00 0. -1.
         23    2    1    2    0    0  0.60491334436E+03  0.47024453496E+03 -0.10036600789E+04  0.12653480732E+04  0.81988508889E+02 0.  0.
         13    1    3    3    0    0  0.42464584629E+03  0.28251474040E+03 -0.64885063982E+03  0.82531559183E+03  0.00000000000E+00 0.  1.
        -13    1    3    3    0    0  0.18026749807E+03  0.18772979456E+03 -0.35480943905E+03  0.44003248137E+03  0.00000000000E+00 0. -1.
         22    1    1    2    0    0 -0.60491334436E+03 -0.47024453496E+03 -0.92112163538E+03  0.11981298527E+04  0.00000000000E+00 0. -1.
<mgrwt>
<rscale>  0 0.15375106E+04</rscale>
<asrwt>0</asrwt>
<pdfrwt beam="1">  1        2 0.33755843E+00 0.15375106E+04</pdfrwt>
<pdfrwt beam="2">  1       -2 0.41438170E-01 0.15375106E+04</pdfrwt>
<totfact> 0.27685181E+01</totfact>
</mgrwt>
</event>
<event>
 6    1  0.1885829E-005  0.5639955E+04  0.7818608E-02  0.7736720E-01
         -2   -1    0    0    0  501 -0.00000000000E+00  0.00000000000E+00  0.33845566620E+04  0.33845566620E+04  0.00000000000E+00 0.  1.
          2   -1    0    0  501    0  0.00000000000E+00 -0.00000000000E+00 -0.23495758409E+04  0.23495758409E+04  0.00000000000E+00 0. -1.
         23    2    1    2    0    0 -0.31198619544E+00  0.27055262613E+04 -0.28814089709E+03  0.27224015174E+04  0.92587240911E+02 0.  0.
         13    1    3    3    0    0  0.74845056896E+00  0.16322170704E+04 -0.12825535450E+03  0.16372484726E+04  0.00000000000E+00 0. -1.
        -13    1    3    3    0    0 -0.10604367644E+01  0.10733091909E+04 -0.15988554259E+03  0.10851530448E+04  0.00000000000E+00 0.  1.
         22    1    1    2    0    0  0.31198619544E+00 -0.27055262613E+04  0.13231217183E+04  0.30117309855E+04  0.00000000000E+00 0.  1.
<mgrwt>
<rscale>  0 0.56399548E+04</rscale>
<asrwt>0</asrwt>
<pdfrwt beam="1">  1        2 0.36147320E+00 0.56399548E+04</pdfrwt>
<pdfrwt beam="2">  1       -2 0.52070103E+00 0.56399548E+04</pdfrwt>
<totfact> 0.36851702E-03</totfact>
</mgrwt>
</event>
<event>
 6    1  0.1885829E-005  0.2778310E+04  0.7818608E-02  0.8310034E-01
         -2   -1    0    0    0  501 -0.00000000000E+00  0.00000000000E+00  0.30548591233E+04  0.30548591233E+04  0.00000000000E+00 0.  1.
          2   -1    0    0  501    0  0.00000000000E+00 -0.00000000000E+00 -0.63169904410E+03  0.63169904410E+03  0.00000000000E+00 0. -1.
         23    2    1    2    0    0  0.11540303000E+04 -0.74004968786E+03  0.14974379221E+04  0.20323450656E+04  0.92987426598E+02 0.  0.
         11    1    3    3    0    0  0.71806793583E+03 -0.51328486284E+03  0.96649727432E+03  0.13088926206E+04  0.00000000000E+00 0. -1.
        -11    1    3    3    0    0  0.43596236419E+03 -0.22676482502E+03  0.53094064774E+03  0.72345244506E+03  0.00000000000E+00 0.  1.
         22    1    1    2    0    0 -0.11540303000E+04  0.74004968786E+03  0.92572215712E+03  0.16542131018E+04  0.00000000000E+00 0.  1.
<mgrwt>
<rscale>  0 0.27783100E+04</rscale>
<asrwt>0</asrwt>
<pdfrwt beam="1">  1        2 0.97184470E-01 0.27783100E+04</pdfrwt>
<pdfrwt beam="2">  1       -2 0.46997832E+00 0.27783100E+04</pdfrwt>
<totfact> 0.10391528E-01</totfact>
</mgrwt>
</event>
<event>
 6    1  0.1885829E-005  0.3368915E+04  0.7818608E-02  0.8145578E-01
          2   -1    0    0  501    0  0.00000000000E+00  0.00000000000E+00  0.49414169151E+04  0.49414169151E+04  0.00000000000E+00 0. -1.
         -2   -1    0    0    0  501 -0.00000000000E+00 -0.00000000000E+00 -0.57420723619E+03  0.57420723619E+03  0.00000000000E+00 0.  1.
         23    2    1    2    0    0  0.62937367557E+02  0.15715381409E+04  0.31667632101E+04  0.35370476516E+04  0.92863450832E+02 0.  0.
         11    1    3    3    0    0  0.35570775332E+01  0.94933588640E+03  0.18425234165E+04  0.20727141188E+04  0.00000000000E+00 0.  1.
        -11    1    3    3    0    0  0.59380290024E+02  0.62220225449E+03  0.13242397936E+04  0.14643335328E+04  0.00000000000E+00 0. -1.
         22    1    1    2    0    0 -0.62937367557E+02 -0.15715381409E+04  0.12004464688E+04  0.19785764997E+04  0.00000000000E+00 0.  1.
<mgrwt>
<rscale>  0 0.33689152E+04</rscale>
<asrwt>0</asrwt>
<pdfrwt beam="1">  1        2 0.76021796E+00 0.33689152E+04</pdfrwt>
<pdfrwt beam="2">  1       -2 0.88339578E-01 0.33689152E+04</pdfrwt>
<totfact> 0.36987808E-02</totfact>
</mgrwt>
</event>
<event>
 6    1  0.1885829E-005  0.3718926E+04  0.7818608E-02  0.8063780E-01
         -1   -1    0    0    0  501 -0.00000000000E+00  0.00000000000E+00  0.13593457565E+04  0.13593457565E+04  0.00000000000E+00 0.  1.
          1   -1    0    0  501    0  0.00000000000E+00 -0.00000000000E+00 -0.25435791783E+04  0.25435791783E+04  0.00000000000E+00 0. -1.
         23    2    1    2    0    0 -0.84489273599E+03 -0.95668483717E+03  0.82505262622E+03  0.15225216001E+04  0.90942694260E+02 0.  0.
         13    1    3    3    0    0 -0.56213052025E+03 -0.69935650533E+03  0.57923036270E+03  0.10679878541E+04  0.00000000000E+00 0.  1.
        -13    1    3    3    0    0 -0.28276221575E+03 -0.25732833184E+03  0.24582226352E+03  0.45453374601E+03  0.00000000000E+00 0. -1.
         22    1    1    2    0    0  0.84489273599E+03  0.95668483717E+03 -0.20092860481E+04  0.23804033347E+04  0.00000000000E+00 0. -1.
<mgrwt>
<rscale>  0 0.37189265E+04</rscale>
<asrwt>0</asrwt>
<pdfrwt beam="1">  1        1 0.39131987E+00 0.37189265E+04</pdfrwt>
<pdfrwt beam="2">  1       -1 0.20913012E+00 0.37189265E+04</pdfrwt>
<totfact> 0.13188174E-01</totfact>
</mgrwt>
</event>
<event>
 6    1  0.1885829E-005  0.2887396E+04  0.7818608E-02  0.8276637E-01
          2   -1    0    0  501    0  0.00000000000E+00  0.00000000000E+00  0.16155114930E+04  0.16155114930E+04  0.00000000000E+00 0. -1.
         -2   -1    0    0    0  501 -0.00000000000E+00 -0.00000000000E+00 -0.12901576784E+04  0.12901576784E+04  0.00000000000E+00 0.  1.
         23    2    1    2    0    0  0.44686393669E+03  0.60404391365E+03 -0.10760192925E+04  0.13155738872E+04  0.91436903980E+02 0.  0.
         11    1    3    3    0    0  0.96786305626E+02  0.10055891704E+03 -0.25657744221E+03  0.29208161292E+03  0.00000000000E+00 0.  1.
        -11    1    3    3    0    0  0.35007763107E+03  0.50348499660E+03 -0.81944185030E+03  0.10234922743E+04  0.00000000000E+00 0. -1.
         22    1    1    2    0    0 -0.44686393669E+03 -0.60404391365E+03  0.14013731071E+04  0.15900952842E+04  0.00000000000E+00 0. -1.
<mgrwt>
<rscale>  0 0.28873964E+04</rscale>
<asrwt>0</asrwt>
<pdfrwt beam="1">  1        2 0.24854023E+00 0.28873964E+04</pdfrwt>
<pdfrwt beam="2">  1       -2 0.19848580E+00 0.28873964E+04</pdfrwt>
<totfact> 0.12853795E+00</totfact>
</mgrwt>
</event>
<event>
 6    1  0.1885829E-005  0.1845705E+04  0.7818608E-02  0.8682365E-01
          2   -1    0    0  501    0  0.00000000000E+00  0.00000000000E+00  0.14562987499E+04  0.14562987499E+04  0.00000000000E+00 0. -1.
         -2   -1    0    0    0  501 -0.00000000000E+00 -0.00000000000E+00 -0.58480912418E+03  0.58480912418E+03  0.00000000000E+00 0.  1.
         23    2    1    2    0    0 -0.13830587660E+03 -0.79417284407E+03 -0.54673348511E+02  0.81325736341E+03  0.92516713791E+02 0.  0.
         13    1    3    3    0    0 -0.11947981110E+03 -0.61525101165E+03 -0.79024569880E+02  0.63170730187E+03  0.00000000000E+00 0.  1.
        -13    1    3    3    0    0 -0.18826065504E+02 -0.17892183243E+03  0.24351221369E+02  0.18155006153E+03  0.00000000000E+00 0. -1.
         22    1    1    2    0    0  0.13830587660E+03  0.79417284407E+03  0.92616297426E+03  0.12278505107E+04  0.00000000000E+00 0. -1.
<mgrwt>
<rscale>  0 0.18457051E+04</rscale>
<asrwt>0</asrwt>
<pdfrwt beam="1">  1        2 0.22404596E+00 0.18457051E+04</pdfrwt>
<pdfrwt beam="2">  1       -2 0.89970635E-01 0.18457051E+04</pdfrwt>
<totfact> 0.13369995E+01</totfact>
</mgrwt>
</event>
<event>
 6    1  0.1885829E-005  0.4295177E+04  0.7818608E-02  0.7947510E-01
          2   -1    0    0  501    0  0.00000000000E+00  0.00000000000E+00  0.19385288856E+04  0.19385288856E+04  0.00000000000E+00 0. -1.
         -2   -1    0    0    0  501 -0.00000000000E+00 -0.00000000000E+00 -0.23791945619E+04  0.23791945619E+04  0.00000000000E+00 0.  1.
         23    2    1    2    0    0  0.19669246692E+04  0.85075178185E+03 -0.34722032418E+03  0.21726585808E+04  0.85510855819E+02 0.  0.
         11    1    3    3    0    0  0.64206926343E+03  0.32080127327E+03 -0.10810965946E+03  0.72584715639E+03  0.00000000000E+00 0. -1.
        -11    1    3    3    0    0  0.13248554058E+04  0.52995050857E+03 -0.23911066473E+03  0.14468114244E+04  0.00000000000E+00 0.  1.
         22    1    1    2    0    0 -0.19669246692E+04 -0.85075178185E+03 -0.93445352192E+02  0.21450648667E+04  0.00000000000E+00 0.  1.
<mgrwt>
<rscale>  0 0.42951775E+04</rscale>
<asrwt>0</asrwt>
<pdfrwt beam="1">  1        2 0.29823521E+00 0.42951775E+04</pdfrwt>
<pdfrwt beam="2">  1       -2 0.36602993E+00 0.42951775E+04</pdfrwt>
<totfact> 0.68527863E-02</totfact>
</mgrwt>
</event>
<event>
 6    1  0.1885829E-005  0.1964599E+04  0.7818608E-02  0.8623353E-01
         -2   -1    0    0    0  501 -0.00000000000E+00  0.00000000000E+00  0.48337390764E+03  0.48337390764E+03  0.00000000000E+00 0.  1.
          2   -1    0    0  501    0  0.00000000000E+00 -0.00000000000E+00 -0.19962032096E+04  0.19962032096E+04  0.00000000000E+00 0. -1.
         23    2    1    2    0    0 -0.88292106461E+03 -0.14808533533E+03 -0.25423447963E+03  0.93505783938E+03  0.90659359647E+02 0.  0.
         13    1    3    3    0    0 -0.78683143032E+03 -0.13185325930E+03 -0.25512623277E+03  0.83760275571E+03  0.00000000000E+00 0.  1.
        -13    1    3    3    0    0 -0.96089634293E+02 -0.16232076027E+02  0.89175314135E+00  0.97455083676E+02  0.00000000000E+00 0. -1.
         22    1    1    2    0    0  0.88292106461E+03  0.14808533533E+03 -0.12585948223E+04  0.15445192778E+04  0.00000000000E+00 0. -1.
<mgrwt>
<rscale>  0 0.19645992E+04</rscale>
<asrwt>0</asrwt>
<pdfrwt beam="1">  1        2 0.30710819E+00 0.19645992E+04</pdfrwt>
<pdfrwt beam="2">  1       -2 0.74365216E-01 0.19645992E+04</pdfrwt>
<totfact> 0.10177894E+01</totfact>
</mgrwt>
</event>
<event>
 6    1  0.1885829E-005  0.9482345E+03  0.7818608E-02  0.9367217E-01
         -2   -1    0    0    0  501 -0.00000000000E+00  0.00000000000E+00  0.19138173575E+03  0.19138173575E+03  0.00000000000E+00 0.  1.
          2   -1    0    0  501    0  0.00000000000E+00 -0.00000000000E+00 -0.11745485803E+04  0.11745485803E+04  0.00000000000E+00 0. -1.
         23    2    1    2    0    0  0.50054801700E+02 -0.24547126329E+03  0.76555681144E+02  0.27699806115E+03  0.90030713058E+02 0.  0.
         11    1    3    3    0    0  0.43287179562E+02 -0.77562415990E+02 -0.74301907047E+01  0.89134258411E+02  0.00000000000E+00 0. -1.
        -11    1    3    3    0    0  0.67676221375E+01 -0.16790884730E+03  0.83985871849E+02  0.18786380274E+03  0.00000000000E+00 0.  1.
         22    1    1    2    0    0 -0.50054801700E+02  0.24547126329E+03 -0.10597225257E+04  0.10889322548E+04  0.00000000000E+00 0. -1.
<mgrwt>
<rscale>  0 0.94823446E+03</rscale>
<asrwt>0</asrwt>
<pdfrwt beam="1">  1        2 0.18069978E+00 0.94823446E+03</pdfrwt>
<pdfrwt beam="2">  1       -2 0.29443344E-01 0.94823446E+03</pdfrwt>
<totfact> 0.20817665E+02</totfact>
</mgrwt>
</event>
<event>
 6    1  0.1885829E-005  0.4581078E+04  0.7818608E-02  0.7896594E-01
          2   -1    0    0  501    0  0.00000000000E+00  0.00000000000E+00  0.24363528424E+04  0.24363528424E+04  0.00000000000E+00 0. -1.
         -2   -1    0    0    0  501 -0.00000000000E+00 -0.00000000000E+00 -0.21534518663E+04  0.21534518663E+04  0.00000000000E+00 0.  1.
         23    2    1    2    0    0  0.10828663653E+04 -0.63024277534E+03  0.20615526157E+04  0.24141652219E+04  0.91591541161E+02 0.  0.
         13    1    3    3    0    0  0.12140253372E+03 -0.64558181763E+02  0.17606526970E+03  0.22339497134E+03  0.00000000000E+00 0. -1.
        -13    1    3    3    0    0  0.96146383160E+03 -0.56568459358E+03  0.18854873460E+04  0.21907702506E+04  0.00000000000E+00 0.  1.
         22    1    1    2    0    0 -0.10828663653E+04  0.63024277534E+03 -0.17786516397E+04  0.21756394868E+04  0.00000000000E+00 0.  1.
<mgrwt>
<rscale>  0 0.45810779E+04</rscale>
<asrwt>0</asrwt>
<pdfrwt beam="1">  1        2 0.37482351E+00 0.45810779E+04</pdfrwt>
<pdfrwt beam="2">  1       -2 0.33130029E+00 0.45810779E+04</pdfrwt>
<totfact> 0.58113354E-02</totfact>
</mgrwt>
</event>
<event>
 6    1  0.1885829E-005  0.3860279E+04  0.7818608E-02  0.8033341E-01
          2   -1    0    0  501    0  0.00000000000E+00  0.00000000000E+00  0.24108446950E+04  0.24108446950E+04  0.00000000000E+00 0. -1.
         -2   -1    0    0    0  501 -0.00000000000E+00 -0.00000000000E+00 -0.15452836788E+04  0.15452836788E+04  0.00000000000E+00 0.  1.
         23    2    1    2    0    0 -0.16720822829E+04 -0.80975589805E+03  0.96535484031E+03  0.20956116223E+04  0.90079568339E+02 0.  0.
         11    1    3    3    0    0 -0.22884029573E+03 -0.98697271513E+02  0.97836460087E+02  0.26773308588E+03  0.00000000000E+00 0.  1.
        -11    1    3    3    0    0 -0.14432419872E+04 -0.71105862654E+03  0.86751838023E+03  0.18278785364E+04  0.00000000000E+00 0. -1.
         22    1    1    2    0    0  0.16720822829E+04  0.80975589805E+03 -0.99793824160E+02  0.18605167515E+04  0.00000000000E+00 0.  1.
<mgrwt>
<rscale>  0 0.38602792E+04</rscale>
<asrwt>0</asrwt>
<pdfrwt beam="1">  1        2 0.37089918E+00 0.38602792E+04</pdfrwt>
<pdfrwt beam="2">  1       -2 0.23773595E+00 0.38602792E+04</pdfrwt>
<totfact> 0.23923644E-01</totfact>
</mgrwt>
</event>
<event>
 6    1  0.1885829E-005  0.1745957E+04  0.7818608E-02  0.8735579E-01
         -2   -1    0    0    0  501 -0.00000000000E+00  0.00000000000E+00  0.97710469035E+03  0.97710469035E+03  0.00000000000E+00 0.  1.
          2   -1    0    0  501    0  0.00000000000E+00 -0.00000000000E+00 -0.77994889492E+03  0.77994889492E+03  0.00000000000E+00 0. -1.
         23    2    1    2    0    0  0.72535146624E+03 -0.21144477790E+03  0.53419167304E+03  0.92974661294E+03  0.90688351264E+02 0.  0.
         11    1    3    3    0    0  0.18662040728E+03 -0.13847998595E+02  0.13299285503E+03  0.22957796708E+03  0.00000000000E+00 0. -1.
        -11    1    3    3    0    0  0.53873105896E+03 -0.19759677930E+03  0.40119881801E+03  0.70016864586E+03  0.00000000000E+00 0.  1.
         22    1    1    2    0    0 -0.72535146624E+03  0.21144477790E+03 -0.33703587762E+03  0.82730697233E+03  0.00000000000E+00 0. -1.
<mgrwt>
<rscale>  0 0.17459573E+04</rscale>
<asrwt>0</asrwt>
<pdfrwt beam="1">  1        2 0.11999214E+00 0.17459573E+04</pdfrwt>
<pdfrwt beam="2">  1       -2 0.15032380E+00 0.17459573E+04</pdfrwt>
<totfact> 0.10058296E+01</totfact>
</mgrwt>
</event>
<event>
 6    1  0.1885829E-005  0.2355114E+04  0.7818608E-02  0.8456502E-01
          2   -1    0    0  501    0  0.00000000000E+00  0.00000000000E+00  0.14951596323E+04  0.14951596323E+04  0.00000000000E+00 0. -1.
         -2   -1    0    0    0  501 -0.00000000000E+00 -0.00000000000E+00 -0.92741962234E+03  0.92741962234E+03  0.00000000000E+00 0.  1.
         23    2    1    2    0    0  0.90889978140E+03 -0.44895821041E+03 -0.32694574028E+03  0.10704975711E+04  0.10681406865E+03 0.  0.
         13    1    3    3    0    0  0.35340115565E+03 -0.22719385117E+03 -0.15931759442E+03  0.44932340103E+03  0.00000000000E+00 0.  1.
        -13    1    3    3    0    0  0.55549862575E+03 -0.22176435924E+03 -0.16762814587E+03  0.62117417004E+03  0.00000000000E+00 0. -1.
         22    1    1    2    0    0 -0.90889978140E+03  0.44895821041E+03  0.89468575023E+03  0.13520816836E+04  0.00000000000E+00 0. -1.
<mgrwt>
<rscale>  0 0.23551139E+04</rscale>
<asrwt>0</asrwt>
<pdfrwt beam="1">  1        2 0.23002456E+00 0.23551139E+04</pdfrwt>
<pdfrwt beam="2">  1       -2 0.14267994E+00 0.23551139E+04</pdfrwt>
<totfact> 0.39416836E+00</totfact>
</mgrwt>
</event>
<event>
 6    1  0.1885829E-005  0.4088329E+04  0.7818608E-02  0.7986961E-01
         -2   -1    0    0    0  501 -0.00000000000E+00  0.00000000000E+00  0.10316818556E+04  0.10316818556E+04  0.00000000000E+00 0.  1.
          2   -1    0    0  501    0  0.00000000000E+00 -0.00000000000E+00 -0.40502870827E+04  0.40502870827E+04  0.00000000000E+00 0. -1.
         23    2    1    2    0    0 -0.16445167683E+04 -0.20859871627E+02 -0.30169492166E+04  0.34373190431E+04  0.91154226507E+02 0.  0.
         11    1    3    3    0    0 -0.27201921362E+03 -0.36913725594E+02 -0.49114544381E+03  0.56265524319E+03  0.00000000000E+00 0.  1.
        -11    1    3    3    0    0 -0.13724975547E+04  0.16053853967E+02 -0.25258037728E+04  0.28746637999E+04  0.00000000000E+00 0. -1.
         22    1    1    2    0    0  0.16445167683E+04  0.20859871627E+02 -0.16560103858E+01  0.16446498952E+04  0.00000000000E+00 0.  1.
<mgrwt>
<rscale>  0 0.40883286E+04</rscale>
<asrwt>0</asrwt>
<pdfrwt beam="1">  1        2 0.62312109E+00 0.40883286E+04</pdfrwt>
<pdfrwt beam="2">  1       -2 0.15872028E+00 0.40883286E+04</pdfrwt>
<totfact> 0.62511408E-02</totfact>
</mgrwt>
</event>
<event>
 6    1  0.1885829E-005  0.1319946E+04  0.7818608E-02  0.9013896E-01
         -2   -1    0    0    0  501 -0.00000000000E+00  0.00000000000E+00  0.17728336965E+03  0.17728336965E+03  0.00000000000E+00 0.  1.
          2   -1    0    0  501    0  0.00000000000E+00 -0.00000000000E+00 -0.24568809932E+04  0.24568809932E+04  0.00000000000E+00 0. -1.
         23    2    1    2    0    0 -0.53994349080E+03 -0.28728480963E+03 -0.66407498796E+03  0.90674289685E+03  0.84353756540E+02 0.  0.
         11    1    3    3    0    0 -0.21519585558E+03 -0.75797091650E+02 -0.27911440769E+03  0.36049869340E+03  0.00000000000E+00 0.  1.
        -11    1    3    3    0    0 -0.32474763522E+03 -0.21148771798E+03 -0.38496058027E+03  0.54624420345E+03  0.00000000000E+00 0. -1.
         22    1    1    2    0    0  0.53994349080E+03  0.28728480963E+03 -0.16155226356E+04  0.17274214660E+04  0.00000000000E+00 0.  1.
<mgrwt>
<rscale>  0 0.13199457E+04</rscale>
<asrwt>0</asrwt>
<pdfrwt beam="1">  1        2 0.37798168E+00 0.13199457E+04</pdfrwt>
<pdfrwt beam="2">  1       -2 0.27274365E-01 0.13199457E+04</pdfrwt>
<totfact> 0.44338494E+01</totfact>
</mgrwt>
</event>
<event>
 6    1  0.1885829E-005  0.1740884E+04  0.7818608E-02  0.8738384E-01
          2   -1    0    0  501    0  0.00000000000E+00  0.00000000000E+00  0.24317941002E+04  0.24317941002E+04  0.00000000000E+00 0. -1.
         -2   -1    0    0    0  501 -0.00000000000E+00 -0.00000000000E+00 -0.31156787441E+03  0.31156787441E+03  0.00000000000E+00 0.  1.
         23    2    1    2    0    0  0.63160461092E+03 -0.52725535517E+03  0.14992888922E+04  0.17125924726E+04  0.90461045236E+02 0.  0.
         11    1    3    3    0    0  0.25973675590E+03 -0.17874165661E+03  0.64212838690E+03  0.71536048775E+03  0.00000000000E+00 0. -1.
        -11    1    3    3    0    0  0.37186785502E+03 -0.34851369856E+03  0.85716050533E+03  0.99723198483E+03  0.00000000000E+00 0.  1.
         22    1    1    2    0    0 -0.63160461092E+03  0.52725535517E+03  0.62093733356E+03  0.10307695020E+04  0.00000000000E+00 0. -1.
<mgrwt>
<rscale>  0 0.17408836E+04</rscale>
<asrwt>0</asrwt>
<pdfrwt beam="1">  1        2 0.37412216E+00 0.17408836E+04</pdfrwt>
<pdfrwt beam="2">  1       -2 0.47933521E-01 0.17408836E+04</pdfrwt>
<totfact> 0.14926214E+01</totfact>
</mgrwt>
</event>
<event>
 6    1  0.1885829E-005  0.4219439E+04  0.7818608E-02  0.7961685E-01
          2   -1    0    0  501    0  0.00000000000E+00  0.00000000000E+00  0.17526660114E+04  0.17526660114E+04  0.00000000000E+00 0. -1.
         -2   -1    0    0    0  501 -0.00000000000E+00 -0.00000000000E+00 -0.25395122144E+04  0.25395122144E+04  0.00000000000E+00 0.  1.
         23    2    1    2    0    0 -0.92780427658E+03 -0.81792962770E+03  0.13437116207E+04  0.18286226060E+04  0.92032951071E+02 0.  0.
         11    1    3    3    0    0 -0.13212923441E+03 -0.14423843246E+03  0.17498276261E+03  0.26245347625E+03  0.00000000000E+00 0.  1.
        -11    1    3    3    0    0 -0.79567504217E+03 -0.67369119525E+03  0.11687288581E+04  0.15661691298E+04  0.00000000000E+00 0. -1.
         22    1    1    2    0    0  0.92780427658E+03  0.81792962770E+03 -0.21305578237E+04  0.24635556197E+04  0.00000000000E+00 0.  1.
<mgrwt>
<rscale>  0 0.42194392E+04</rscale>
<asrwt>0</asrwt>
<pdfrwt beam="1">  1        2 0.26964093E+00 0.42194392E+04</pdfrwt>
<pdfrwt beam="2">  1       -2 0.39069419E+00 0.42194392E+04</pdfrwt>
<totfact> 0.60632840E-02</totfact>
</mgrwt>
</event>
<event>
 6    1  0.1885829E-005  0.1064503E+04  0.7818608E-02  0.9240497E-01
          2   -1    0    0  501    0  0.00000000000E+00  0.00000000000E+00  0.76398798571E+03  0.76398798571E+03  0.00000000000E+00 0. -1.
         -2   -1    0    0    0  501 -0.00000000000E+00 -0.00000000000E+00 -0.37080644354E+03  0.37080644354E+03  0.00000000000E+00 0.  1.
         23    2    1    2    0    0  0.87052957427E+02  0.60172367889E+02  0.74972554555E+03  0.76287702228E+03  0.93241762167E+02 0.  0.
         13    1    3    3    0    0  0.17372394918E+02 -0.22434942860E+02  0.24963807813E+03  0.25124549114E+03  0.00000000000E+00 0.  1.
        -13    1    3    3    0    0  0.69680562509E+02  0.82607310749E+02  0.50008746743E+03  0.51163153114E+03  0.00000000000E+00 0. -1.
         22    1    1    2    0    0 -0.87052957427E+02 -0.60172367889E+02 -0.35654400339E+03  0.37191740697E+03  0.00000000000E+00 0.  1.
<mgrwt>
<rscale>  0 0.10645030E+04</rscale>
<asrwt>0</asrwt>
<pdfrwt beam="1">  1        2 0.11753661E+00 0.10645030E+04</pdfrwt>
<pdfrwt beam="2">  1       -2 0.57047145E-01 0.10645030E+04</pdfrwt>
<totfact> 0.10494035E+02</totfact>
</mgrwt>
</event>
<event>
 6    1  0.1885829E-005  0.3029890E+04  0.7818608E-02  0.8235247E-01
          2   -1    0    0  501    0  0.00000000000E+00  0.00000000000E+00  0.11679530035E+04  0.11679530035E+04  0.00000000000E+00 0. -1.
         -2   -1    0    0    0  501 -0.00000000000E+00 -0.00000000000E+00 -0.19650259276E+04  0.19650259276E+04  0.00000000000E+00 0.  1.
         23    2    1    2    0    0  0.83065687967E+03 -0.23368577918E+03 -0.16848492156E+04  0.18949374783E+04  0.86436520998E+02 0.  0.
         11    1    3    3    0    0  0.29579491843E+03 -0.41328702860E+02 -0.56358325178E+03  0.63783130774E+03  0.00000000000E+00 0. -1.
        -11    1    3    3    0    0  0.53486196124E+03 -0.19235707632E+03 -0.11212659639E+04  0.12571061706E+04  0.00000000000E+00 0.  1.
         22    1    1    2    0    0 -0.83065687967E+03  0.23368577918E+03  0.88777629147E+03  0.12380414528E+04  0.00000000000E+00 0. -1.
<mgrwt>
<rscale>  0 0.30298897E+04</rscale>
<asrwt>0</asrwt>
<pdfrwt beam="1">  1        2 0.17968508E+00 0.30298897E+04</pdfrwt>
<pdfrwt beam="2">  1       -2 0.30231168E+00 0.30298897E+04</pdfrwt>
<totfact> 0.52010997E-01</totfact>
</mgrwt>
</event>
<event>
 6    1  0.1885829E-005  0.1067815E+04  0.7818608E-02  0.9237142E-01
         -2   -1    0    0    0  501 -0.00000000000E+00  0.00000000000E+00  0.61082673954E+03  0.61082673954E+03  0.00000000000E+00 0.  1.
          2   -1    0    0  501    0  0.00000000000E+00 -0.00000000000E+00 -0.46667411836E+03  0.46667411836E+03  0.00000000000E+00 0. -1.
         23    2    1    2    0    0 -0.29774037428E+03 -0.39367240474E+03 -0.12179566299E+03  0.51682645811E+03  0.92995223283E+02 0.  0.
         11    1    3    3    0    0 -0.10034157078E+03 -0.16253526087E+03 -0.90171454610E+02  0.21122744395E+03  0.00000000000E+00 0.  1.
        -11    1    3    3    0    0 -0.19739880350E+03 -0.23113714387E+03 -0.31624208377E+02  0.30559901416E+03  0.00000000000E+00 0. -1.
         22    1    1    2    0    0  0.29774037428E+03  0.39367240474E+03  0.26594828417E+03  0.56067439979E+03  0.00000000000E+00 0.  1.
<mgrwt>
<rscale>  0 0.10678146E+04</rscale>
<asrwt>0</asrwt>
<pdfrwt beam="1">  1        2 0.71796018E-01 0.10678146E+04</pdfrwt>
<pdfrwt beam="2">  1       -2 0.93973345E-01 0.10678146E+04</pdfrwt>
<totfact> 0.63453924E+01</totfact>
</mgrwt>
</event>
<event>
 6    1  0.1885829E-005  0.3458271E+04  0.7818608E-02  0.8123751E-01
         -2   -1    0    0    0  501 -0.00000000000E+00  0.00000000000E+00  0.12607319301E+04  0.12607319301E+04  0.00000000000E+00 0.  1.
          2   -1    0    0  501    0  0.00000000000E+00 -0.00000000000E+00 -0.23715667139E+04  0.23715667139E+04  0.00000000000E+00 0. -1.
         23    2    1    2    0    0 -0.59226166577E+03  0.89291409096E+03  0.86796383634E+03  0.13820290083E+04  0.92593218051E+02 0.  0.
         11    1    3    3    0    0 -0.40710186497E+03  0.53911574052E+03  0.52318042968E+03  0.85445624354E+03  0.00000000000E+00 0. -1.
        -11    1    3    3    0    0 -0.18515980081E+03  0.35379835044E+03  0.34478340666E+03  0.52757276476E+03  0.00000000000E+00 0.  1.
         22    1    1    2    0    0  0.59226166577E+03 -0.89291409096E+03 -0.19787986201E+04  0.22502696357E+04  0.00000000000E+00 0. -1.
<mgrwt>
<rscale>  0 0.34582712E+04</rscale>
<asrwt>0</asrwt>
<pdfrwt beam="1">  1        2 0.36485641E+00 0.34582712E+04</pdfrwt>
<pdfrwt beam="2">  1       -2 0.19395876E+00 0.34582712E+04</pdfrwt>
<totfact> 0.49623972E-01</totfact>
</mgrwt>
</event>
<event>
 6    1  0.1885829E-005  0.3419858E+04  0.7818608E-02  0.8133050E-01
         -2   -1    0    0    0  501 -0.00000000000E+00  0.00000000000E+00  0.17530185363E+04  0.17530185363E+04  0.00000000000E+00 0.  1.
          2   -1    0    0  501    0  0.00000000000E+00 -0.00000000000E+00 -0.16678983530E+04  0.16678983530E+04  0.00000000000E+00 0. -1.
         23    2    1    2    0    0  0.12651666499E+04 -0.38405798672E+03 -0.10401380658E+04  0.16847275803E+04  0.90954024407E+02 0.  0.
         11    1    3    3    0    0  0.64358161182E+03 -0.20539167981E+03 -0.47485221698E+03  0.82575278455E+03  0.00000000000E+00 0.  1.
        -11    1    3    3    0    0  0.62158503811E+03 -0.17866630692E+03 -0.56528584885E+03  0.85897479576E+03  0.00000000000E+00 0. -1.
         22    1    1    2    0    0 -0.12651666499E+04  0.38405798672E+03  0.11252582492E+04  0.17361893090E+04  0.00000000000E+00 0.  1.
<mgrwt>
<rscale>  0 0.34198577E+04</rscale>
<asrwt>0</asrwt>
<pdfrwt beam="1">  1        2 0.25659975E+00 0.34198577E+04</pdfrwt>
<pdfrwt beam="2">  1       -2 0.26969516E+00 0.34198577E+04</pdfrwt>
<totfact> 0.41141813E-01</totfact>
</mgrwt>
</event>
<event>
 6    1  0.1885829E-005  0.1793734E+04  0.7818608E-02  0.8709639E-01
         -2   -1    0    0    0  501 -0.00000000000E+00  0.00000000000E+00  0.12811764697E+04  0.12811764697E+04  0.00000000000E+00 0.  1.
          2   -1    0    0  501    0  0.00000000000E+00 -0.00000000000E+00 -0.62783712154E+03  0.62783712154E+03  0.00000000000E+00 0. -1.
         23    2    1    2    0    0  0.14958669239E+03 -0.51632739805E+03 -0.43339740856E+03  0.69659166019E+03  0.91850241034E+02 0.  0.
         13    1    3    3    0    0  0.95175482949E+02 -0.17047974493E+03 -0.15471298322E+03  0.24911407661E+03  0.00000000000E+00 0.  1.
        -13    1    3    3    0    0  0.54411209444E+02 -0.34584765312E+03 -0.27868442533E+03  0.44747758358E+03  0.00000000000E+00 0. -1.
         22    1    1    2    0    0 -0.14958669239E+03  0.51632739805E+03  0.10867367568E+04  0.12124219311E+04  0.00000000000E+00 0.  1.
<mgrwt>
<rscale>  0 0.17937337E+04</rscale>
<asrwt>0</asrwt>
<pdfrwt beam="1">  1        2 0.96590327E-01 0.17937337E+04</pdfrwt>
<pdfrwt beam="2">  1       -2 0.19710407E+00 0.17937337E+04</pdfrwt>
<totfact> 0.61551877E+00</totfact>
</mgrwt>
</event>
<event>
 6    1  0.1885829E-005  0.1427781E+04  0.7818608E-02  0.8933951E-01
          2   -1    0    0  501    0  0.00000000000E+00  0.00000000000E+00  0.14278026050E+04  0.14278026050E+04  0.00000000000E+00 0. -1.
         -2   -1    0    0    0  501 -0.00000000000E+00 -0.00000000000E+00 -0.35693984154E+03  0.35693984154E+03  0.00000000000E+00 0.  1.
         23    2    1    2    0    0 -0.51806022348E+03 -0.48640810727E+03  0.54731524817E+03  0.90208665704E+03  0.96057867756E+02 0.  0.
         13    1    3    3    0    0 -0.78968142862E+02 -0.35312343124E+02  0.82770122830E+02  0.11972394246E+03  0.00000000000E+00 0. -1.
        -13    1    3    3    0    0 -0.43909208062E+03 -0.45109576414E+03  0.46454512534E+03  0.78236271458E+03  0.00000000000E+00 0.  1.
         22    1    1    2    0    0  0.51806022348E+03  0.48640810727E+03  0.52354751528E+03  0.88265578949E+03  0.00000000000E+00 0. -1.
<mgrwt>
<rscale>  0 0.14277810E+04</rscale>
<asrwt>0</asrwt>
<pdfrwt beam="1">  1        2 0.21966194E+00 0.14277810E+04</pdfrwt>
<pdfrwt beam="2">  1       -2 0.54913822E-01 0.14277810E+04</pdfrwt>
<totfact> 0.42259844E+01</totfact>
</mgrwt>
</event>
<event>
 6    1  0.1885829E-005  0.4169318E+04  0.7818608E-02  0.7971234E-01
          1   -1    0    0  501    0  0.00000000000E+00  0.00000000000E+00  0.45277127250E+04  0.45277127250E+04  0.00000000000E+00 0. -1.
         -1   -1    0    0    0  501 -0.00000000000E+00 -0.00000000000E+00 -0.95982323085E+03  0.95982323085E+03  0.00000000000E+00 0.  1.
         23    2    1    2    0    0 -0.10512217108E+03 -0.14833917348E+04 -0.13616353211E+03  0.14961063209E+04  0.91059903395E+02 0.  0.
         13    1    3    3    0    0  0.91462273819E+00 -0.70239558340E+02  0.11977882696E+02  0.71259397727E+02  0.00000000000E+00 0.  1.
        -13    1    3    3    0    0 -0.10603679382E+03 -0.14131521765E+04 -0.14814141481E+03  0.14248469231E+04  0.00000000000E+00 0. -1.
         22    1    1    2    0    0  0.10512217108E+03  0.14833917348E+04  0.37040530263E+04  0.39914296350E+04  0.00000000000E+00 0. -1.
<mgrwt>
<rscale>  0 0.41693183E+04</rscale>
<asrwt>0</asrwt>
<pdfrwt beam="1">  1        1 0.69657118E+00 0.41693183E+04</pdfrwt>
<pdfrwt beam="2">  1       -1 0.14766512E+00 0.41693183E+04</pdfrwt>
<totfact> 0.84172132E-03</totfact>
</mgrwt>
</event>
<event>
 6    1  0.1885829E-005  0.2144244E+04  0.7818608E-02  0.8542000E-01
         -2   -1    0    0    0  501 -0.00000000000E+00  0.00000000000E+00  0.37127503641E+03  0.37127503641E+03  0.00000000000E+00 0. -1.
          2   -1    0    0  501    0  0.00000000000E+00 -0.00000000000E+00 -0.30959403700E+04  0.30959403700E+04  0.00000000000E+00 0.  1.
         23    2    1    2    0    0  0.58234585217E+03  0.70872525063E+03 -0.47286189239E+03  0.10357473498E+04  0.88068331075E+02 0.  0.
         11    1    3    3    0    0  0.68031746687E+02  0.13084637362E+03 -0.87423492127E+02  0.17144083242E+03  0.00000000000E+00 0. -1.
        -11    1    3    3    0    0  0.51431410548E+03  0.57787887701E+03 -0.38543840026E+03  0.86430651738E+03  0.00000000000E+00 0.  1.
         22    1    1    2    0    0 -0.58234585217E+03 -0.70872525063E+03 -0.22518034412E+04  0.24314680566E+04  0.00000000000E+00 0.  1.
<mgrwt>
<rscale>  0 0.21442438E+04</rscale>
<asrwt>0</asrwt>
<pdfrwt beam="1">  1        2 0.47629853E+00 0.21442438E+04</pdfrwt>
<pdfrwt beam="2">  1       -2 0.57119235E-01 0.21442438E+04</pdfrwt>
<totfact> 0.40011286E+00</totfact>
</mgrwt>
</event>
<event>
 6    1  0.1885829E-005  0.3000581E+04  0.7818608E-02  0.8243565E-01
          2   -1    0    0  501    0  0.00000000000E+00  0.00000000000E+00  0.34544615914E+04  0.34544615914E+04  0.00000000000E+00 0. -1.
         -2   -1    0    0    0  501 -0.00000000000E+00 -0.00000000000E+00 -0.65158374607E+03  0.65158374607E+03  0.00000000000E+00 0.  1.
         23    2    1    2    0    0 -0.69280824564E+03 -0.80805384368E+03  0.28468981879E+04  0.30407415920E+04  0.91355665924E+02 0.  0.
         13    1    3    3    0    0 -0.49473090077E+03 -0.51162701781E+03  0.19151362737E+04  0.20431024978E+04  0.00000000000E+00 0. -1.
        -13    1    3    3    0    0 -0.19807734488E+03 -0.29642682587E+03  0.93176191421E+03  0.99763909427E+03  0.00000000000E+00 0.  1.
         22    1    1    2    0    0  0.69280824564E+03  0.80805384368E+03 -0.44020342560E+02  0.10653037454E+04  0.00000000000E+00 0.  1.
<mgrwt>
<rscale>  0 0.30005806E+04</rscale>
<asrwt>0</asrwt>
<pdfrwt beam="1">  1        2 0.53145562E+00 0.30005806E+04</pdfrwt>
<pdfrwt beam="2">  1       -2 0.10024366E+00 0.30005806E+04</pdfrwt>
<totfact> 0.61432299E-01</totfact>
</mgrwt>
</event>
<event>
 6    1  0.1885829E-005  0.4267429E+04  0.7818608E-02  0.7952668E-01
          2   -1    0    0  501    0  0.00000000000E+00  0.00000000000E+00  0.34126364033E+04  0.34126364033E+04  0.00000000000E+00 0. -1.
         -2   -1    0    0    0  501 -0.00000000000E+00 -0.00000000000E+00 -0.13340820883E+04  0.13340820883E+04  0.00000000000E+00 0.  1.
         23    2    1    2    0    0  0.18523245204E+04 -0.98891996062E+03  0.14549913590E+04  0.25563076677E+04  0.92952780942E+02 0.  0.
         13    1    3    3    0    0  0.10440983061E+04 -0.55290535472E+03  0.87435221319E+03  0.14698086259E+04  0.00000000000E+00 0. -1.
        -13    1    3    3    0    0  0.80822621434E+03 -0.43601460590E+03  0.58063914582E+03  0.10864990418E+04  0.00000000000E+00 0.  1.
         22    1    1    2    0    0 -0.18523245204E+04  0.98891996062E+03  0.62356295604E+03  0.21904108239E+04  0.00000000000E+00 0.  1.
<mgrwt>
<rscale>  0 0.42674288E+04</rscale>
<asrwt>0</asrwt>
<pdfrwt beam="1">  1        2 0.52502098E+00 0.42674288E+04</pdfrwt>
<pdfrwt beam="2">  1       -2 0.20524340E+00 0.42674288E+04</pdfrwt>
<totfact> 0.88548336E-02</totfact>
</mgrwt>
</event>
<event>
 6    1  0.1885829E-005  0.3228954E+04  0.7818608E-02  0.8181212E-01
         -1   -1    0    0    0  501 -0.00000000000E+00  0.00000000000E+00  0.13244376272E+04  0.13244376272E+04  0.00000000000E+00 0.  1.
          1   -1    0    0  501    0  0.00000000000E+00 -0.00000000000E+00 -0.19680326714E+04  0.19680326714E+04  0.00000000000E+00 0. -1.
         23    2    1    2    0    0 -0.99918122233E+03  0.86835172503E+03 -0.12615547510E+04  0.18315555056E+04  0.10333124929E+03 0.  0.
         13    1    3    3    0    0 -0.47405373951E+03  0.44235137718E+03 -0.55374811577E+03  0.85266562295E+03  0.00000000000E+00 0.  1.
        -13    1    3    3    0    0 -0.52512748282E+03  0.42600034784E+03 -0.70780663519E+03  0.97888988267E+03  0.00000000000E+00 0. -1.
         22    1    1    2    0    0  0.99918122233E+03 -0.86835172503E+03  0.61795970673E+03  0.14609147930E+04  0.00000000000E+00 0.  1.
<mgrwt>
<rscale>  0 0.32289543E+04</rscale>
<asrwt>0</asrwt>
<pdfrwt beam="1">  1        1 0.30277426E+00 0.32289543E+04</pdfrwt>
<pdfrwt beam="2">  1       -1 0.20375964E+00 0.32289543E+04</pdfrwt>
<totfact> 0.37075579E-01</totfact>
</mgrwt>
</event>
<event>
 6    1  0.1885829E-005  0.4195151E+04  0.7818608E-02  0.7966295E-01
          2   -1    0    0  501    0  0.00000000000E+00  0.00000000000E+00  0.26044405291E+04  0.26044405291E+04  0.00000000000E+00 0. -1.
         -2   -1    0    0    0  501 -0.00000000000E+00 -0.00000000000E+00 -0.16893546327E+04  0.16893546327E+04  0.00000000000E+00 0.  1.
         23    2    1    2    0    0  0.95739287531E+03 -0.16454393792E+04  0.13567866101E+04  0.23395251219E+04  0.91847820131E+02 0.  0.
         11    1    3    3    0    0  0.65991808801E+03 -0.10476207884E+04  0.88752026408E+03  0.15233822299E+04  0.00000000000E+00 0. -1.
        -11    1    3    3    0    0  0.29747478729E+03 -0.59781859081E+03  0.46926634606E+03  0.81614289199E+03  0.00000000000E+00 0.  1.
         22    1    1    2    0    0 -0.95739287531E+03  0.16454393792E+04 -0.44170071372E+03  0.19542700399E+04  0.00000000000E+00 0.  1.
<mgrwt>
<rscale>  0 0.41951513E+04</rscale>
<asrwt>0</asrwt>
<pdfrwt beam="1">  1        2 0.40068316E+00 0.41951513E+04</pdfrwt>
<pdfrwt beam="2">  1       -2 0.25990071E+00 0.41951513E+04</pdfrwt>
<totfact> 0.13124084E-01</totfact>
</mgrwt>
</event>
<event>
 6    1  0.1885829E-005  0.1386267E+04  0.7818608E-02  0.8963819E-01
          2   -1    0    0  501    0  0.00000000000E+00  0.00000000000E+00  0.36809599831E+03  0.36809599831E+03  0.00000000000E+00 0. -1.
         -2   -1    0    0    0  501 -0.00000000000E+00 -0.00000000000E+00 -0.13051870865E+04  0.13051870865E+04  0.00000000000E+00 0.  1.
         23    2    1    2    0    0 -0.65145577013E+03 -0.22734889559E+03 -0.45787640184E+03  0.83320638808E+03  0.92195146322E+02 0.  0.
         11    1    3    3    0    0 -0.34326673037E+03 -0.13075490689E+03 -0.29705588719E+03  0.47240987921E+03  0.00000000000E+00 0. -1.
        -11    1    3    3    0    0 -0.30818903976E+03 -0.96593988692E+02 -0.16082051465E+03  0.36079650887E+03  0.00000000000E+00 0.  1.
         22    1    1    2    0    0  0.65145577013E+03  0.22734889559E+03 -0.47921468635E+03  0.84007669672E+03  0.00000000000E+00 0. -1.
<mgrwt>
<rscale>  0 0.13862671E+04</rscale>
<asrwt>0</asrwt>
<pdfrwt beam="1">  1        2 0.56630154E-01 0.13862671E+04</pdfrwt>
<pdfrwt beam="2">  1       -2 0.20079801E+00 0.13862671E+04</pdfrwt>
<totfact> 0.11169174E+01</totfact>
</mgrwt>
</event>
<event>
 6    1  0.1885829E-005  0.1940877E+04  0.7818608E-02  0.8634773E-01
         -4   -1    0    0    0  501 -0.00000000000E+00  0.00000000000E+00  0.94907730622E+03  0.94907730622E+03  0.00000000000E+00 0.  1.
          4   -1    0    0  501    0  0.00000000000E+00 -0.00000000000E+00 -0.99228028482E+03  0.99228028482E+03  0.00000000000E+00 0. -1.
         23    2    1    2    0    0  0.81551720265E+03 -0.50051206085E+03  0.12675637041E+03  0.96952076770E+03  0.91228891748E+02 0.  0.
         13    1    3    3    0    0  0.62032428864E+03 -0.38340761346E+03  0.57126115702E+02  0.73148275047E+03  0.00000000000E+00 0. -1.
        -13    1    3    3    0    0  0.19519291401E+03 -0.11710444739E+03  0.69630254704E+02  0.23803801724E+03  0.00000000000E+00 0.  1.
         22    1    1    2    0    0 -0.81551720265E+03  0.50051206085E+03 -0.16995934900E+03  0.97183682334E+03  0.00000000000E+00 0. -1.
<mgrwt>
<rscale>  0 0.19408768E+04</rscale>
<asrwt>0</asrwt>
<pdfrwt beam="1">  1        4 0.15265850E+00 0.19408768E+04</pdfrwt>
<pdfrwt beam="2">  1       -4 0.14601189E+00 0.19408768E+04</pdfrwt>
<totfact> 0.16984021E-01</totfact>
</mgrwt>
</event>
<event>
 6    1  0.1885829E-005  0.2524106E+04  0.7818608E-02  0.8394448E-01
          2   -1    0    0  501    0  0.00000000000E+00  0.00000000000E+00  0.22468917063E+04  0.22468917063E+04  0.00000000000E+00 0. -1.
         -2   -1    0    0    0  501 -0.00000000000E+00 -0.00000000000E+00 -0.70888057848E+03  0.70888057848E+03  0.00000000000E+00 0.  1.
         23    2    1    2    0    0  0.11236446682E+04 -0.50011544724E+03  0.10927233410E+04  0.16477302311E+04  0.90982490752E+02 0.  0.
         11    1    3    3    0    0  0.81660109533E+03 -0.31832448212E+03  0.77678647639E+03  0.11711383585E+04  0.00000000000E+00 0.  1.
        -11    1    3    3    0    0  0.30704357291E+03 -0.18179096512E+03  0.31593686458E+03  0.47659187264E+03  0.00000000000E+00 0. -1.
         22    1    1    2    0    0 -0.11236446682E+04  0.50011544724E+03  0.44528778684E+03  0.13080420537E+04  0.00000000000E+00 0.  1.
<mgrwt>
<rscale>  0 0.25241061E+04</rscale>
<asrwt>0</asrwt>
<pdfrwt beam="1">  1        2 0.34567564E+00 0.25241061E+04</pdfrwt>
<pdfrwt beam="2">  1       -2 0.10905855E+00 0.25241061E+04</pdfrwt>
<totfact> 0.29008634E+00</totfact>
</mgrwt>
</event>
<event>
 6    1  0.1885829E-005  0.3170865E+04  0.7818608E-02  0.8196554E-01
          2   -1    0    0  501    0  0.00000000000E+00  0.00000000000E+00  0.21119762691E+04  0.21119762691E+04  0.00000000000E+00 0. -1.
         -2   -1    0    0    0  501 -0.00000000000E+00 -0.00000000000E+00 -0.11901633299E+04  0.11901633299E+04  0.00000000000E+00 0.  1.
         23    2    1    2    0    0  0.12540026157E+04 -0.96141668613E+03  0.34236324810E+03  0.16191046768E+04  0.86271410826E+02 0.  0.
         11    1    3    3    0    0  0.73924166311E+03 -0.57234348482E+03  0.15931721514E+03  0.94838667016E+03  0.00000000000E+00 0. -1.
        -11    1    3    3    0    0  0.51476095261E+03 -0.38907320131E+03  0.18304603296E+03  0.67071800669E+03  0.00000000000E+00 0.  1.
         22    1    1    2    0    0 -0.12540026157E+04  0.96141668613E+03  0.57944969117E+03  0.16830349222E+04  0.00000000000E+00 0. -1.
<mgrwt>
<rscale>  0 0.31708653E+04</rscale>
<asrwt>0</asrwt>
<pdfrwt beam="1">  1        2 0.32491943E+00 0.31708653E+04</pdfrwt>
<pdfrwt beam="2">  1       -2 0.18310205E+00 0.31708653E+04</pdfrwt>
<totfact> 0.84312001E-01</totfact>
</mgrwt>
</event>
<event>
 6    1  0.1885829E-005  0.9266771E+03  0.7818608E-02  0.9392835E-01
         -2   -1    0    0    0  501 -0.00000000000E+00  0.00000000000E+00  0.11403468870E+03  0.11403468870E+03  0.00000000000E+00 0.  1.
          2   -1    0    0  501    0  0.00000000000E+00 -0.00000000000E+00 -0.18826081425E+04  0.18826081425E+04  0.00000000000E+00 0. -1.
         23    2    1    2    0    0 -0.37439629962E+03  0.37566390661E+02 -0.14587316630E+04  0.15092151359E+04  0.90820915666E+02 0.  0.
         11    1    3    3    0    0 -0.10459436189E+03  0.14725490889E+02 -0.58606536598E+03  0.59550771097E+03  0.00000000000E+00 0. -1.
        -11    1    3    3    0    0 -0.26980193773E+03  0.22840899772E+02 -0.87266629705E+03  0.91370742490E+03  0.00000000000E+00 0.  1.
         22    1    1    2    0    0  0.37439629962E+03 -0.37566390661E+02 -0.30984179080E+03  0.48742769536E+03  0.00000000000E+00 0.  1.
<mgrwt>
<rscale>  0 0.92667715E+03</rscale>
<asrwt>0</asrwt>
<pdfrwt beam="1">  1        2 0.28963201E+00 0.92667715E+03</pdfrwt>
<pdfrwt beam="2">  1       -2 0.17543799E-01 0.92667715E+03</pdfrwt>
<totfact> 0.20971169E+02</totfact>
</mgrwt>
</event>
<event>
 6    1  0.1885829E-005  0.9995435E+03  0.7818608E-02  0.9309046E-01
          2   -1    0    0  501    0  0.00000000000E+00  0.00000000000E+00  0.10720862927E+03  0.10720862927E+03  0.00000000000E+00 0. -1.
         -2   -1    0    0    0  501 -0.00000000000E+00 -0.00000000000E+00 -0.23297734599E+04  0.23297734599E+04  0.00000000000E+00 0.  1.
         23    2    1    2    0    0  0.41251938297E+03 -0.25815068121E+03 -0.89189156465E+03  0.10201174674E+04  0.91406065205E+02 0.  0.
         11    1    3    3    0    0  0.10297007686E+03 -0.22067467357E+02 -0.17102331788E+03  0.20084517694E+03  0.00000000000E+00 0. -1.
        -11    1    3    3    0    0  0.30954930611E+03 -0.23608321385E+03 -0.72086824677E+03  0.81927229050E+03  0.00000000000E+00 0.  1.
         22    1    1    2    0    0 -0.41251938297E+03  0.25815068121E+03 -0.13306732660E+04  0.14168646218E+04  0.00000000000E+00 0.  1.
<mgrwt>
<rscale>  0 0.99954353E+03</rscale>
<asrwt>0</asrwt>
<pdfrwt beam="1">  1        2 0.16493635E-01 0.99954353E+03</pdfrwt>
<pdfrwt beam="2">  1       -2 0.35842669E+00 0.99954353E+03</pdfrwt>
<totfact> 0.50446102E+00</totfact>
</mgrwt>
</event>
<event>
 6    1  0.1885829E-005  0.2431614E+04  0.7818608E-02  0.8427762E-01
          2   -1    0    0  501    0  0.00000000000E+00  0.00000000000E+00  0.28908494624E+04  0.28908494624E+04  0.00000000000E+00 0. -1.
         -2   -1    0    0    0  501 -0.00000000000E+00 -0.00000000000E+00 -0.51133317344E+03  0.51133317344E+03  0.00000000000E+00 0.  1.
         23    2    1    2    0    0 -0.11438383829E+04  0.31167547799E+03  0.15574232632E+04  0.19594959780E+04  0.92463058573E+02 0.  0.
         11    1    3    3    0    0 -0.95379224706E+03  0.29497071597E+03  0.13079420186E+04  0.16454299431E+04  0.00000000000E+00 0.  1.
        -11    1    3    3    0    0 -0.19004613582E+03  0.16704762018E+02  0.24948124463E+03  0.31406603484E+03  0.00000000000E+00 0. -1.
         22    1    1    2    0    0  0.11438383829E+04 -0.31167547799E+03  0.82209302572E+03  0.14426866578E+04  0.00000000000E+00 0.  1.
<mgrwt>
<rscale>  0 0.24316145E+04</rscale>
<asrwt>0</asrwt>
<pdfrwt beam="1">  1        2 0.44474606E+00 0.24316145E+04</pdfrwt>
<pdfrwt beam="2">  1       -2 0.78666644E-01 0.24316145E+04</pdfrwt>
<totfact> 0.26209415E+00</totfact>
</mgrwt>
</event>
<event>
 6    1  0.1885829E-005  0.1283193E+04  0.7818608E-02  0.9043001E-01
         -1   -1    0    0    0  501 -0.00000000000E+00  0.00000000000E+00  0.19960546406E+03  0.19960546406E+03  0.00000000000E+00 0.  1.
          1   -1    0    0  501    0  0.00000000000E+00 -0.00000000000E+00 -0.20622976548E+04  0.20622976548E+04  0.00000000000E+00 0. -1.
         23    2    1    2    0    0  0.29190095236E+03  0.52080744587E+03 -0.53790349659E+03  0.80879897745E+03  0.91482526307E+02 0.  0.
         13    1    3    3    0    0  0.12302386599E+03  0.17373168975E+03 -0.24296467696E+03  0.32303158650E+03  0.00000000000E+00 0. -1.
        -13    1    3    3    0    0  0.16887708637E+03  0.34707575612E+03 -0.29493881963E+03  0.48576739095E+03  0.00000000000E+00 0.  1.
         22    1    1    2    0    0 -0.29190095236E+03 -0.52080744587E+03 -0.13247886942E+04  0.14531041414E+04  0.00000000000E+00 0. -1.
<mgrwt>
<rscale>  0 0.12831927E+04</rscale>
<asrwt>0</asrwt>
<pdfrwt beam="1">  1        1 0.31727656E+00 0.12831927E+04</pdfrwt>
<pdfrwt beam="2">  1       -1 0.30708533E-01 0.12831927E+04</pdfrwt>
<totfact> 0.26088107E+01</totfact>
</mgrwt>
</event>
<event>
 6    1  0.1885829E-005  0.1607586E+04  0.7818608E-02  0.8815901E-01
         -2   -1    0    0    0  501 -0.00000000000E+00  0.00000000000E+00  0.46989345984E+03  0.46989345984E+03  0.00000000000E+00 0.  1.
          2   -1    0    0  501    0  0.00000000000E+00 -0.00000000000E+00 -0.13749563939E+04  0.13749563939E+04  0.00000000000E+00 0. -1.
         23    2    1    2    0    0 -0.15770773973E+03  0.64612277368E+03  0.58668162978E+02  0.67389981329E+03  0.91392752300E+02 0.  0.
         13    1    3    3    0    0 -0.26161738784E+02  0.14668783404E+03 -0.23791673998E+02  0.15089002943E+03  0.00000000000E+00 0. -1.
        -13    1    3    3    0    0 -0.13154600095E+03  0.49943493964E+03  0.82459836976E+02  0.52300978386E+03  0.00000000000E+00 0.  1.
         22    1    1    2    0    0  0.15770773973E+03 -0.64612277368E+03 -0.96373109706E+03  0.11709500405E+04  0.00000000000E+00 0. -1.
<mgrwt>
<rscale>  0 0.16075858E+04</rscale>
<asrwt>0</asrwt>
<pdfrwt beam="1">  1        2 0.21153175E+00 0.16075858E+04</pdfrwt>
<pdfrwt beam="2">  1       -2 0.72291303E-01 0.16075858E+04</pdfrwt>
<totfact> 0.24829742E+01</totfact>
</mgrwt>
</event>
<event>
 6    1  0.1885829E-005  0.1653014E+04  0.7818608E-02  0.8788626E-01
          2   -1    0    0  501    0  0.00000000000E+00  0.00000000000E+00  0.15770162674E+04  0.15770162674E+04  0.00000000000E+00 0.  1.
         -2   -1    0    0    0  501 -0.00000000000E+00 -0.00000000000E+00 -0.43316834450E+03  0.43316834450E+03  0.00000000000E+00 0. -1.
         23    2    1    2    0    0 -0.13318671577E+03  0.13900107243E+03  0.15479262743E+04  0.15625918131E+04  0.92506346536E+02 0.  0.
         11    1    3    3    0    0 -0.77117438625E+02  0.35015402740E+02  0.90058578165E+03  0.90455952147E+03  0.00000000000E+00 0. -1.
        -11    1    3    3    0    0 -0.56069277140E+02  0.10398566969E+03  0.64734049268E+03  0.65803229161E+03  0.00000000000E+00 0.  1.
         22    1    1    2    0    0  0.13318671577E+03 -0.13900107243E+03 -0.40407835147E+03  0.44759279878E+03  0.00000000000E+00 0. -1.
<mgrwt>
<rscale>  0 0.16530136E+04</rscale>
<asrwt>0</asrwt>
<pdfrwt beam="1">  1        2 0.24261789E+00 0.16530136E+04</pdfrwt>
<pdfrwt beam="2">  1       -2 0.66641284E-01 0.16530136E+04</pdfrwt>
<totfact> 0.22694270E+01</totfact>
</mgrwt>
</event>
<event>
 6    1  0.1885829E-005  0.2202860E+04  0.7818608E-02  0.8517239E-01
         -1   -1    0    0    0  501 -0.00000000000E+00  0.00000000000E+00  0.11576821219E+04  0.11576821219E+04  0.00000000000E+00 0.  1.
          1   -1    0    0  501    0  0.00000000000E+00 -0.00000000000E+00 -0.10479112143E+04  0.10479112143E+04  0.00000000000E+00 0. -1.
         23    2    1    2    0    0 -0.92276946648E+03  0.53204418609E+03 -0.21801245356E+03  0.10911354249E+04  0.92046625839E+02 0.  0.
         11    1    3    3    0    0 -0.29875476266E+03  0.17935123987E+03 -0.11523415308E+03  0.36701523877E+03  0.00000000000E+00 0. -1.
        -11    1    3    3    0    0 -0.62401470382E+03  0.35269294622E+03 -0.10277830048E+03  0.72412018612E+03  0.00000000000E+00 0.  1.
         22    1    1    2    0    0  0.92276946648E+03 -0.53204418609E+03  0.32778336124E+03  0.11144579113E+04  0.00000000000E+00 0.  1.
<mgrwt>
<rscale>  0 0.22028600E+04</rscale>
<asrwt>0</asrwt>
<pdfrwt beam="1">  1        1 0.16121711E+00 0.22028600E+04</pdfrwt>
<pdfrwt beam="2">  1       -1 0.17810494E+00 0.22028600E+04</pdfrwt>
<totfact> 0.27191554E+00</totfact>
</mgrwt>
</event>
<event>
 6    1  0.1885829E-005  0.2266357E+04  0.7818608E-02  0.8491306E-01
         -2   -1    0    0    0  501 -0.00000000000E+00  0.00000000000E+00  0.11074020038E+04  0.11074020038E+04  0.00000000000E+00 0.  1.
          2   -1    0    0  501    0  0.00000000000E+00 -0.00000000000E+00 -0.11595546096E+04  0.11595546096E+04  0.00000000000E+00 0. -1.
         23    2    1    2    0    0  0.14626971799E+03  0.11163071538E+04  0.81837331124E+02  0.11331621897E+04  0.99109572616E+02 0.  0.
         11    1    3    3    0    0 -0.10517265275E+02  0.20471928164E+03  0.58360111926E+01  0.20507231937E+03  0.00000000000E+00 0. -1.
        -11    1    3    3    0    0  0.15678698327E+03  0.91158787214E+03  0.76001319932E+02  0.92808987032E+03  0.00000000000E+00 0.  1.
         22    1    1    2    0    0 -0.14626971799E+03 -0.11163071538E+04 -0.13398993688E+03  0.11337944237E+04  0.00000000000E+00 0. -1.
<mgrwt>
<rscale>  0 0.22663566E+04</rscale>
<asrwt>0</asrwt>
<pdfrwt beam="1">  1        2 0.17839302E+00 0.22663566E+04</pdfrwt>
<pdfrwt beam="2">  1       -2 0.17036954E+00 0.22663566E+04</pdfrwt>
<totfact> 0.38581821E+00</totfact>
</mgrwt>
</event>
<event>
 6    1  0.1885829E-005  0.8407542E+03  0.7818608E-02  0.9502831E-01
          2   -1    0    0  501    0  0.00000000000E+00  0.00000000000E+00  0.24148417113E+04  0.24148417113E+04  0.00000000000E+00 0. -1.
         -2   -1    0    0    0  501 -0.00000000000E+00 -0.00000000000E+00 -0.73179491451E+02  0.73179491451E+02  0.00000000000E+00 0.  1.
         23    2    1    2    0    0 -0.12304690944E+03  0.16638336889E+03  0.22483257252E+04  0.22610065147E+04  0.11982456145E+03 0.  0.
         13    1    3    3    0    0 -0.12273673933E+03  0.82232765273E+02  0.16801460057E+04  0.16866289264E+04  0.00000000000E+00 0.  1.
        -13    1    3    3    0    0 -0.31017011325E+00  0.84150603619E+02  0.56817971946E+03  0.57437758827E+03  0.00000000000E+00 0. -1.
         22    1    1    2    0    0  0.12304690944E+03 -0.16638336889E+03  0.93336494672E+02  0.22701468808E+03  0.00000000000E+00 0.  1.
<mgrwt>
<rscale>  0 0.84075416E+03</rscale>
<asrwt>0</asrwt>
<pdfrwt beam="1">  1        2 0.37151405E+00 0.84075416E+03</pdfrwt>
<pdfrwt beam="2">  1       -2 0.11258385E-01 0.84075416E+03</pdfrwt>
<totfact> 0.22628203E+02</totfact>
</mgrwt>
</event>
<event>
 6    1  0.1885829E-005  0.3949535E+04  0.7818608E-02  0.8014805E-01
          1   -1    0    0  501    0  0.00000000000E+00  0.00000000000E+00  0.14050738334E+04  0.14050738334E+04  0.00000000000E+00 0. -1.
         -1   -1    0    0    0  501 -0.00000000000E+00 -0.00000000000E+00 -0.27754463170E+04  0.27754463170E+04  0.00000000000E+00 0.  1.
         23    2    1    2    0    0 -0.76204826451E+03  0.14188695292E+04  0.52207134325E+03  0.16955147306E+04  0.91123081220E+02 0.  0.
         11    1    3    3    0    0 -0.65929475157E+02  0.15136270114E+03  0.79370061669E+02  0.18318561537E+03  0.00000000000E+00 0. -1.
        -11    1    3    3    0    0 -0.69611878935E+03  0.12675068281E+04  0.44270128158E+03  0.15123291152E+04  0.00000000000E+00 0.  1.
         22    1    1    2    0    0  0.76204826451E+03 -0.14188695292E+04 -0.18924438269E+04  0.24850054198E+04  0.00000000000E+00 0.  1.
<mgrwt>
<rscale>  0 0.39495352E+04</rscale>
<asrwt>0</asrwt>
<pdfrwt beam="1">  1        1 0.21616521E+00 0.39495352E+04</pdfrwt>
<pdfrwt beam="2">  1       -1 0.42699174E+00 0.39495352E+04</pdfrwt>
<totfact> 0.27923504E-02</totfact>
</mgrwt>
</event>
<event>
 6    1  0.1885829E-005  0.3055905E+04  0.7818608E-02  0.8227945E-01
         -1   -1    0    0    0  501 -0.00000000000E+00  0.00000000000E+00  0.14181000645E+04  0.14181000645E+04  0.00000000000E+00 0.  1.
          1   -1    0    0  501    0  0.00000000000E+00 -0.00000000000E+00 -0.16463140911E+04  0.16463140911E+04  0.00000000000E+00 0. -1.
         23    2    1    2    0    0 -0.30793130324E+03  0.69397512586E+03 -0.14422916015E+04  0.16324897438E+04  0.91621705789E+02 0.  0.
         11    1    3    3    0    0 -0.86906681522E+02  0.13746189068E+03 -0.24934285190E+03  0.29769178772E+03  0.00000000000E+00 0.  1.
        -11    1    3    3    0    0 -0.22102462172E+03  0.55651323519E+03 -0.11929487496E+04  0.13347979561E+04  0.00000000000E+00 0. -1.
         22    1    1    2    0    0  0.30793130324E+03 -0.69397512586E+03  0.12140775750E+04  0.14319244118E+04  0.00000000000E+00 0.  1.
<mgrwt>
<rscale>  0 0.30559045E+04</rscale>
<asrwt>0</asrwt>
<pdfrwt beam="1">  1        1 0.25327909E+00 0.30559045E+04</pdfrwt>
<pdfrwt beam="2">  1       -1 0.21816924E+00 0.30559045E+04</pdfrwt>
<totfact> 0.49734592E-01</totfact>
</mgrwt>
</event>
<event>
 6    1  0.1885829E-005  0.5257330E+04  0.7818608E-02  0.7789993E-01
          1   -1    0    0  501    0  0.00000000000E+00  0.00000000000E+00  0.23230497577E+04  0.23230497577E+04  0.00000000000E+00 0. -1.
         -1   -1    0    0    0  501 -0.00000000000E+00 -0.00000000000E+00 -0.29744868172E+04  0.29744868172E+04  0.00000000000E+00 0.  1.
         23    2    1    2    0    0 -0.13961964790E+04  0.16728644256E+04 -0.18058234478E+04  0.28316801460E+04  0.97847485394E+02 0.  0.
         13    1    3    3    0    0 -0.24679658700E+03  0.35249524746E+03 -0.37436808409E+03  0.57036209308E+03  0.00000000000E+00 0. -1.
        -13    1    3    3    0    0 -0.11493998920E+04  0.13203691781E+04 -0.14314553637E+04  0.22613180529E+04  0.00000000000E+00 0.  1.
         22    1    1    2    0    0  0.13961964790E+04 -0.16728644256E+04  0.11543863883E+04  0.24658564289E+04  0.00000000000E+00 0. -1.
<mgrwt>
<rscale>  0 0.52573305E+04</rscale>
<asrwt>0</asrwt>
<pdfrwt beam="1">  1        1 0.35739227E+00 0.52573305E+04</pdfrwt>
<pdfrwt beam="2">  1       -1 0.45761335E+00 0.52573305E+04</pdfrwt>
<totfact> 0.36536395E-03</totfact>
</mgrwt>
</event>
<event>
 6    1  0.1885829E-005  0.2317363E+04  0.7818608E-02  0.8471106E-01
         -2   -1    0    0    0  501 -0.00000000000E+00  0.00000000000E+00  0.32697420762E+03  0.32697420762E+03  0.00000000000E+00 0.  1.
          2   -1    0    0  501    0  0.00000000000E+00 -0.00000000000E+00 -0.41059601611E+04  0.41059601611E+04  0.00000000000E+00 0. -1.
         23    2    1    2    0    0  0.11083604330E+03 -0.74221423839E+03 -0.35766512595E+04  0.36556918502E+04  0.92098140498E+02 0.  0.
         11    1    3    3    0    0  0.20089758439E+02 -0.10613150321E+03 -0.68946552361E+03  0.69787549221E+03  0.00000000000E+00 0. -1.
        -11    1    3    3    0    0  0.90746284859E+02 -0.63608273518E+03 -0.28871857359E+04  0.29578163580E+04  0.00000000000E+00 0.  1.
         22    1    1    2    0    0 -0.11083604330E+03  0.74221423839E+03 -0.20233469397E+03  0.77724251849E+03  0.00000000000E+00 0.  1.
<mgrwt>
<rscale>  0 0.23173632E+04</rscale>
<asrwt>0</asrwt>
<pdfrwt beam="1">  1        2 0.63168618E+00 0.23173632E+04</pdfrwt>
<pdfrwt beam="2">  1       -2 0.50303725E-01 0.23173632E+04</pdfrwt>
<totfact> 0.95266715E-01</totfact>
</mgrwt>
</event>
<event>
 6    1  0.1885829E-005  0.8282955E+03  0.7818608E-02  0.9519940E-01
          2   -1    0    0  501    0  0.00000000000E+00  0.00000000000E+00  0.24111575186E+03  0.24111575186E+03  0.00000000000E+00 0. -1.
         -2   -1    0    0    0  501 -0.00000000000E+00 -0.00000000000E+00 -0.71135281229E+03  0.71135281229E+03  0.00000000000E+00 0.  1.
         23    2    1    2    0    0 -0.48565712887E+02 -0.30390937503E+03 -0.54811546038E+03  0.63500268901E+03  0.89879477302E+02 0.  0.
         11    1    3    3    0    0 -0.35104884617E+02 -0.15320754265E+03 -0.19235894115E+03  0.24840866790E+03  0.00000000000E+00 0. -1.
        -11    1    3    3    0    0 -0.13460828270E+02 -0.15070183239E+03 -0.35575651923E+03  0.38659402111E+03  0.00000000000E+00 0.  1.
         22    1    1    2    0    0  0.48565712887E+02  0.30390937503E+03  0.77878399950E+02  0.31746587514E+03  0.00000000000E+00 0.  1.
<mgrwt>
<rscale>  0 0.82829552E+03</rscale>
<asrwt>0</asrwt>
<pdfrwt beam="1">  1        2 0.37094732E-01 0.82829552E+03</pdfrwt>
<pdfrwt beam="2">  1       -2 0.10943889E+00 0.82829552E+03</pdfrwt>
<totfact> 0.93790270E+01</totfact>
</mgrwt>
</event>
<event>
 6    1  0.1885829E-005  0.3963316E+04  0.7818608E-02  0.8011988E-01
          2   -1    0    0  501    0  0.00000000000E+00  0.00000000000E+00  0.12101095680E+04  0.12101095680E+04  0.00000000000E+00 0. -1.
         -2   -1    0    0    0  501 -0.00000000000E+00 -0.00000000000E+00 -0.32451351835E+04  0.32451351835E+04  0.00000000000E+00 0.  1.
         23    2    1    2    0    0 -0.17629985333E+04  0.42988734271E+03 -0.12644782477E+03  0.18216851568E+04  0.97881571890E+02 0.  0.
         11    1    3    3    0    0 -0.12552710862E+04  0.30806032481E+03 -0.13437791804E+03  0.12994860863E+04  0.00000000000E+00 0. -1.
        -11    1    3    3    0    0 -0.50772744716E+03  0.12182701790E+03  0.79300932697E+01  0.52219907054E+03  0.00000000000E+00 0.  1.
         22    1    1    2    0    0  0.17629985333E+04 -0.42988734271E+03 -0.19085777907E+04  0.26335595947E+04  0.00000000000E+00 0.  1.
<mgrwt>
<rscale>  0 0.39633164E+04</rscale>
<asrwt>0</asrwt>
<pdfrwt beam="1">  1        2 0.18617070E+00 0.39633164E+04</pdfrwt>
<pdfrwt beam="2">  1       -2 0.49925157E+00 0.39633164E+04</pdfrwt>
<totfact> 0.24665617E-02</totfact>
</mgrwt>
</event>
<event>
 6    1  0.1885829E-005  0.4038288E+04  0.7818608E-02  0.7996867E-01
          2   -1    0    0  501    0  0.00000000000E+00  0.00000000000E+00  0.28643434409E+04  0.28643434409E+04  0.00000000000E+00 0. -1.
         -2   -1    0    0    0  501 -0.00000000000E+00 -0.00000000000E+00 -0.14233429856E+04  0.14233429856E+04  0.00000000000E+00 0.  1.
         23    2    1    2    0    0  0.14600835499E+04 -0.12811041659E+04  0.13960536314E+03  0.19495886864E+04  0.91293658779E+02 0.  0.
         11    1    3    3    0    0  0.43340578765E+03 -0.34352193850E+03  0.91310864597E+01  0.55311054568E+03  0.00000000000E+00 0.  1.
        -11    1    3    3    0    0  0.10266777623E+04 -0.93758222737E+03  0.13047427668E+03  0.13964781407E+04  0.00000000000E+00 0. -1.
         22    1    1    2    0    0 -0.14600835499E+04  0.12811041659E+04  0.13013950921E+04  0.23380977401E+04  0.00000000000E+00 0. -1.
<mgrwt>
<rscale>  0 0.40382883E+04</rscale>
<asrwt>0</asrwt>
<pdfrwt beam="1">  1        2 0.44066822E+00 0.40382883E+04</pdfrwt>
<pdfrwt beam="2">  1       -2 0.21897584E+00 0.40382883E+04</pdfrwt>
<totfact> 0.16665270E-01</totfact>
</mgrwt>
</event>
<event>
 6    1  0.1885829E-005  0.2845400E+04  0.7818608E-02  0.8289311E-01
         -4   -1    0    0    0  501 -0.00000000000E+00  0.00000000000E+00  0.82029544720E+03  0.82029544720E+03  0.00000000000E+00 0.  1.
          4   -1    0    0  501    0  0.00000000000E+00 -0.00000000000E+00 -0.24674951787E+04  0.24674951787E+04  0.00000000000E+00 0. -1.
         23    2    1    2    0    0  0.41575782447E+03  0.13005775700E+04 -0.36878363244E+03  0.14173082532E+04  0.91677331282E+02 0.  0.
         11    1    3    3    0    0  0.31917477341E+03  0.89409735694E+03 -0.28475528614E+03  0.99114488983E+03  0.00000000000E+00 0. -1.
        -11    1    3    3    0    0  0.96583051069E+02  0.40648021302E+03 -0.84028346302E+02  0.42616336341E+03  0.00000000000E+00 0.  1.
         22    1    1    2    0    0 -0.41575782447E+03 -0.13005775700E+04 -0.12784160991E+04  0.18704823727E+04  0.00000000000E+00 0.  1.
<mgrwt>
<rscale>  0 0.28453998E+04</rscale>
<asrwt>0</asrwt>
<pdfrwt beam="1">  1        4 0.37961464E+00 0.28453998E+04</pdfrwt>
<pdfrwt beam="2">  1       -4 0.12619930E+00 0.28453998E+04</pdfrwt>
<totfact> 0.75683324E-03</totfact>
</mgrwt>
</event>
<event>
 6    1  0.1885829E-005  0.5965240E+03  0.7818608E-02  0.9912644E-01
         -2   -1    0    0    0  501 -0.00000000000E+00  0.00000000000E+00  0.36869581347E+03  0.36869581347E+03  0.00000000000E+00 0.  1.
          2   -1    0    0  501    0  0.00000000000E+00 -0.00000000000E+00 -0.24128350078E+03  0.24128350078E+03  0.00000000000E+00 0. -1.
         23    2    1    2    0    0  0.47996671217E+02  0.18055862166E+03  0.29283991354E+03  0.36043695826E+03  0.96200257872E+02 0.  0.
         11    1    3    3    0    0  0.37046699707E+02  0.10910620313E+02  0.38648909024E+02  0.54637329396E+02  0.00000000000E+00 0. -1.
        -11    1    3    3    0    0  0.10949971510E+02  0.16964800135E+03  0.25419100452E+03  0.30579962887E+03  0.00000000000E+00 0.  1.
         22    1    1    2    0    0 -0.47996671217E+02 -0.18055862166E+03 -0.16542760086E+03  0.24954235599E+03  0.00000000000E+00 0. -1.
<mgrwt>
<rscale>  0 0.59652399E+03</rscale>
<asrwt>0</asrwt>
<pdfrwt beam="1">  1        2 0.37120538E-01 0.59652399E+03</pdfrwt>
<pdfrwt beam="2">  1       -2 0.56722433E-01 0.59652399E+03</pdfrwt>
<totfact> 0.41204776E+02</totfact>
</mgrwt>
</event>
<event>
 6    1  0.1885829E-005  0.1932555E+04  0.7818608E-02  0.8638819E-01
         -2   -1    0    0    0  501 -0.00000000000E+00  0.00000000000E+00  0.18735048946E+04  0.18735048946E+04  0.00000000000E+00 0.  1.
          2   -1    0    0  501    0  0.00000000000E+00 -0.00000000000E+00 -0.49836643603E+03  0.49836643603E+03  0.00000000000E+00 0. -1.
         23    2    1    2    0    0 -0.91917007155E+02  0.88296781118E+03  0.22761948270E+03  0.92105063470E+03  0.91884443744E+02 0.  0.
         11    1    3    3    0    0 -0.88162613310E+02  0.40935430182E+03  0.11412107314E+03  0.43401291472E+03  0.00000000000E+00 0. -1.
        -11    1    3    3    0    0 -0.37543938458E+01  0.47361350936E+03  0.11349840955E+03  0.48703771999E+03  0.00000000000E+00 0.  1.
         22    1    1    2    0    0  0.91917007155E+02 -0.88296781118E+03  0.11475189759E+04  0.14508206960E+04  0.00000000000E+00 0.  1.
<mgrwt>
<rscale>  0 0.19325547E+04</rscale>
<asrwt>0</asrwt>
<pdfrwt beam="1">  1        2 0.76671760E-01 0.19325547E+04</pdfrwt>
<pdfrwt beam="2">  1       -2 0.28823152E+00 0.19325547E+04</pdfrwt>
<totfact> 0.21678694E+00</totfact>
</mgrwt>
</event>
<event>
 6    1  0.1885829E-005  0.3544650E+04  0.7818608E-02  0.8103289E-01
         -2   -1    0    0    0  501 -0.00000000000E+00  0.00000000000E+00  0.16787558515E+04  0.16787558515E+04  0.00000000000E+00 0. -1.
          2   -1    0    0  501    0  0.00000000000E+00 -0.00000000000E+00 -0.18711093461E+04  0.18711093461E+04  0.00000000000E+00 0.  1.
         23    2    1    2    0    0  0.11274018928E+04 -0.12708293939E+04 -0.59804628753E+03  0.18032601997E+04  0.89697322689E+02 0.  0.
         13    1    3    3    0    0  0.56272074342E+03 -0.64010413871E+03 -0.34739016343E+03  0.92036290077E+03  0.00000000000E+00 0.  1.
        -13    1    3    3    0    0  0.56468114942E+03 -0.63072525515E+03 -0.25065612409E+03  0.88289729898E+03  0.00000000000E+00 0. -1.
         22    1    1    2    0    0 -0.11274018928E+04  0.12708293939E+04  0.40569279289E+03  0.17466049978E+04  0.00000000000E+00 0.  1.
<mgrwt>
<rscale>  0 0.35446499E+04</rscale>
<asrwt>0</asrwt>
<pdfrwt beam="1">  1        2 0.28786298E+00 0.35446499E+04</pdfrwt>
<pdfrwt beam="2">  1       -2 0.25827013E+00 0.35446499E+04</pdfrwt>
<totfact> 0.36881508E-01</totfact>
</mgrwt>
</event>
<event>
 6    1  0.1885829E-005  0.1598650E+04  0.7818608E-02  0.8821378E-01
          2   -1    0    0  501    0  0.00000000000E+00  0.00000000000E+00  0.12533969639E+04  0.12533969639E+04  0.00000000000E+00 0. -1.
         -2   -1    0    0    0  501 -0.00000000000E+00 -0.00000000000E+00 -0.50975109609E+03  0.50975109609E+03  0.00000000000E+00 0.  1.
         23    2    1    2    0    0  0.58443854057E+03  0.13003369715E+03  0.95280614298E+03  0.11289358000E+04  0.90439616695E+02 0.  0.
         11    1    3    3    0    0  0.16878002264E+03 -0.28264053136E+01  0.28302759024E+03  0.32954408118E+03  0.00000000000E+00 0.  1.
        -11    1    3    3    0    0  0.41565851794E+03  0.13286010247E+03  0.66977855274E+03  0.79939171879E+03  0.00000000000E+00 0. -1.
         22    1    1    2    0    0 -0.58443854057E+03 -0.13003369715E+03 -0.20916027514E+03  0.63421226005E+03  0.00000000000E+00 0.  1.
<mgrwt>
<rscale>  0 0.15986500E+04</rscale>
<asrwt>0</asrwt>
<pdfrwt beam="1">  1        2 0.19283030E+00 0.15986500E+04</pdfrwt>
<pdfrwt beam="2">  1       -2 0.78423246E-01 0.15986500E+04</pdfrwt>
<totfact> 0.24409576E+01</totfact>
</mgrwt>
</event>
<event>
 6    1  0.1885829E-005  0.4647262E+04  0.7818608E-02  0.7885351E-01
         -1   -1    0    0    0  501 -0.00000000000E+00  0.00000000000E+00  0.22751979170E+04  0.22751979170E+04  0.00000000000E+00 0.  1.
          1   -1    0    0  501    0  0.00000000000E+00 -0.00000000000E+00 -0.23730953769E+04  0.23730953769E+04  0.00000000000E+00 0. -1.
         23    2    1    2    0    0 -0.15884239963E+04 -0.16859968546E+04  0.12242304990E+03  0.23214462184E+04  0.91918204951E+02 0.  0.
         11    1    3    3    0    0 -0.13721910968E+04 -0.14901614038E+04  0.87052784494E+02  0.20275767810E+04  0.00000000000E+00 0.  1.
        -11    1    3    3    0    0 -0.21623289944E+03 -0.19583545073E+03  0.35370265402E+02  0.29386943740E+03  0.00000000000E+00 0. -1.
         22    1    1    2    0    0  0.15884239963E+04  0.16859968546E+04 -0.22032050976E+03  0.23268470754E+04  0.00000000000E+00 0. -1.
<mgrwt>
<rscale>  0 0.46472623E+04</rscale>
<asrwt>0</asrwt>
<pdfrwt beam="1">  1        1 0.36509160E+00 0.46472623E+04</pdfrwt>
<pdfrwt beam="2">  1       -1 0.35003045E+00 0.46472623E+04</pdfrwt>
<totfact> 0.19119245E-02</totfact>
</mgrwt>
</event>
<event>
 6    1  0.1885829E-005  0.9816140E+03  0.7818608E-02  0.9328943E-01
          2   -1    0    0  501    0  0.00000000000E+00  0.00000000000E+00  0.51397557474E+03  0.51397557474E+03  0.00000000000E+00 0. -1.
         -2   -1    0    0    0  501 -0.00000000000E+00 -0.00000000000E+00 -0.46868280081E+03  0.46868280081E+03  0.00000000000E+00 0.  1.
         23    2    1    2    0    0 -0.70146861185E+02  0.48102639415E+03  0.23892599273E+01  0.49465459942E+03  0.91490382870E+02 0.  0.
         11    1    3    3    0    0 -0.88028441107E+02  0.30447205295E+03  0.90634284271E+01  0.31707157427E+03  0.00000000000E+00 0. -1.
        -11    1    3    3    0    0  0.17881579923E+02  0.17655434120E+03 -0.66741684997E+01  0.17758302515E+03  0.00000000000E+00 0.  1.
         22    1    1    2    0    0  0.70146861185E+02 -0.48102639415E+03  0.42903514007E+02  0.48800377613E+03  0.00000000000E+00 0.  1.
<mgrwt>
<rscale>  0 0.98161400E+03</rscale>
<asrwt>0</asrwt>
<pdfrwt beam="1">  1        2 0.79073165E-01 0.98161400E+03</pdfrwt>
<pdfrwt beam="2">  1       -2 0.72105047E-01 0.98161400E+03</pdfrwt>
<totfact> 0.10388424E+02</totfact>
</mgrwt>
</event>
<event>
 6    1  0.1885829E-005  0.2630207E+04  0.7818608E-02  0.8358012E-01
         -2   -1    0    0    0  501 -0.00000000000E+00  0.00000000000E+00  0.81556386992E+03  0.81556386992E+03  0.00000000000E+00 0. -1.
          2   -1    0    0  501    0  0.00000000000E+00 -0.00000000000E+00 -0.21206149687E+04  0.21206149687E+04  0.00000000000E+00 0.  1.
         23    2    1    2    0    0  0.41841132743E+03  0.10166765452E+04 -0.14558123765E+04  0.18264814927E+04  0.89138829812E+02 0.  0.
         13    1    3    3    0    0  0.25679501887E+03  0.58901201892E+03 -0.78053917620E+03  0.10109996270E+04  0.00000000000E+00 0. -1.
        -13    1    3    3    0    0  0.16161630857E+03  0.42766452633E+03 -0.67527320031E+03  0.81548186573E+03  0.00000000000E+00 0.  1.
         22    1    1    2    0    0 -0.41841132743E+03 -0.10166765452E+04  0.15076127777E+03  0.11096973459E+04  0.00000000000E+00 0. -1.
<mgrwt>
<rscale>  0 0.26302068E+04</rscale>
<asrwt>0</asrwt>
<pdfrwt beam="1">  1        2 0.32624845E+00 0.26302068E+04</pdfrwt>
<pdfrwt beam="2">  1       -2 0.12547137E+00 0.26302068E+04</pdfrwt>
<totfact> 0.23978803E+00</totfact>
</mgrwt>
</event>
<event>
 6    1  0.1885829E-005  0.5748357E+03  0.7818608E-02  0.9959035E-01
          2   -1    0    0  501    0  0.00000000000E+00  0.00000000000E+00  0.52086518018E+03  0.52086518018E+03  0.00000000000E+00 0. -1.
         -2   -1    0    0    0  501 -0.00000000000E+00 -0.00000000000E+00 -0.15859964396E+03  0.15859964396E+03  0.00000000000E+00 0.  1.
         23    2    1    2    0    0  0.81992436276E+02  0.14042428590E+03  0.45543185341E+03  0.49205697389E+03  0.90885382613E+02 0.  0.
         13    1    3    3    0    0  0.67993007816E+02  0.11411465956E+03  0.43762273576E+03  0.45733889348E+03  0.00000000000E+00 0.  1.
        -13    1    3    3    0    0  0.13999428460E+02  0.26309626339E+02  0.17809117647E+02  0.34718080400E+02  0.00000000000E+00 0. -1.
         22    1    1    2    0    0 -0.81992436276E+02 -0.14042428590E+03 -0.93166317187E+02  0.18740785025E+03  0.00000000000E+00 0.  1.
<mgrwt>
<rscale>  0 0.57483574E+03</rscale>
<asrwt>0</asrwt>
<pdfrwt beam="1">  1        2 0.80133104E-01 0.57483574E+03</pdfrwt>
<pdfrwt beam="2">  1       -2 0.24399945E-01 0.57483574E+03</pdfrwt>
<totfact> 0.88275230E+02</totfact>
</mgrwt>
</event>
<event>
 6    1  0.1885829E-005  0.7036867E+03  0.7818608E-02  0.9710948E-01
          2   -1    0    0  501    0  0.00000000000E+00  0.00000000000E+00  0.13927454572E+04  0.13927454572E+04  0.00000000000E+00 0. -1.
         -2   -1    0    0    0  501 -0.00000000000E+00 -0.00000000000E+00 -0.88884688505E+02  0.88884688505E+02  0.00000000000E+00 0.  1.
         23    2    1    2    0    0 -0.73839448927E+02  0.11302390018E+03  0.13335770411E+04  0.13433922237E+04  0.89712183900E+02 0.  0.
         13    1    3    3    0    0 -0.49290877745E+02  0.45988180845E+02  0.99959613379E+03  0.10018667247E+04  0.00000000000E+00 0. -1.
        -13    1    3    3    0    0 -0.24548571182E+02  0.67035719332E+02  0.33398090730E+03  0.34152549898E+03  0.00000000000E+00 0.  1.
         22    1    1    2    0    0  0.73839448927E+02 -0.11302390018E+03 -0.29716272415E+02  0.13823792199E+03  0.00000000000E+00 0.  1.
<mgrwt>
<rscale>  0 0.70368671E+03</rscale>
<asrwt>0</asrwt>
<pdfrwt beam="1">  1        2 0.21426852E+00 0.70368671E+03</pdfrwt>
<pdfrwt beam="2">  1       -2 0.13674569E-01 0.70368671E+03</pdfrwt>
<totfact> 0.60574938E+02</totfact>
</mgrwt>
</event>
<event>
 6    1  0.1885829E-005  0.5028074E+04  0.7818608E-02  0.7824191E-01
          2   -1    0    0  501    0  0.00000000000E+00  0.00000000000E+00  0.31834236167E+04  0.31834236167E+04  0.00000000000E+00 0. -1.
         -2   -1    0    0    0  501 -0.00000000000E+00 -0.00000000000E+00 -0.19854036461E+04  0.19854036461E+04  0.00000000000E+00 0.  1.
         23    2    1    2    0    0 -0.63881312154E+03 -0.17215899485E+04  0.23631088262E+04  0.29941120639E+04  0.92030273688E+02 0.  0.
         13    1    3    3    0    0 -0.11670659375E+03 -0.30120800357E+03  0.47418975334E+03  0.57376180826E+03  0.00000000000E+00 0.  1.
        -13    1    3    3    0    0 -0.52210652779E+03 -0.14203819449E+04  0.18889190729E+04  0.24203502556E+04  0.00000000000E+00 0. -1.
         22    1    1    2    0    0  0.63881312154E+03  0.17215899485E+04 -0.11650888557E+04  0.21747151990E+04  0.00000000000E+00 0.  1.
<mgrwt>
<rscale>  0 0.50280735E+04</rscale>
<asrwt>0</asrwt>
<pdfrwt beam="1">  1        2 0.48975748E+00 0.50280735E+04</pdfrwt>
<pdfrwt beam="2">  1       -2 0.30544671E+00 0.50280735E+04</pdfrwt>
<totfact> 0.28396249E-02</totfact>
</mgrwt>
</event>
<event>
 6    1  0.1885829E-005  0.1412628E+04  0.7818608E-02  0.8944728E-01
         -2   -1    0    0    0  501 -0.00000000000E+00  0.00000000000E+00  0.48157218768E+03  0.48157218768E+03  0.00000000000E+00 0.  1.
          2   -1    0    0  501    0  0.00000000000E+00 -0.00000000000E+00 -0.10359388532E+04  0.10359388532E+04  0.00000000000E+00 0. -1.
         23    2    1    2    0    0  0.34616397890E+03 -0.18450180258E+03 -0.90568670466E+03  0.99092184104E+03  0.88245524567E+02 0.  0.
         11    1    3    3    0    0  0.27537717971E+03 -0.15898228373E+03 -0.63781432220E+03  0.71268160300E+03  0.00000000000E+00 0. -1.
        -11    1    3    3    0    0  0.70786799190E+02 -0.25519518857E+02 -0.26787238245E+03  0.27824023804E+03  0.00000000000E+00 0.  1.
         22    1    1    2    0    0 -0.34616397890E+03  0.18450180258E+03  0.35132003917E+03  0.52658919982E+03  0.00000000000E+00 0.  1.
<mgrwt>
<rscale>  0 0.14126278E+04</rscale>
<asrwt>0</asrwt>
<pdfrwt beam="1">  1        2 0.15937521E+00 0.14126278E+04</pdfrwt>
<pdfrwt beam="2">  1       -2 0.74088029E-01 0.14126278E+04</pdfrwt>
<totfact> 0.38127259E+01</totfact>
</mgrwt>
</event>
<event>
 6    1  0.1885829E-005  0.1906604E+04  0.7818608E-02  0.8651576E-01
          2   -1    0    0  501    0  0.00000000000E+00  0.00000000000E+00  0.14733381200E+04  0.14733381200E+04  0.00000000000E+00 0. -1.
         -2   -1    0    0    0  501 -0.00000000000E+00 -0.00000000000E+00 -0.61682032232E+03  0.61682032232E+03  0.00000000000E+00 0.  1.
         23    2    1    2    0    0  0.11566579334E+03 -0.87234625982E+03  0.82519840136E+03  0.12096202675E+04  0.88669144492E+02 0.  0.
         11    1    3    3    0    0  0.41706420503E+02 -0.11468469728E+03  0.93547796100E+02  0.15376343992E+03  0.00000000000E+00 0.  1.
        -11    1    3    3    0    0  0.73959372842E+02 -0.75766156254E+03  0.73165060526E+03  0.10558568276E+04  0.00000000000E+00 0. -1.
         22    1    1    2    0    0 -0.11566579334E+03  0.87234625982E+03  0.31319396338E+02  0.88053817484E+03  0.00000000000E+00 0. -1.
<mgrwt>
<rscale>  0 0.19066042E+04</rscale>
<asrwt>0</asrwt>
<pdfrwt beam="1">  1        2 0.22666740E+00 0.19066042E+04</pdfrwt>
<pdfrwt beam="2">  1       -2 0.94895434E-01 0.19066042E+04</pdfrwt>
<totfact> 0.11496674E+01</totfact>
</mgrwt>
</event>
<event>
 6    1  0.1885829E-005  0.4473232E+04  0.7818608E-02  0.7915340E-01
          2   -1    0    0  501    0  0.00000000000E+00  0.00000000000E+00  0.26180178415E+04  0.26180178415E+04  0.00000000000E+00 0. -1.
         -2   -1    0    0    0  501 -0.00000000000E+00 -0.00000000000E+00 -0.19107780781E+04  0.19107780781E+04  0.00000000000E+00 0.  1.
         23    2    1    2    0    0  0.31044465232E+02 -0.43159265114E+03  0.25744397585E+04  0.26121134219E+04  0.90335394057E+02 0.  0.
         13    1    3    3    0    0  0.10635671446E+02 -0.16274540777E+03  0.72458628742E+03  0.74271426078E+03  0.00000000000E+00 0. -1.
        -13    1    3    3    0    0  0.20408793786E+02 -0.26884724336E+03  0.18498534711E+04  0.18693991611E+04  0.00000000000E+00 0.  1.
         22    1    1    2    0    0 -0.31044465232E+02  0.43159265114E+03 -0.18671999951E+04  0.19166824977E+04  0.00000000000E+00 0.  1.
<mgrwt>
<rscale>  0 0.44732320E+04</rscale>
<asrwt>0</asrwt>
<pdfrwt beam="1">  1        2 0.40277198E+00 0.44732320E+04</pdfrwt>
<pdfrwt beam="2">  1       -2 0.29396586E+00 0.44732320E+04</pdfrwt>
<totfact> 0.78031908E-02</totfact>
</mgrwt>
</event>
<event>
 6    1  0.1885829E-005  0.4998711E+04  0.7818608E-02  0.7828706E-01
          2   -1    0    0  501    0  0.00000000000E+00  0.00000000000E+00  0.21511091495E+04  0.21511091495E+04  0.00000000000E+00 0. -1.
         -2   -1    0    0    0  501 -0.00000000000E+00 -0.00000000000E+00 -0.29039794772E+04  0.29039794772E+04  0.00000000000E+00 0.  1.
         23    2    1    2    0    0 -0.13017651264E+04 -0.10001730428E+04  0.15281856550E+04  0.22447229999E+04  0.92148740806E+02 0.  0.
         13    1    3    3    0    0 -0.16775223921E+03 -0.15034449716E+03  0.17428860892E+03  0.28481713570E+03  0.00000000000E+00 0. -1.
        -13    1    3    3    0    0 -0.11340128872E+04 -0.84982854569E+03  0.13538970461E+04  0.19599058642E+04  0.00000000000E+00 0.  1.
         22    1    1    2    0    0  0.13017651264E+04  0.10001730428E+04 -0.22810559827E+04  0.28103656267E+04  0.00000000000E+00 0.  1.
<mgrwt>
<rscale>  0 0.49987106E+04</rscale>
<asrwt>0</asrwt>
<pdfrwt beam="1">  1        2 0.33093987E+00 0.49987106E+04</pdfrwt>
<pdfrwt beam="2">  1       -2 0.44676607E+00 0.49987106E+04</pdfrwt>
<totfact> 0.14641116E-02</totfact>
</mgrwt>
</event>
<event>
 6    1  0.1885829E-005  0.5493797E+04  0.7818608E-02  0.7756543E-01
          2   -1    0    0  501    0  0.00000000000E+00  0.00000000000E+00  0.32295825833E+04  0.32295825833E+04  0.00000000000E+00 0. -1.
         -2   -1    0    0    0  501 -0.00000000000E+00 -0.00000000000E+00 -0.23363548515E+04  0.23363548515E+04  0.00000000000E+00 0.  1.
         23    2    1    2    0    0 -0.87883344823E+03 -0.18187522174E+04  0.23315555623E+04  0.30862207562E+04  0.91648008940E+02 0.  0.
         13    1    3    3    0    0 -0.66245232405E+03 -0.13989689561E+04  0.17291150979E+04  0.23207318336E+04  0.00000000000E+00 0.  1.
        -13    1    3    3    0    0 -0.21638112418E+03 -0.41978326136E+03  0.60244046447E+03  0.76548892262E+03  0.00000000000E+00 0. -1.
         22    1    1    2    0    0  0.87883344823E+03  0.18187522174E+04 -0.14383278305E+04  0.24797166786E+04  0.00000000000E+00 0.  1.
<mgrwt>
<rscale>  0 0.54937968E+04</rscale>
<asrwt>0</asrwt>
<pdfrwt beam="1">  1        2 0.49685885E+00 0.54937968E+04</pdfrwt>
<pdfrwt beam="2">  1       -2 0.35943921E+00 0.54937968E+04</pdfrwt>
<totfact> 0.11762927E-02</totfact>
</mgrwt>
</event>
<event>
 6    1  0.1885829E-005  0.1046199E+04  0.7818608E-02  0.9259277E-01
          2   -1    0    0  501    0  0.00000000000E+00  0.00000000000E+00  0.43066493644E+03  0.43066493644E+03  0.00000000000E+00 0. -1.
         -2   -1    0    0    0  501 -0.00000000000E+00 -0.00000000000E+00 -0.63537351886E+03  0.63537351886E+03  0.00000000000E+00 0.  1.
         23    2    1    2    0    0 -0.21397817433E+03 -0.47066710986E+03 -0.55345181855E+02  0.52787155478E+03  0.90945598007E+02 0.  0.
         11    1    3    3    0    0 -0.12225905057E+03 -0.26722522520E+03 -0.76645979231E+02  0.30369590475E+03  0.00000000000E+00 0.  1.
        -11    1    3    3    0    0 -0.91719123753E+02 -0.20344188466E+03  0.21300797376E+02  0.22417565002E+03  0.00000000000E+00 0. -1.
         22    1    1    2    0    0  0.21397817433E+03  0.47066710986E+03 -0.14936340057E+03  0.53816690052E+03  0.00000000000E+00 0.  1.
<mgrwt>
<rscale>  0 0.10461990E+04</rscale>
<asrwt>0</asrwt>
<pdfrwt beam="1">  1        2 0.66256144E-01 0.10461990E+04</pdfrwt>
<pdfrwt beam="2">  1       -2 0.97749772E-01 0.10461990E+04</pdfrwt>
<totfact> 0.63499937E+01</totfact>
</mgrwt>
</event>
<event>
 6    1  0.1885829E-005  0.5149795E+04  0.7818608E-02  0.7805806E-01
         -1   -1    0    0    0  501 -0.00000000000E+00  0.00000000000E+00  0.24515631603E+04  0.24515631603E+04  0.00000000000E+00 0.  1.
          1   -1    0    0  501    0  0.00000000000E+00 -0.00000000000E+00 -0.27044370615E+04  0.27044370615E+04  0.00000000000E+00 0. -1.
         23    2    1    2    0    0 -0.10847544442E+04 -0.19033167273E+04  0.12266229883E+04  0.25124764722E+04  0.92883256136E+02 0.  0.
         11    1    3    3    0    0 -0.52129076903E+03 -0.88263918652E+03  0.62386168785E+03  0.11999997521E+04  0.00000000000E+00 0. -1.
        -11    1    3    3    0    0 -0.56346367516E+03 -0.10206775408E+04  0.60276130047E+03  0.13124767201E+04  0.00000000000E+00 0.  1.
         22    1    1    2    0    0  0.10847544442E+04  0.19033167273E+04 -0.14794968895E+04  0.26435237496E+04  0.00000000000E+00 0. -1.
<mgrwt>
<rscale>  0 0.51497954E+04</rscale>
<asrwt>0</asrwt>
<pdfrwt beam="1">  1        1 0.41606724E+00 0.51497954E+04</pdfrwt>
<pdfrwt beam="2">  1       -1 0.37716356E+00 0.51497954E+04</pdfrwt>
<totfact> 0.71103753E-03</totfact>
</mgrwt>
</event>
<event>
 6    1  0.1885829E-005  0.3763224E+04  0.7818608E-02  0.8054093E-01
          2   -1    0    0  501    0  0.00000000000E+00  0.00000000000E+00  0.87259017069E+03  0.87259017069E+03  0.00000000000E+00 0. -1.
         -2   -1    0    0    0  501 -0.00000000000E+00 -0.00000000000E+00 -0.40574195430E+04  0.40574195430E+04  0.00000000000E+00 0.  1.
         23    2    1    2    0    0 -0.18404080186E+04 -0.38188608477E+03 -0.16705303357E+04  0.25162905443E+04  0.90043566632E+02 0.  0.
         11    1    3    3    0    0 -0.98099335696E+03 -0.16920730301E+03 -0.84426273442E+03  0.13052810588E+04  0.00000000000E+00 0.  1.
        -11    1    3    3    0    0 -0.85941466163E+03 -0.21267878176E+03 -0.82626760133E+03  0.12110094854E+04  0.00000000000E+00 0. -1.
         22    1    1    2    0    0  0.18404080186E+04  0.38188608477E+03 -0.15142990365E+04  0.24137191694E+04  0.00000000000E+00 0. -1.
<mgrwt>
<rscale>  0 0.37632244E+04</rscale>
<asrwt>0</asrwt>
<pdfrwt beam="1">  1        2 0.13424464E+00 0.37632244E+04</pdfrwt>
<pdfrwt beam="2">  1       -2 0.62421839E+00 0.37632244E+04</pdfrwt>
<totfact> 0.10102184E-02</totfact>
</mgrwt>
</event>
<event>
 6    1  0.1885829E-005  0.4804868E+04  0.7818608E-02  0.7859334E-01
         -2   -1    0    0    0  501 -0.00000000000E+00  0.00000000000E+00  0.16975810545E+04  0.16975810545E+04  0.00000000000E+00 0.  1.
          2   -1    0    0  501    0  0.00000000000E+00 -0.00000000000E+00 -0.33999496988E+04  0.33999496988E+04  0.00000000000E+00 0. -1.
         23    2    1    2    0    0  0.17164936262E+04 -0.80427976618E+03  0.71289859501E+03  0.20272323723E+04  0.90721406886E+02 0.  0.
         11    1    3    3    0    0  0.75281927512E+03 -0.40216578478E+03  0.31442964303E+03  0.90958242059E+03  0.00000000000E+00 0. -1.
        -11    1    3    3    0    0  0.96367435106E+03 -0.40211398140E+03  0.39846895198E+03  0.11176499517E+04  0.00000000000E+00 0.  1.
         22    1    1    2    0    0 -0.17164936262E+04  0.80427976618E+03 -0.24152672393E+04  0.30702983810E+04  0.00000000000E+00 0. -1.
<mgrwt>
<rscale>  0 0.48048684E+04</rscale>
<asrwt>0</asrwt>
<pdfrwt beam="1">  1        2 0.52306918E+00 0.48048684E+04</pdfrwt>
<pdfrwt beam="2">  1       -2 0.26116632E+00 0.48048684E+04</pdfrwt>
<totfact> 0.38630401E-02</totfact>
</mgrwt>
</event>
<event>
 6    1  0.1885829E-005  0.1685820E+04  0.7818608E-02  0.8769494E-01
         -2   -1    0    0    0  501 -0.00000000000E+00  0.00000000000E+00  0.29807142102E+03  0.29807142102E+03  0.00000000000E+00 0. -1.
          2   -1    0    0  501    0  0.00000000000E+00 -0.00000000000E+00 -0.23836464496E+04  0.23836464496E+04  0.00000000000E+00 0.  1.
         23    2    1    2    0    0 -0.45253628828E+02 -0.51224796999E+03  0.11786655382E+02  0.52223369448E+03  0.90239862158E+02 0.  0.
         11    1    3    3    0    0  0.63044318287E+01 -0.33380926102E+03 -0.16886309830E+02  0.33429555196E+03  0.00000000000E+00 0. -1.
        -11    1    3    3    0    0 -0.51558060657E+02 -0.17843870897E+03  0.28672965212E+02  0.18793814252E+03  0.00000000000E+00 0.  1.
         22    1    1    2    0    0  0.45253628828E+02  0.51224796999E+03 -0.20973616839E+04  0.21594841761E+04  0.00000000000E+00 0.  1.
<mgrwt>
<rscale>  0 0.16858195E+04</rscale>
<asrwt>0</asrwt>
<pdfrwt beam="1">  1        2 0.36671482E+00 0.16858195E+04</pdfrwt>
<pdfrwt beam="2">  1       -2 0.45857144E-01 0.16858195E+04</pdfrwt>
<totfact> 0.17469758E+01</totfact>
</mgrwt>
</event>
<event>
 6    1  0.1885829E-005  0.1519288E+04  0.7818608E-02  0.8871727E-01
          2   -1    0    0  501    0  0.00000000000E+00  0.00000000000E+00  0.75524580458E+03  0.75524580458E+03  0.00000000000E+00 0.  1.
         -2   -1    0    0    0  501 -0.00000000000E+00 -0.00000000000E+00 -0.76406742682E+03  0.76406742682E+03  0.00000000000E+00 0. -1.
         23    2    1    2    0    0 -0.28573549499E+03  0.34092216232E+03  0.60810788415E+03  0.75873798219E+03  0.89528950635E+02 0.  0.
         11    1    3    3    0    0 -0.15646403605E+03  0.21048700809E+03  0.42497130788E+03  0.49938601069E+03  0.00000000000E+00 0. -1.
        -11    1    3    3    0    0 -0.12927145895E+03  0.13043515423E+03  0.18313657627E+03  0.25935197151E+03  0.00000000000E+00 0.  1.
         22    1    1    2    0    0  0.28573549499E+03 -0.34092216232E+03 -0.61692950638E+03  0.76057524921E+03  0.00000000000E+00 0. -1.
<mgrwt>
<rscale>  0 0.15192876E+04</rscale>
<asrwt>0</asrwt>
<pdfrwt beam="1">  1        2 0.11619166E+00 0.15192876E+04</pdfrwt>
<pdfrwt beam="2">  1       -2 0.11754883E+00 0.15192876E+04</pdfrwt>
<totfact> 0.20034654E+01</totfact>
</mgrwt>
</event>
<event>
 6    1  0.1885829E-005  0.2101126E+04  0.7818608E-02  0.8560747E-01
         -2   -1    0    0    0  501 -0.00000000000E+00  0.00000000000E+00  0.53315415606E+03  0.53315415606E+03  0.00000000000E+00 0.  1.
          2   -1    0    0  501    0  0.00000000000E+00 -0.00000000000E+00 -0.20701008470E+04  0.20701008470E+04  0.00000000000E+00 0. -1.
         23    2    1    2    0    0 -0.36510955364E+03  0.72376009100E+03  0.53789158805E+02  0.81787711612E+03  0.94318863382E+02 0.  0.
         13    1    3    3    0    0 -0.25929704808E+03  0.51472227797E+03 -0.48177153640E+01  0.57636550293E+03  0.00000000000E+00 0. -1.
        -13    1    3    3    0    0 -0.10581250556E+03  0.20903781303E+03  0.58606874170E+02  0.24151161319E+03  0.00000000000E+00 0.  1.
         22    1    1    2    0    0  0.36510955364E+03 -0.72376009100E+03 -0.15907358498E+04  0.17853778869E+04  0.00000000000E+00 0. -1.
<mgrwt>
<rscale>  0 0.21011262E+04</rscale>
<asrwt>0</asrwt>
<pdfrwt beam="1">  1        2 0.31847706E+00 0.21011262E+04</pdfrwt>
<pdfrwt beam="2">  1       -2 0.82023715E-01 0.21011262E+04</pdfrwt>
<totfact> 0.73506732E+00</totfact>
</mgrwt>
</event>
<event>
 6    1  0.2260286E-005  0.4278838E+04  0.7818608E-02  0.7950543E-01
          2   -1    0    0  501    0  0.00000000000E+00  0.00000000000E+00  0.36988186071E+04  0.36988186071E+04  0.00000000000E+00 0. -1.
         -2   -1    0    0    0  501 -0.00000000000E+00 -0.00000000000E+00 -0.12374528045E+04  0.12374528045E+04  0.00000000000E+00 0.  1.
         23    2    1    2    0    0 -0.75091617567E+02 -0.15991767200E+04  0.28667564819E+04  0.32848034175E+04  0.92929177574E+02 0.  0.
         13    1    3    3    0    0 -0.60778525494E+02 -0.58622596948E+03  0.99335054124E+03  0.11550325598E+04  0.00000000000E+00 0. -1.
        -13    1    3    3    0    0 -0.14313092073E+02 -0.10129507505E+04  0.18734059406E+04  0.21297708576E+04  0.00000000000E+00 0.  1.
         22    1    1    2    0    0  0.75091617567E+02  0.15991767200E+04 -0.40539067925E+03  0.16514679941E+04  0.00000000000E+00 0.  1.
<mgrwt>
<rscale>  0 0.42788379E+04</rscale>
<asrwt>0</asrwt>
<pdfrwt beam="1">  1        2 0.56904901E+00 0.42788379E+04</pdfrwt>
<pdfrwt beam="2">  1       -2 0.19037736E+00 0.42788379E+04</pdfrwt>
<totfact> 0.69340201E-02</totfact>
</mgrwt>
</event>
<event>
 6    1  0.1885829E-005  0.1544926E+04  0.7818608E-02  0.8855115E-01
          2   -1    0    0  501    0  0.00000000000E+00  0.00000000000E+00  0.14781706983E+04  0.14781706983E+04  0.00000000000E+00 0. -1.
         -2   -1    0    0    0  501 -0.00000000000E+00 -0.00000000000E+00 -0.40367394009E+03  0.40367394009E+03  0.00000000000E+00 0.  1.
         23    2    1    2    0    0 -0.59738269707E+03  0.45348117508E+03  0.32763024150E+03  0.82339253428E+03  0.90124510793E+02 0.  0.
         13    1    3    3    0    0 -0.10210593765E+03  0.10308330182E+03  0.32341354718E+02  0.14865312927E+03  0.00000000000E+00 0.  1.
        -13    1    3    3    0    0 -0.49527675943E+03  0.35039787325E+03  0.29528888678E+03  0.67473940501E+03  0.00000000000E+00 0. -1.
         22    1    1    2    0    0  0.59738269707E+03 -0.45348117508E+03  0.74686651668E+03  0.10584521041E+04  0.00000000000E+00 0. -1.
<mgrwt>
<rscale>  0 0.15449259E+04</rscale>
<asrwt>0</asrwt>
<pdfrwt beam="1">  1        2 0.22741087E+00 0.15449259E+04</pdfrwt>
<pdfrwt beam="2">  1       -2 0.62103684E-01 0.15449259E+04</pdfrwt>
<totfact> 0.30268520E+01</totfact>
</mgrwt>
</event>
<event>
 6    1  0.1885829E-005  0.2114447E+04  0.7818608E-02  0.8554906E-01
         -2   -1    0    0    0  501 -0.00000000000E+00  0.00000000000E+00  0.11899427557E+04  0.11899427557E+04  0.00000000000E+00 0.  1.
          2   -1    0    0  501    0  0.00000000000E+00 -0.00000000000E+00 -0.93930739977E+03  0.93930739977E+03  0.00000000000E+00 0. -1.
         23    2    1    2    0    0  0.64660847758E+03 -0.65589075387E+03  0.64456643053E+03  0.11275132161E+04  0.86746554633E+02 0.  0.
         11    1    3    3    0    0  0.15796611303E+03 -0.11057073143E+03  0.12886997194E+03  0.23191948858E+03  0.00000000000E+00 0.  1.
        -11    1    3    3    0    0  0.48864236455E+03 -0.54532002245E+03  0.51569645859E+03  0.89559372749E+03  0.00000000000E+00 0. -1.
         22    1    1    2    0    0 -0.64660847758E+03  0.65589075387E+03 -0.39393107458E+03  0.10017369394E+04  0.00000000000E+00 0. -1.
<mgrwt>
<rscale>  0 0.21144475E+04</rscale>
<asrwt>0</asrwt>
<pdfrwt beam="1">  1        2 0.14450883E+00 0.21144475E+04</pdfrwt>
<pdfrwt beam="2">  1       -2 0.18306812E+00 0.21144475E+04</pdfrwt>
<totfact> 0.43859450E+00</totfact>
</mgrwt>
</event>
<event>
 6    1  0.1885829E-005  0.1491731E+04  0.7818608E-02  0.8889970E-01
         -1   -1    0    0    0  501 -0.00000000000E+00  0.00000000000E+00  0.14887309516E+04  0.14887309516E+04  0.00000000000E+00 0.  1.
          1   -1    0    0  501    0  0.00000000000E+00 -0.00000000000E+00 -0.37368423453E+03  0.37368423453E+03  0.00000000000E+00 0. -1.
         23    2    1    2    0    0 -0.61643500989E+03  0.25565521334E+03  0.96735790895E+03  0.11789214455E+04  0.93395615907E+02 0.  0.
         13    1    3    3    0    0 -0.29874229149E+03  0.13724928137E+03  0.39757842739E+03  0.51590011425E+03  0.00000000000E+00 0. -1.
        -13    1    3    3    0    0 -0.31769271840E+03  0.11840593197E+03  0.56977948156E+03  0.66302133123E+03  0.00000000000E+00 0.  1.
         22    1    1    2    0    0  0.61643500989E+03 -0.25565521334E+03  0.14768880817E+03  0.68349374070E+03  0.00000000000E+00 0. -1.
<mgrwt>
<rscale>  0 0.14917309E+04</rscale>
<asrwt>0</asrwt>
<pdfrwt beam="1">  1        1 0.57489883E-01 0.14917309E+04</pdfrwt>
<pdfrwt beam="2">  1       -1 0.22903553E+00 0.14917309E+04</pdfrwt>
<totfact> 0.60914799E+00</totfact>
</mgrwt>
</event>
<event>
 6    1  0.1885829E-005  0.1729503E+04  0.7818608E-02  0.8744714E-01
          2   -1    0    0  501    0  0.00000000000E+00  0.00000000000E+00  0.25866657288E+04  0.25866657288E+04  0.00000000000E+00 0. -1.
         -2   -1    0    0    0  501 -0.00000000000E+00 -0.00000000000E+00 -0.28909624357E+03  0.28909624357E+03  0.00000000000E+00 0.  1.
         23    2    1    2    0    0  0.10112429893E+03 -0.40671014477E+03 -0.10140190161E+03  0.44045850452E+03  0.89900405205E+02 0.  0.
         11    1    3    3    0    0  0.65221241509E+02 -0.34426886708E+03 -0.54753408416E+02  0.35464460931E+03  0.00000000000E+00 0. -1.
        -11    1    3    3    0    0  0.35903057425E+02 -0.62441277696E+02 -0.46648493194E+02  0.85813895203E+02  0.00000000000E+00 0.  1.
         22    1    1    2    0    0 -0.10112429893E+03  0.40671014477E+03  0.23989713868E+04  0.24353034678E+04  0.00000000000E+00 0. -1.
<mgrwt>
<rscale>  0 0.17295032E+04</rscale>
<asrwt>0</asrwt>
<pdfrwt beam="1">  1        2 0.39794856E+00 0.17295032E+04</pdfrwt>
<pdfrwt beam="2">  1       -2 0.44476347E-01 0.17295032E+04</pdfrwt>
<totfact> 0.14129597E+01</totfact>
</mgrwt>
</event>
<event>
 6    1  0.1885829E-005  0.4586295E+04  0.7818608E-02  0.7895701E-01
          2   -1    0    0  501    0  0.00000000000E+00  0.00000000000E+00  0.22400685537E+04  0.22400685537E+04  0.00000000000E+00 0. -1.
         -2   -1    0    0    0  501 -0.00000000000E+00 -0.00000000000E+00 -0.23474843914E+04  0.23474843914E+04  0.00000000000E+00 0.  1.
         23    2    1    2    0    0 -0.60913293119E+03  0.16656973188E+04 -0.15063404337E+04  0.23286637246E+04  0.89569829983E+02 0.  0.
         13    1    3    3    0    0 -0.40779715767E+03  0.11454102462E+04 -0.10847038783E+04  0.16293697117E+04  0.00000000000E+00 0. -1.
        -13    1    3    3    0    0 -0.20133577352E+03  0.52028707259E+03 -0.42163655538E+03  0.69929401287E+03  0.00000000000E+00 0.  1.
         22    1    1    2    0    0  0.60913293119E+03 -0.16656973188E+04  0.13989245959E+04  0.22588892206E+04  0.00000000000E+00 0. -1.
<mgrwt>
<rscale>  0 0.45862952E+04</rscale>
<asrwt>0</asrwt>
<pdfrwt beam="1">  1        2 0.34462593E+00 0.45862952E+04</pdfrwt>
<pdfrwt beam="2">  1       -2 0.36115144E+00 0.45862952E+04</pdfrwt>
<totfact> 0.48773572E-02</totfact>
</mgrwt>
</event>
<event>
 6    1  0.1885829E-005  0.2311405E+04  0.7818608E-02  0.8473438E-01
          2   -1    0    0  501    0  0.00000000000E+00  0.00000000000E+00  0.76463177273E+03  0.76463177273E+03  0.00000000000E+00 0. -1.
         -2   -1    0    0    0  501 -0.00000000000E+00 -0.00000000000E+00 -0.17467855973E+04  0.17467855973E+04  0.00000000000E+00 0.  1.
         23    2    1    2    0    0  0.41009061150E+03  0.11282387659E+03  0.67368539530E+03  0.80182471128E+03  0.90373220604E+02 0.  0.
         11    1    3    3    0    0  0.27806316924E+03  0.11905852453E+03  0.47898594596E+03  0.56649942169E+03  0.00000000000E+00 0. -1.
        -11    1    3    3    0    0  0.13202744226E+03 -0.62346479319E+01  0.19469944934E+03  0.23532528959E+03  0.00000000000E+00 0.  1.
         22    1    1    2    0    0 -0.41009061150E+03 -0.11282387659E+03 -0.16558392199E+04  0.17095926588E+04  0.00000000000E+00 0.  1.
<mgrwt>
<rscale>  0 0.23114046E+04</rscale>
<asrwt>0</asrwt>
<pdfrwt beam="1">  1        2 0.11763566E+00 0.23114046E+04</pdfrwt>
<pdfrwt beam="2">  1       -2 0.26873624E+00 0.23114046E+04</pdfrwt>
<totfact> 0.16340465E+00</totfact>
</mgrwt>
</event>
<event>
 6    1  0.1885829E-005  0.5051735E+03  0.7818608E-02  0.1012437E+00
         -1   -1    0    0    0  501 -0.00000000000E+00  0.00000000000E+00  0.89052003128E+02  0.89052003128E+02  0.00000000000E+00 0. -1.
          1   -1    0    0  501    0  0.00000000000E+00 -0.00000000000E+00 -0.71643602647E+03  0.71643602647E+03  0.00000000000E+00 0.  1.
         23    2    1    2    0    0 -0.20603574002E+02  0.17964234337E+03 -0.58677759691E+03  0.62016463479E+03  0.87179970317E+02 0.  0.
         13    1    3    3    0    0  0.14631684575E+02  0.81081583671E+02 -0.15123833621E+03  0.17222468971E+03  0.00000000000E+00 0. -1.
        -13    1    3    3    0    0 -0.35235258576E+02  0.98560759702E+02 -0.43553926069E+03  0.44793994509E+03  0.00000000000E+00 0.  1.
         22    1    1    2    0    0  0.20603574002E+02 -0.17964234337E+03 -0.40606426438E+02  0.18532339481E+03  0.00000000000E+00 0. -1.
<mgrwt>
<rscale>  0 0.50517349E+03</rscale>
<asrwt>0</asrwt>
<pdfrwt beam="1">  1        1 0.11022093E+00 0.50517349E+03</pdfrwt>
<pdfrwt beam="2">  1       -1 0.13700308E-01 0.50517349E+03</pdfrwt>
<totfact> 0.10098111E+03</totfact>
</mgrwt>
</event>
<event>
 6    1  0.1885829E-005  0.1810812E+04  0.7818608E-02  0.8700571E-01
          2   -1    0    0  501    0  0.00000000000E+00  0.00000000000E+00  0.31747351619E+04  0.31747351619E+04  0.00000000000E+00 0. -1.
         -2   -1    0    0    0  501 -0.00000000000E+00 -0.00000000000E+00 -0.25821368008E+03  0.25821368008E+03  0.00000000000E+00 0.  1.
         23    2    1    2    0    0 -0.52741485626E+03 -0.48248262105E+03  0.25084550635E+04  0.26098606864E+04  0.89833659613E+02 0.  0.
         11    1    3    3    0    0 -0.27887764270E+03 -0.20275658468E+03  0.12858802603E+04  0.13313042538E+04  0.00000000000E+00 0. -1.
        -11    1    3    3    0    0 -0.24853721356E+03 -0.27972603637E+03  0.12225748032E+04  0.12785564326E+04  0.00000000000E+00 0.  1.
         22    1    1    2    0    0  0.52741485626E+03  0.48248262105E+03  0.40806641837E+03  0.82308815568E+03  0.00000000000E+00 0. -1.
<mgrwt>
<rscale>  0 0.18108120E+04</rscale>
<asrwt>0</asrwt>
<pdfrwt beam="1">  1        2 0.48842077E+00 0.18108120E+04</pdfrwt>
<pdfrwt beam="2">  1       -2 0.39725184E-01 0.18108120E+04</pdfrwt>
<totfact> 0.76544641E+00</totfact>
</mgrwt>
</event>
<event>
 6    1  0.1885829E-005  0.2107669E+04  0.7818608E-02  0.8557873E-01
          1   -1    0    0  501    0  0.00000000000E+00  0.00000000000E+00  0.73393137369E+03  0.73393137369E+03  0.00000000000E+00 0. -1.
         -1   -1    0    0    0  501 -0.00000000000E+00 -0.00000000000E+00 -0.15131751909E+04  0.15131751909E+04  0.00000000000E+00 0.  1.
         23    2    1    2    0    0 -0.98882597379E+03  0.14111673888E+03 -0.74179461262E+03  0.12475600757E+04  0.91957353267E+02 0.  0.
         13    1    3    3    0    0 -0.42278030202E+03  0.18980976946E+02 -0.28885532157E+03  0.51238741013E+03  0.00000000000E+00 0. -1.
        -13    1    3    3    0    0 -0.56604567177E+03  0.12213576193E+03 -0.45293929105E+03  0.73517266560E+03  0.00000000000E+00 0.  1.
         22    1    1    2    0    0  0.98882597379E+03 -0.14111673888E+03 -0.37449204576E+02  0.99954648884E+03  0.00000000000E+00 0. -1.
<mgrwt>
<rscale>  0 0.21076686E+04</rscale>
<asrwt>0</asrwt>
<pdfrwt beam="1">  1        1 0.11291252E+00 0.21076686E+04</pdfrwt>
<pdfrwt beam="2">  1       -1 0.23279618E+00 0.21076686E+04</pdfrwt>
<totfact> 0.21056512E+00</totfact>
</mgrwt>
</event>
<event>
 6    1  0.1885829E-005  0.7961095E+03  0.7818608E-02  0.9565666E-01
          2   -1    0    0  501    0  0.00000000000E+00  0.00000000000E+00  0.55286102463E+03  0.55286102463E+03  0.00000000000E+00 0. -1.
         -2   -1    0    0    0  501 -0.00000000000E+00 -0.00000000000E+00 -0.28659571787E+03  0.28659571787E+03  0.00000000000E+00 0.  1.
         23    2    1    2    0    0  0.22216666105E+03 -0.29461607422E+03  0.27674288835E+03  0.47031390269E+03  0.91934130425E+02 0.  0.
         11    1    3    3    0    0  0.48051198570E+02 -0.12720108678E+03  0.12737964913E+03  0.18631856906E+03  0.00000000000E+00 0. -1.
        -11    1    3    3    0    0  0.17411546248E+03 -0.16741498744E+03  0.14936323921E+03  0.28399533363E+03  0.00000000000E+00 0.  1.
         22    1    1    2    0    0 -0.22216666105E+03  0.29461607422E+03 -0.10477581588E+02  0.36914283982E+03  0.00000000000E+00 0.  1.
<mgrwt>
<rscale>  0 0.79610955E+03</rscale>
<asrwt>0</asrwt>
<pdfrwt beam="1">  1        2 0.85055542E-01 0.79610955E+03</pdfrwt>
<pdfrwt beam="2">  1       -2 0.44091649E-01 0.79610955E+03</pdfrwt>
<totfact> 0.26865195E+02</totfact>
</mgrwt>
</event>
<event>
 6    1  0.1885829E-005  0.2299877E+04  0.7818608E-02  0.8477969E-01
         -2   -1    0    0    0  501 -0.00000000000E+00  0.00000000000E+00  0.71911236287E+03  0.71911236287E+03  0.00000000000E+00 0. -1.
          2   -1    0    0  501    0  0.00000000000E+00 -0.00000000000E+00 -0.18388766552E+04  0.18388766552E+04  0.00000000000E+00 0.  1.
         23    2    1    2    0    0 -0.84272193544E+03 -0.31526664244E+03 -0.13540081750E+04  0.16282344736E+04  0.90752668141E+02 0.  0.
         11    1    3    3    0    0 -0.45821790600E+03 -0.12990645864E+03 -0.75583073755E+03  0.89337530814E+03  0.00000000000E+00 0.  1.
        -11    1    3    3    0    0 -0.38450402944E+03 -0.18536018380E+03 -0.59817743746E+03  0.73485916547E+03  0.00000000000E+00 0. -1.
         22    1    1    2    0    0  0.84272193544E+03  0.31526664244E+03  0.23424388270E+03  0.92975454443E+03  0.00000000000E+00 0. -1.
<mgrwt>
<rscale>  0 0.22998773E+04</rscale>
<asrwt>0</asrwt>
<pdfrwt beam="1">  1        2 0.28290410E+00 0.22998773E+04</pdfrwt>
<pdfrwt beam="2">  1       -2 0.11063267E+00 0.22998773E+04</pdfrwt>
<totfact> 0.48233122E+00</totfact>
</mgrwt>
</event>
<event>
 6    1  0.1885829E-005  0.3112448E+04  0.7818608E-02  0.8212330E-01
          2   -1    0    0  501    0  0.00000000000E+00  0.00000000000E+00  0.25821249923E+04  0.25821249923E+04  0.00000000000E+00 0. -1.
         -2   -1    0    0    0  501 -0.00000000000E+00 -0.00000000000E+00 -0.93792243877E+03  0.93792243877E+03  0.00000000000E+00 0.  1.
         23    2    1    2    0    0 -0.36812148437E+03  0.13872465157E+04  0.14993399838E+04  0.20774970899E+04  0.89484350563E+02 0.  0.
         13    1    3    3    0    0 -0.18085582393E+03  0.51458682946E+03  0.55841877215E+03  0.78060230540E+03  0.00000000000E+00 0. -1.
        -13    1    3    3    0    0 -0.18726566045E+03  0.87265968625E+03  0.94092121167E+03  0.12968947845E+04  0.00000000000E+00 0.  1.
         22    1    1    2    0    0  0.36812148437E+03 -0.13872465157E+04  0.14486256971E+03  0.14425503411E+04  0.00000000000E+00 0.  1.
<mgrwt>
<rscale>  0 0.31124479E+04</rscale>
<asrwt>0</asrwt>
<pdfrwt beam="1">  1        2 0.39725000E+00 0.31124479E+04</pdfrwt>
<pdfrwt beam="2">  1       -2 0.14429576E+00 0.31124479E+04</pdfrwt>
<totfact> 0.87736324E-01</totfact>
</mgrwt>
</event>
<event>
 6    1  0.1885829E-005  0.2737091E+04  0.7818608E-02  0.8323070E-01
         -2   -1    0    0    0  501 -0.00000000000E+00  0.00000000000E+00  0.86475396875E+03  0.86475396875E+03  0.00000000000E+00 0.  1.
          2   -1    0    0  501    0  0.00000000000E+00 -0.00000000000E+00 -0.21658370044E+04  0.21658370044E+04  0.00000000000E+00 0. -1.
         23    2    1    2    0    0 -0.19160518235E+03 -0.10474850992E+04  0.29803386058E+03  0.11093641706E+04  0.89034273609E+02 0.  0.
         13    1    3    3    0    0  0.75268443607E+01 -0.10063353406E+03  0.23702048330E+02  0.10366073827E+03  0.00000000000E+00 0.  1.
        -13    1    3    3    0    0 -0.19913202672E+03 -0.94685156519E+03  0.27433181225E+03  0.10057034323E+04  0.00000000000E+00 0. -1.
         22    1    1    2    0    0  0.19160518235E+03  0.10474850992E+04 -0.15991168962E+04  0.19212268025E+04  0.00000000000E+00 0. -1.
<mgrwt>
<rscale>  0 0.27370905E+04</rscale>
<asrwt>0</asrwt>
<pdfrwt beam="1">  1        2 0.33320569E+00 0.27370905E+04</pdfrwt>
<pdfrwt beam="2">  1       -2 0.13303907E+00 0.27370905E+04</pdfrwt>
<totfact> 0.19332066E+00</totfact>
</mgrwt>
</event>
<event>
 6    1  0.1885829E-005  0.1853434E+04  0.7818608E-02  0.8678389E-01
          2   -1    0    0  501    0  0.00000000000E+00  0.00000000000E+00  0.16596589997E+04  0.16596589997E+04  0.00000000000E+00 0. -1.
         -2   -1    0    0    0  501 -0.00000000000E+00 -0.00000000000E+00 -0.51745842637E+03  0.51745842637E+03  0.00000000000E+00 0.  1.
         23    2    1    2    0    0 -0.48426834764E+03 -0.44229979706E+03 -0.19261845771E+03  0.68987609102E+03  0.93178364996E+02 0.  0.
         13    1    3    3    0    0 -0.21707753121E+03 -0.21530769756E+03 -0.43249375923E+02  0.30878887237E+03  0.00000000000E+00 0.  1.
        -13    1    3    3    0    0 -0.26719081644E+03 -0.22699209951E+03 -0.14936908179E+03  0.38108721865E+03  0.00000000000E+00 0. -1.
         22    1    1    2    0    0  0.48426834764E+03  0.44229979706E+03  0.13348190310E+04  0.14872413350E+04  0.00000000000E+00 0. -1.
<mgrwt>
<rscale>  0 0.18534341E+04</rscale>
<asrwt>0</asrwt>
<pdfrwt beam="1">  1        2 0.25533215E+00 0.18534341E+04</pdfrwt>
<pdfrwt beam="2">  1       -2 0.79608990E-01 0.18534341E+04</pdfrwt>
<totfact> 0.13568259E+01</totfact>
</mgrwt>
</event>
<event>
 6    1  0.1885829E-005  0.8747152E+03  0.7818608E-02  0.9457753E-01
         -2   -1    0    0    0  501 -0.00000000000E+00  0.00000000000E+00  0.45249355227E+03  0.45249355227E+03  0.00000000000E+00 0.  1.
          2   -1    0    0  501    0  0.00000000000E+00 -0.00000000000E+00 -0.42272792272E+03  0.42272792272E+03  0.00000000000E+00 0. -1.
         23    2    1    2    0    0  0.16025311306E+03  0.18389678356E+03  0.37262762833E+03  0.45444429231E+03  0.90383506027E+02 0.  0.
         13    1    3    3    0    0  0.79160923871E+02  0.10534760130E+03  0.12207144295E+03  0.17962740925E+03  0.00000000000E+00 0. -1.
        -13    1    3    3    0    0  0.81092189187E+02  0.78549182258E+02  0.25055618538E+03  0.27481688306E+03  0.00000000000E+00 0.  1.
         22    1    1    2    0    0 -0.16025311306E+03 -0.18389678356E+03 -0.34286199879E+03  0.42077718268E+03  0.00000000000E+00 0. -1.
<mgrwt>
<rscale>  0 0.87471518E+03</rscale>
<asrwt>0</asrwt>
<pdfrwt beam="1">  1        2 0.65035065E-01 0.87471518E+03</pdfrwt>
<pdfrwt beam="2">  1       -2 0.69614393E-01 0.87471518E+03</pdfrwt>
<totfact> 0.14124959E+02</totfact>
</mgrwt>
</event>
<event>
 6    1  0.1951864E-005  0.3176879E+04  0.7818608E-02  0.8194950E-01
         -2   -1    0    0    0  501 -0.00000000000E+00  0.00000000000E+00  0.10781060354E+04  0.10781060354E+04  0.00000000000E+00 0.  1.
          2   -1    0    0  501    0  0.00000000000E+00 -0.00000000000E+00 -0.23403451771E+04  0.23403451771E+04  0.00000000000E+00 0. -1.
         23    2    1    2    0    0 -0.34120815251E+02 -0.81922022281E+03 -0.20938213374E+04  0.22506263320E+04  0.94578485178E+02 0.  0.
         13    1    3    3    0    0  0.26074732662E+02 -0.36849394186E+03 -0.87792978541E+03  0.95248537258E+03  0.00000000000E+00 0.  1.
        -13    1    3    3    0    0 -0.60195547913E+02 -0.45072628094E+03 -0.12158915520E+04  0.12981409594E+04  0.00000000000E+00 0. -1.
         22    1    1    2    0    0  0.34120815251E+02  0.81922022281E+03  0.83158219562E+03  0.11678248805E+04  0.00000000000E+00 0.  1.
<mgrwt>
<rscale>  0 0.31768791E+04</rscale>
<asrwt>0</asrwt>
<pdfrwt beam="1">  1        2 0.36005310E+00 0.31768791E+04</pdfrwt>
<pdfrwt beam="2">  1       -2 0.16586247E+00 0.31768791E+04</pdfrwt>
<totfact> 0.82788082E-01</totfact>
</mgrwt>
</event>
<event>
 6    1  0.2227642E-005  0.2424811E+04  0.7818608E-02  0.8430273E-01
          1   -1    0    0  501    0  0.00000000000E+00  0.00000000000E+00  0.11160313682E+04  0.11160313682E+04  0.00000000000E+00 0. -1.
         -1   -1    0    0    0  501 -0.00000000000E+00 -0.00000000000E+00 -0.13171019582E+04  0.13171019582E+04  0.00000000000E+00 0.  1.
         23    2    1    2    0    0  0.63742368444E+02  0.12013455953E+04  0.43740967079E+02  0.12054415788E+04  0.62304084051E+02 0.  0.
         13    1    3    3    0    0  0.27164814262E+02  0.50585909720E+03 -0.12353095746E+02  0.50673854435E+03  0.00000000000E+00 0.  1.
        -13    1    3    3    0    0  0.36577554182E+02  0.69548649805E+03  0.56094062825E+02  0.69870303444E+03  0.00000000000E+00 0. -1.
         22    1    1    2    0    0 -0.63742368444E+02 -0.12013455953E+04 -0.24481155708E+03  0.12276917477E+04  0.00000000000E+00 0.  1.
<mgrwt>
<rscale>  0 0.24248110E+04</rscale>
<asrwt>0</asrwt>
<pdfrwt beam="1">  1        1 0.17169713E+00 0.24248110E+04</pdfrwt>
<pdfrwt beam="2">  1       -1 0.20263107E+00 0.24248110E+04</pdfrwt>
<totfact> 0.15917661E+00</totfact>
</mgrwt>
</event>
<event>
 6    1  0.1885829E-005  0.7125377E+03  0.7818608E-02  0.9696028E-01
          2   -1    0    0  501    0  0.00000000000E+00  0.00000000000E+00  0.22310114547E+03  0.22310114547E+03  0.00000000000E+00 0. -1.
         -2   -1    0    0    0  501 -0.00000000000E+00 -0.00000000000E+00 -0.56892354161E+03  0.56892354161E+03  0.00000000000E+00 0.  1.
         23    2    1    2    0    0 -0.98830633273E+02  0.31029666349E+03 -0.32993212184E+02  0.34045673895E+03  0.93652152144E+02 0.  0.
         13    1    3    3    0    0 -0.87028391719E+01  0.17352946391E+03 -0.20129443368E+01  0.17375921904E+03  0.00000000000E+00 0. -1.
        -13    1    3    3    0    0 -0.90127794102E+02  0.13676719958E+03 -0.30980267847E+02  0.16669751991E+03  0.00000000000E+00 0.  1.
         22    1    1    2    0    0  0.98830633273E+02 -0.31029666349E+03 -0.31282918395E+03  0.45156794813E+03  0.00000000000E+00 0.  1.
<mgrwt>
<rscale>  0 0.71253770E+03</rscale>
<asrwt>0</asrwt>
<pdfrwt beam="1">  1        2 0.34323253E-01 0.71253770E+03</pdfrwt>
<pdfrwt beam="2">  1       -2 0.87526699E-01 0.71253770E+03</pdfrwt>
<totfact> 0.17397614E+02</totfact>
</mgrwt>
</event>
<event>
 6    1  0.1885829E-005  0.2127310E+04  0.7818608E-02  0.8549307E-01
         -2   -1    0    0    0  501 -0.00000000000E+00  0.00000000000E+00  0.43107196901E+03  0.43107196901E+03  0.00000000000E+00 0.  1.
          2   -1    0    0  501    0  0.00000000000E+00 -0.00000000000E+00 -0.26245322704E+04  0.26245322704E+04  0.00000000000E+00 0. -1.
         23    2    1    2    0    0  0.48725243891E+03  0.43962009115E+03 -0.22976162756E+04  0.23911275801E+04  0.88146416128E+02 0.  0.
         13    1    3    3    0    0  0.77044761695E+02  0.38183446021E+02 -0.23898840758E+03  0.25398686937E+03  0.00000000000E+00 0. -1.
        -13    1    3    3    0    0  0.41020767721E+03  0.40143664512E+03 -0.20586278680E+04  0.21371407107E+04  0.00000000000E+00 0.  1.
         22    1    1    2    0    0 -0.48725243891E+03 -0.43962009115E+03  0.10415597423E+03  0.66447665928E+03  0.00000000000E+00 0.  1.
<mgrwt>
<rscale>  0 0.21273103E+04</rscale>
<asrwt>0</asrwt>
<pdfrwt beam="1">  1        2 0.40377419E+00 0.21273103E+04</pdfrwt>
<pdfrwt beam="2">  1       -2 0.66318766E-01 0.21273103E+04</pdfrwt>
<totfact> 0.56613893E+00</totfact>
</mgrwt>
</event>
<event>
 6    1  0.1885829E-005  0.1403232E+04  0.7818608E-02  0.8951482E-01
          2   -1    0    0  501    0  0.00000000000E+00  0.00000000000E+00  0.22939727628E+03  0.22939727628E+03  0.00000000000E+00 0. -1.
         -2   -1    0    0    0  501 -0.00000000000E+00 -0.00000000000E+00 -0.21459060168E+04  0.21459060168E+04  0.00000000000E+00 0.  1.
         23    2    1    2    0    0 -0.24122132928E+03 -0.55195217989E+03 -0.15614098938E+04  0.16760650436E+04  0.91401506283E+02 0.  0.
         11    1    3    3    0    0 -0.11934591237E+03 -0.19373867977E+03 -0.50371831619E+03  0.55272982993E+03  0.00000000000E+00 0. -1.
        -11    1    3    3    0    0 -0.12187541692E+03 -0.35821350013E+03 -0.10576915776E+04  0.11233352137E+04  0.00000000000E+00 0.  1.
         22    1    1    2    0    0  0.24122132928E+03  0.55195217989E+03 -0.35509884673E+03  0.69923824948E+03  0.00000000000E+00 0.  1.
<mgrwt>
<rscale>  0 0.14032320E+04</rscale>
<asrwt>0</asrwt>
<pdfrwt beam="1">  1        2 0.35291888E-01 0.14032320E+04</pdfrwt>
<pdfrwt beam="2">  1       -2 0.33013939E+00 0.14032320E+04</pdfrwt>
<totfact> 0.30103445E+00</totfact>
</mgrwt>
</event>
<event>
 6    1  0.1885829E-005  0.6791374E+03  0.7818608E-02  0.9753591E-01
          1   -1    0    0  501    0  0.00000000000E+00  0.00000000000E+00  0.48651305004E+03  0.48651305004E+03  0.00000000000E+00 0. -1.
         -1   -1    0    0    0  501 -0.00000000000E+00 -0.00000000000E+00 -0.23700678250E+03  0.23700678250E+03  0.00000000000E+00 0.  1.
         23    2    1    2    0    0  0.26190387368E+02  0.17624013882E+03  0.42721694843E+03  0.47187005800E+03  0.91654283550E+02 0.  0.
         11    1    3    3    0    0 -0.34060208974E+01  0.65337095237E+02  0.26623752297E+03  0.27415863223E+03  0.00000000000E+00 0. -1.
        -11    1    3    3    0    0  0.29596408266E+02  0.11090304358E+03  0.16097942546E+03  0.19771142577E+03  0.00000000000E+00 0.  1.
         22    1    1    2    0    0 -0.26190387368E+02 -0.17624013882E+03 -0.17771068089E+03  0.25164977453E+03  0.00000000000E+00 0.  1.
<mgrwt>
<rscale>  0 0.67913737E+03</rscale>
<asrwt>0</asrwt>
<pdfrwt beam="1">  1        1 0.74848162E-01 0.67913737E+03</pdfrwt>
<pdfrwt beam="2">  1       -1 0.36462582E-01 0.67913737E+03</pdfrwt>
<totfact> 0.33585913E+02</totfact>
</mgrwt>
</event>
<event>
 6    1  0.1885829E-005  0.1728068E+04  0.7818608E-02  0.8745516E-01
         -2   -1    0    0    0  501 -0.00000000000E+00  0.00000000000E+00  0.55455557119E+03  0.55455557119E+03  0.00000000000E+00 0.  1.
          2   -1    0    0  501    0  0.00000000000E+00 -0.00000000000E+00 -0.13462214790E+04  0.13462214790E+04  0.00000000000E+00 0. -1.
         23    2    1    2    0    0 -0.60950996928E+03 -0.11816496830E+03 -0.10541258840E+04  0.12267217101E+04  0.90550605864E+02 0.  0.
         13    1    3    3    0    0 -0.14728083383E+03 -0.68669408963E+02 -0.26610959776E+03  0.31180354353E+03  0.00000000000E+00 0. -1.
        -13    1    3    3    0    0 -0.46222913545E+03 -0.49495559335E+02 -0.78801628627E+03  0.91491816655E+03  0.00000000000E+00 0.  1.
         22    1    1    2    0    0  0.60950996928E+03  0.11816496830E+03  0.26245997624E+03  0.67405534009E+03  0.00000000000E+00 0. -1.
<mgrwt>
<rscale>  0 0.17280678E+04</rscale>
<asrwt>0</asrwt>
<pdfrwt beam="1">  1        2 0.20711099E+00 0.17280678E+04</pdfrwt>
<pdfrwt beam="2">  1       -2 0.85316243E-01 0.17280678E+04</pdfrwt>
<totfact> 0.17629361E+01</totfact>
</mgrwt>
</event>
<event>
 6    1  0.1885829E-005  0.5890501E+04  0.7818608E-02  0.7704128E-01
          2   -1    0    0  501    0  0.00000000000E+00  0.00000000000E+00  0.17643642392E+04  0.17643642392E+04  0.00000000000E+00 0.  1.
         -2   -1    0    0    0  501 -0.00000000000E+00 -0.00000000000E+00 -0.49165024080E+04  0.49165024080E+04  0.00000000000E+00 0. -1.
         23    2    1    2    0    0  0.13543359408E+04  0.17237584433E+04  0.65323878650E+03  0.22892310996E+04  0.91044514996E+02 0.  0.
         13    1    3    3    0    0  0.96720308974E+03  0.11710690097E+04  0.47293105776E+03  0.15907696966E+04  0.00000000000E+00 0. -1.
        -13    1    3    3    0    0  0.38713285102E+03  0.55268943362E+03  0.18030772874E+03  0.69846140295E+03  0.00000000000E+00 0.  1.
         22    1    1    2    0    0 -0.13543359408E+04 -0.17237584433E+04 -0.38053769553E+04  0.43916355477E+04  0.00000000000E+00 0. -1.
<mgrwt>
<rscale>  0 0.58905012E+04</rscale>
<asrwt>0</asrwt>
<pdfrwt beam="1">  1        2 0.27144065E+00 0.58905012E+04</pdfrwt>
<pdfrwt beam="2">  1       -2 0.75638499E+00 0.58905012E+04</pdfrwt>
<totfact> 0.83046976E-04</totfact>
</mgrwt>
</event>
<event>
 6    1  0.1885829E-005  0.1645698E+04  0.7818608E-02  0.8792955E-01
         -1   -1    0    0    0  501 -0.00000000000E+00  0.00000000000E+00  0.32518541259E+03  0.32518541259E+03  0.00000000000E+00 0.  1.
          1   -1    0    0  501    0  0.00000000000E+00 -0.00000000000E+00 -0.20821378822E+04  0.20821378822E+04  0.00000000000E+00 0. -1.
         23    2    1    2    0    0 -0.45442062396E+02 -0.51926156059E+03  0.45741801122E+02  0.53078281213E+03  0.89109662447E+02 0.  0.
         13    1    3    3    0    0 -0.25899063272E+02 -0.13865514534E+03 -0.24756746261E+02  0.14320931287E+03  0.00000000000E+00 0.  1.
        -13    1    3    3    0    0 -0.19542999124E+02 -0.38060641526E+03  0.70498547384E+02  0.38757349926E+03  0.00000000000E+00 0. -1.
         22    1    1    2    0    0  0.45442062396E+02  0.51926156059E+03 -0.18026942707E+04  0.18765404826E+04  0.00000000000E+00 0. -1.
<mgrwt>
<rscale>  0 0.16456985E+04</rscale>
<asrwt>0</asrwt>
<pdfrwt beam="1">  1        1 0.32032890E+00 0.16456985E+04</pdfrwt>
<pdfrwt beam="2">  1       -1 0.50028526E-01 0.16456985E+04</pdfrwt>
<totfact> 0.10049878E+01</totfact>
</mgrwt>
</event>
<event>
 6    1  0.1885829E-005  0.1634888E+04  0.7818608E-02  0.8799397E-01
          1   -1    0    0  501    0  0.00000000000E+00  0.00000000000E+00  0.15453435860E+04  0.15453435860E+04  0.00000000000E+00 0. -1.
         -1   -1    0    0    0  501 -0.00000000000E+00 -0.00000000000E+00 -0.43240512785E+03  0.43240512785E+03  0.00000000000E+00 0.  1.
         23    2    1    2    0    0  0.34418411391E+03  0.56542708518E+03 -0.16900756943E+02  0.66828044585E+03  0.90236499288E+02 0.  0.
         11    1    3    3    0    0  0.43401126100E+02  0.97852800206E+02 -0.33203897826E+02  0.11207732637E+03  0.00000000000E+00 0. -1.
        -11    1    3    3    0    0  0.30078298781E+03  0.46757428497E+03  0.16303140883E+02  0.55620311949E+03  0.00000000000E+00 0.  1.
         22    1    1    2    0    0 -0.34418411391E+03 -0.56542708518E+03  0.11298392151E+04  0.13094682680E+04  0.00000000000E+00 0. -1.
<mgrwt>
<rscale>  0 0.16348878E+04</rscale>
<asrwt>0</asrwt>
<pdfrwt beam="1">  1        1 0.23774516E+00 0.16348878E+04</pdfrwt>
<pdfrwt beam="2">  1       -1 0.66523867E-01 0.16348878E+04</pdfrwt>
<totfact> 0.13330907E+01</totfact>
</mgrwt>
</event>
<event>
 6    1  0.1885829E-005  0.1351207E+04  0.7818608E-02  0.8989915E-01
          2   -1    0    0  501    0  0.00000000000E+00  0.00000000000E+00  0.90925378104E+03  0.90925378104E+03  0.00000000000E+00 0. -1.
         -2   -1    0    0    0  501 -0.00000000000E+00 -0.00000000000E+00 -0.50199385437E+03  0.50199385437E+03  0.00000000000E+00 0.  1.
         23    2    1    2    0    0  0.14397524442E+02  0.60970669449E+03  0.49989858579E+03  0.79437531217E+03  0.95833180515E+02 0.  0.
         13    1    3    3    0    0 -0.38827505663E+02  0.30282362931E+03  0.23005345818E+03  0.38227518791E+03  0.00000000000E+00 0.  1.
        -13    1    3    3    0    0  0.53225030104E+02  0.30688306518E+03  0.26984512760E+03  0.41210012426E+03  0.00000000000E+00 0. -1.
         22    1    1    2    0    0 -0.14397524442E+02 -0.60970669449E+03 -0.92638659115E+02  0.61687232324E+03  0.00000000000E+00 0.  1.
<mgrwt>
<rscale>  0 0.13512066E+04</rscale>
<asrwt>0</asrwt>
<pdfrwt beam="1">  1        2 0.13988520E+00 0.13512066E+04</pdfrwt>
<pdfrwt beam="2">  1       -2 0.77229824E-01 0.13512066E+04</pdfrwt>
<totfact> 0.42243158E+01</totfact>
</mgrwt>
</event>
<event>
 6    1  0.4178773E-005  0.2783090E+04  0.7818608E-02  0.8308538E-01
          2   -1    0    0  501    0  0.00000000000E+00  0.00000000000E+00  0.16707222243E+04  0.16707222243E+04  0.00000000000E+00 0.  1.
         -2   -1    0    0    0  501 -0.00000000000E+00 -0.00000000000E+00 -0.11590181383E+04  0.11590181383E+04  0.00000000000E+00 0. -1.
         23    2    1    2    0    0 -0.26254293172E+03  0.85464435941E+03  0.13386140102E+04  0.16119038404E+04  0.83670486909E+02 0.  0.
         13    1    3    3    0    0 -0.18943930045E+03  0.48148912734E+03  0.79222491554E+03  0.94622372888E+03  0.00000000000E+00 0. -1.
        -13    1    3    3    0    0 -0.73103631265E+02  0.37315523207E+03  0.54638909468E+03  0.66568011155E+03  0.00000000000E+00 0.  1.
         22    1    1    2    0    0  0.26254293172E+03 -0.85464435941E+03 -0.82690992414E+03  0.12178365222E+04  0.00000000000E+00 0. -1.
<mgrwt>
<rscale>  0 0.27830899E+04</rscale>
<asrwt>0</asrwt>
<pdfrwt beam="1">  1        2 0.25703419E+00 0.27830899E+04</pdfrwt>
<pdfrwt beam="2">  1       -2 0.17831048E+00 0.27830899E+04</pdfrwt>
<totfact> 0.16530466E+00</totfact>
</mgrwt>
</event>
<event>
 6    1  0.1885829E-005  0.2664324E+04  0.7818608E-02  0.8346674E-01
         -2   -1    0    0    0  501 -0.00000000000E+00  0.00000000000E+00  0.19815279586E+04  0.19815279586E+04  0.00000000000E+00 0.  1.
          2   -1    0    0  501    0  0.00000000000E+00 -0.00000000000E+00 -0.89559979053E+03  0.89559979053E+03  0.00000000000E+00 0. -1.
         23    2    1    2    0    0 -0.76093472886E+03 -0.76291052744E+03  0.13862623775E+04  0.17585327502E+04  0.98284890137E+02 0.  0.
         11    1    3    3    0    0 -0.37895893857E+03 -0.41321446558E+03  0.79054025794E+03  0.96918005092E+03  0.00000000000E+00 0.  1.
        -11    1    3    3    0    0 -0.38197579030E+03 -0.34969606186E+03  0.59572211957E+03  0.78935269924E+03  0.00000000000E+00 0. -1.
         22    1    1    2    0    0  0.76093472886E+03  0.76291052744E+03 -0.30033420940E+03  0.11185949990E+04  0.00000000000E+00 0. -1.
<mgrwt>
<rscale>  0 0.26643243E+04</rscale>
<asrwt>0</asrwt>
<pdfrwt beam="1">  1        2 0.13778458E+00 0.26643243E+04</pdfrwt>
<pdfrwt beam="2">  1       -2 0.30485046E+00 0.26643243E+04</pdfrwt>
<totfact> 0.77106494E-01</totfact>
</mgrwt>
</event>
<event>
 6    1  0.1885829E-005  0.1580123E+04  0.7818608E-02  0.8832853E-01
         -2   -1    0    0    0  501 -0.00000000000E+00  0.00000000000E+00  0.71487447466E+03  0.71487447466E+03  0.00000000000E+00 0.  1.
          2   -1    0    0  501    0  0.00000000000E+00 -0.00000000000E+00 -0.87315686529E+03  0.87315686529E+03  0.00000000000E+00 0. -1.
         23    2    1    2    0    0 -0.18545288379E+03  0.75852137758E+03 -0.18113645294E+03  0.80683369497E+03  0.91775510927E+02 0.  0.
         11    1    3    3    0    0 -0.99109050623E+02  0.46970478839E+03 -0.15410987625E+03  0.50417759382E+03  0.00000000000E+00 0. -1.
        -11    1    3    3    0    0 -0.86343833164E+02  0.28881658919E+03 -0.27026576692E+02  0.30265610116E+03  0.00000000000E+00 0.  1.
         22    1    1    2    0    0  0.18545288379E+03 -0.75852137758E+03  0.22854062311E+02  0.78119764498E+03  0.00000000000E+00 0. -1.
<mgrwt>
<rscale>  0 0.15801235E+04</rscale>
<asrwt>0</asrwt>
<pdfrwt beam="1">  1        2 0.13433182E+00 0.15801235E+04</pdfrwt>
<pdfrwt beam="2">  1       -2 0.10998069E+00 0.15801235E+04</pdfrwt>
<totfact> 0.19309842E+01</totfact>
</mgrwt>
</event>
<event>
 6    1  0.1885829E-005  0.3254020E+04  0.7818608E-02  0.8174695E-01
         -2   -1    0    0    0  501 -0.00000000000E+00  0.00000000000E+00  0.10082427087E+04  0.10082427087E+04  0.00000000000E+00 0.  1.
          2   -1    0    0  501    0  0.00000000000E+00 -0.00000000000E+00 -0.26255197593E+04  0.26255197593E+04  0.00000000000E+00 0. -1.
         23    2    1    2    0    0 -0.12110817025E+04 -0.53820032960E+03 -0.18607147046E+04  0.22863054645E+04  0.92493136643E+02 0.  0.
         13    1    3    3    0    0 -0.10091219609E+04 -0.44855959581E+03 -0.16069235668E+04  0.19498041421E+04  0.00000000000E+00 0. -1.
        -13    1    3    3    0    0 -0.20195974154E+03 -0.89640733794E+02 -0.25379113773E+03  0.33650132236E+03  0.00000000000E+00 0.  1.
         22    1    1    2    0    0  0.12110817025E+04  0.53820032960E+03  0.24343765398E+03  0.13474570035E+04  0.00000000000E+00 0.  1.
<mgrwt>
<rscale>  0 0.32540198E+04</rscale>
<asrwt>0</asrwt>
<pdfrwt beam="1">  1        2 0.40392611E+00 0.32540198E+04</pdfrwt>
<pdfrwt beam="2">  1       -2 0.15511427E+00 0.32540198E+04</pdfrwt>
<totfact> 0.67503139E-01</totfact>
</mgrwt>
</event>
<event>
 6    1  0.1885829E-005  0.9434504E+03  0.7818608E-02  0.9372839E-01
          2   -1    0    0  501    0  0.00000000000E+00  0.00000000000E+00  0.22679454959E+04  0.22679454959E+04  0.00000000000E+00 0.  1.
         -2   -1    0    0    0  501 -0.00000000000E+00 -0.00000000000E+00 -0.98117292046E+02  0.98117292046E+02  0.00000000000E+00 0. -1.
         23    2    1    2    0    0 -0.38587477040E+03  0.97952862787E+02  0.48579174615E+03  0.63560825441E+03  0.97519898957E+02 0.  0.
         13    1    3    3    0    0 -0.31908874881E+03  0.40510116429E+02  0.38813138192E+03  0.50408795739E+03  0.00000000000E+00 0.  1.
        -13    1    3    3    0    0 -0.66786021591E+02  0.57442746357E+02  0.97660364223E+02  0.13152029702E+03  0.00000000000E+00 0. -1.
         22    1    1    2    0    0  0.38587477040E+03 -0.97952862787E+02  0.16840364577E+04  0.17304545336E+04  0.00000000000E+00 0.  1.
<mgrwt>
<rscale>  0 0.94345041E+03</rscale>
<asrwt>0</asrwt>
<pdfrwt beam="1">  1        2 0.34891465E+00 0.94345041E+03</pdfrwt>
<pdfrwt beam="2">  1       -2 0.15094970E-01 0.94345041E+03</pdfrwt>
<totfact> 0.16606598E+02</totfact>
</mgrwt>
</event>
<event>
 6    1  0.1885829E-005  0.2251694E+04  0.7818608E-02  0.8497215E-01
         -2   -1    0    0    0  501 -0.00000000000E+00  0.00000000000E+00  0.66530211665E+03  0.66530211665E+03  0.00000000000E+00 0.  1.
          2   -1    0    0  501    0  0.00000000000E+00 -0.00000000000E+00 -0.19051967134E+04  0.19051967134E+04  0.00000000000E+00 0. -1.
         23    2    1    2    0    0  0.88989292796E+03 -0.66120458944E+03 -0.40895860589E+03  0.11850185692E+04  0.88999638592E+02 0.  0.
         13    1    3    3    0    0  0.45250297894E+03 -0.38596327928E+03 -0.23946407806E+03  0.64114713099E+03  0.00000000000E+00 0.  1.
        -13    1    3    3    0    0  0.43738994902E+03 -0.27524131016E+03 -0.16949452782E+03  0.54387143819E+03  0.00000000000E+00 0. -1.
         22    1    1    2    0    0 -0.88989292796E+03  0.66120458944E+03 -0.83093599083E+03  0.13854802608E+04  0.00000000000E+00 0.  1.
<mgrwt>
<rscale>  0 0.22516939E+04</rscale>
<asrwt>0</asrwt>
<pdfrwt beam="1">  1        2 0.29310718E+00 0.22516939E+04</pdfrwt>
<pdfrwt beam="2">  1       -2 0.10235417E+00 0.22516939E+04</pdfrwt>
<totfact> 0.53650335E+00</totfact>
</mgrwt>
</event>
<event>
 6    1  0.1885829E-005  0.2490582E+04  0.7818608E-02  0.8406348E-01
          1   -1    0    0  501    0  0.00000000000E+00  0.00000000000E+00  0.24153961069E+04  0.24153961069E+04  0.00000000000E+00 0. -1.
         -1   -1    0    0    0  501 -0.00000000000E+00 -0.00000000000E+00 -0.64202707490E+03  0.64202707490E+03  0.00000000000E+00 0.  1.
         23    2    1    2    0    0 -0.47800321044E+03  0.11445670551E+04  0.77747548234E+03  0.14667237209E+04  0.91046883262E+02 0.  0.
         13    1    3    3    0    0 -0.19495607582E+03  0.57374488148E+03  0.40177501417E+03  0.72705861011E+03  0.00000000000E+00 0.  1.
        -13    1    3    3    0    0 -0.28304713462E+03  0.57082217361E+03  0.37570046817E+03  0.73966511076E+03  0.00000000000E+00 0. -1.
         22    1    1    2    0    0  0.47800321044E+03 -0.11445670551E+04  0.99589354970E+03  0.15906994610E+04  0.00000000000E+00 0.  1.
<mgrwt>
<rscale>  0 0.24905820E+04</rscale>
<asrwt>0</asrwt>
<pdfrwt beam="1">  1        1 0.37159940E+00 0.24905820E+04</pdfrwt>
<pdfrwt beam="2">  1       -1 0.98773397E-01 0.24905820E+04</pdfrwt>
<totfact> 0.13509635E+00</totfact>
</mgrwt>
</event>
<event>
 6    1  0.1885829E-005  0.3760942E+04  0.7818608E-02  0.8054589E-01
         -2   -1    0    0    0  501 -0.00000000000E+00  0.00000000000E+00  0.15003986270E+04  0.15003986270E+04  0.00000000000E+00 0.  1.
          2   -1    0    0  501    0  0.00000000000E+00 -0.00000000000E+00 -0.23568209492E+04  0.23568209492E+04  0.00000000000E+00 0. -1.
         23    2    1    2    0    0 -0.94312695564E+03 -0.89357682744E+03  0.96427912206E+03  0.16204983710E+04  0.90624191608E+02 0.  0.
         13    1    3    3    0    0 -0.38901502023E+03 -0.31426428504E+03  0.39507405499E+03  0.63732114020E+03  0.00000000000E+00 0. -1.
        -13    1    3    3    0    0 -0.55411193541E+03 -0.57931254240E+03  0.56920506708E+03  0.98317723078E+03  0.00000000000E+00 0.  1.
         22    1    1    2    0    0  0.94312695564E+03  0.89357682744E+03 -0.18207014442E+04  0.22367212053E+04  0.00000000000E+00 0. -1.
<mgrwt>
<rscale>  0 0.37609419E+04</rscale>
<asrwt>0</asrwt>
<pdfrwt beam="1">  1        2 0.36258784E+00 0.37609419E+04</pdfrwt>
<pdfrwt beam="2">  1       -2 0.23083056E+00 0.37609419E+04</pdfrwt>
<totfact> 0.28597624E-01</totfact>
</mgrwt>
</event>
<event>
 6    1  0.1885829E-005  0.1017297E+04  0.7818608E-02  0.9289775E-01
          2   -1    0    0  501    0  0.00000000000E+00  0.00000000000E+00  0.14466889393E+04  0.14466889393E+04  0.00000000000E+00 0. -1.
         -2   -1    0    0    0  501 -0.00000000000E+00 -0.00000000000E+00 -0.17883815529E+03  0.17883815529E+03  0.00000000000E+00 0.  1.
         23    2    1    2    0    0  0.11291461784E+03 -0.53272004552E+02  0.14201754019E+04  0.14285742916E+04  0.91316576932E+02 0.  0.
         13    1    3    3    0    0  0.73392735849E+02  0.12527765783E+02  0.54931533244E+03  0.55433813962E+03  0.00000000000E+00 0.  1.
        -13    1    3    3    0    0  0.39521881990E+02 -0.65799770335E+02  0.87086006946E+03  0.87423615203E+03  0.00000000000E+00 0. -1.
         22    1    1    2    0    0 -0.11291461784E+03  0.53272004552E+02 -0.15232461786E+03  0.19695280297E+03  0.00000000000E+00 0.  1.
<mgrwt>
<rscale>  0 0.10172968E+04</rscale>
<asrwt>0</asrwt>
<pdfrwt beam="1">  1        2 0.22256752E+00 0.10172968E+04</pdfrwt>
<pdfrwt beam="2">  1       -2 0.27513563E-01 0.10172968E+04</pdfrwt>
<totfact> 0.16327318E+02</totfact>
</mgrwt>
</event>
<event>
 6    1  0.1885829E-005  0.4385253E+03  0.7818608E-02  0.1031200E+00
         -1   -1    0    0    0  501 -0.00000000000E+00  0.00000000000E+00  0.76263451079E+02  0.76263451079E+02  0.00000000000E+00 0.  1.
          1   -1    0    0  501    0  0.00000000000E+00 -0.00000000000E+00 -0.63039515150E+03  0.63039515150E+03  0.00000000000E+00 0. -1.
         23    2    1    2    0    0  0.12353020987E+03  0.72063476371E+02 -0.41103144813E+02  0.17406949619E+03  0.90320892447E+02 0.  0.
         11    1    3    3    0    0  0.12172071655E+03  0.42213028141E+02 -0.56214712762E+02  0.14056303395E+03  0.00000000000E+00 0. -1.
        -11    1    3    3    0    0  0.18094933164E+01  0.29850448231E+02  0.15111567949E+02  0.33506462235E+02  0.00000000000E+00 0.  1.
         22    1    1    2    0    0 -0.12353020987E+03 -0.72063476371E+02 -0.51302855561E+03  0.53258910639E+03  0.00000000000E+00 0. -1.
<mgrwt>
<rscale>  0 0.43852530E+03</rscale>
<asrwt>0</asrwt>
<pdfrwt beam="1">  1        1 0.96983869E-01 0.43852530E+03</pdfrwt>
<pdfrwt beam="2">  1       -1 0.11732839E-01 0.43852530E+03</pdfrwt>
<totfact> 0.15609131E+03</totfact>
</mgrwt>
</event>
<event>
 6    1  0.1885829E-005  0.2405440E+04  0.7818608E-02  0.8437470E-01
         -2   -1    0    0    0  501 -0.00000000000E+00  0.00000000000E+00  0.10215362878E+04  0.10215362878E+04  0.00000000000E+00 0.  1.
          2   -1    0    0  501    0  0.00000000000E+00 -0.00000000000E+00 -0.14160394725E+04  0.14160394725E+04  0.00000000000E+00 0. -1.
         23    2    1    2    0    0  0.10411806893E+04  0.23718576093E+03  0.35937240419E+03  0.11304251505E+04  0.91641600137E+02 0.  0.
         11    1    3    3    0    0  0.80224511382E+03  0.16654788003E+03  0.23762593731E+03  0.85311283256E+03  0.00000000000E+00 0.  1.
        -11    1    3    3    0    0  0.23893557552E+03  0.70637880900E+02  0.12174646689E+03  0.27731231791E+03  0.00000000000E+00 0. -1.
         22    1    1    2    0    0 -0.10411806893E+04 -0.23718576093E+03 -0.75387558894E+03  0.13071506098E+04  0.00000000000E+00 0. -1.
<mgrwt>
<rscale>  0 0.24054403E+04</rscale>
<asrwt>0</asrwt>
<pdfrwt beam="1">  1        2 0.21785223E+00 0.24054403E+04</pdfrwt>
<pdfrwt beam="2">  1       -2 0.15715943E+00 0.24054403E+04</pdfrwt>
<totfact> 0.33682326E+00</totfact>
</mgrwt>
</event>
<event>
 6    1  0.1885829E-005  0.1852926E+04  0.7818608E-02  0.8678649E-01
          2   -1    0    0  501    0  0.00000000000E+00  0.00000000000E+00  0.13087074026E+04  0.13087074026E+04  0.00000000000E+00 0. -1.
         -2   -1    0    0    0  501 -0.00000000000E+00 -0.00000000000E+00 -0.65586382214E+03  0.65586382214E+03  0.00000000000E+00 0.  1.
         23    2    1    2    0    0 -0.62273836085E+03 -0.12238679750E+03  0.10397230283E+04  0.12212965100E+04  0.88088566274E+02 0.  0.
         11    1    3    3    0    0 -0.47254041945E+03 -0.53850233219E+02  0.77774312386E+03  0.91163515857E+03  0.00000000000E+00 0. -1.
        -11    1    3    3    0    0 -0.15019794140E+03 -0.68536564284E+02  0.26197990447E+03  0.30966135147E+03  0.00000000000E+00 0.  1.
         22    1    1    2    0    0  0.62273836085E+03  0.12238679750E+03 -0.38687944789E+03  0.74327471468E+03  0.00000000000E+00 0.  1.
<mgrwt>
<rscale>  0 0.18529262E+04</rscale>
<asrwt>0</asrwt>
<pdfrwt beam="1">  1        2 0.20133960E+00 0.18529262E+04</pdfrwt>
<pdfrwt beam="2">  1       -2 0.10090213E+00 0.18529262E+04</pdfrwt>
<totfact> 0.12421503E+01</totfact>
</mgrwt>
</event>
<event>
 6    1  0.1885829E-005  0.1850396E+04  0.7818608E-02  0.8679949E-01
         -2   -1    0    0    0  501 -0.00000000000E+00  0.00000000000E+00  0.10131508218E+04  0.10131508218E+04  0.00000000000E+00 0.  1.
          2   -1    0    0  501    0  0.00000000000E+00 -0.00000000000E+00 -0.84488031907E+03  0.84488031907E+03  0.00000000000E+00 0. -1.
         23    2    1    2    0    0  0.12319332438E+03 -0.89985812048E+03 -0.80892088963E+02  0.91622265222E+03  0.89438169824E+02 0.  0.
         13    1    3    3    0    0  0.10532890492E+03 -0.46548906621E+03 -0.25041490218E+02  0.47791351227E+03  0.00000000000E+00 0.  1.
        -13    1    3    3    0    0  0.17864419461E+02 -0.43436905426E+03 -0.55850598745E+02  0.43830913995E+03  0.00000000000E+00 0. -1.
         22    1    1    2    0    0 -0.12319332438E+03  0.89985812048E+03  0.24916259167E+03  0.94180848862E+03  0.00000000000E+00 0. -1.
<mgrwt>
<rscale>  0 0.18503958E+04</rscale>
<asrwt>0</asrwt>
<pdfrwt beam="1">  1        2 0.12998159E+00 0.18503958E+04</pdfrwt>
<pdfrwt beam="2">  1       -2 0.15586936E+00 0.18503958E+04</pdfrwt>
<totfact> 0.81340659E+00</totfact>
</mgrwt>
</event>
<event>
 6    1  0.1885829E-005  0.2341367E+04  0.7818608E-02  0.8461787E-01
          2   -1    0    0  501    0  0.00000000000E+00  0.00000000000E+00  0.27294452662E+04  0.27294452662E+04  0.00000000000E+00 0. -1.
         -2   -1    0    0    0  501 -0.00000000000E+00 -0.00000000000E+00 -0.50211672998E+03  0.50211672998E+03  0.00000000000E+00 0.  1.
         23    2    1    2    0    0 -0.10558095507E+04  0.40229147671E+03  0.70183129228E+03  0.13332169062E+04  0.91257419027E+02 0.  0.
         11    1    3    3    0    0 -0.80327871713E+03  0.30506223234E+03  0.48670838876E+03  0.98752454080E+03  0.00000000000E+00 0. -1.
        -11    1    3    3    0    0 -0.25253083354E+03  0.97229244376E+02  0.21512290352E+03  0.34569236536E+03  0.00000000000E+00 0.  1.
         22    1    1    2    0    0  0.10558095507E+04 -0.40229147671E+03  0.15254972439E+04  0.18983450900E+04  0.00000000000E+00 0. -1.
<mgrwt>
<rscale>  0 0.23413672E+04</rscale>
<asrwt>0</asrwt>
<pdfrwt beam="1">  1        2 0.41991465E+00 0.23413672E+04</pdfrwt>
<pdfrwt beam="2">  1       -2 0.77248729E-01 0.23413672E+04</pdfrwt>
<totfact> 0.34455912E+00</totfact>
</mgrwt>
</event>
<event>
 6    1  0.1885829E-005  0.1741884E+04  0.7818608E-02  0.8737830E-01
          2   -1    0    0  501    0  0.00000000000E+00  0.00000000000E+00  0.17880080622E+04  0.17880080622E+04  0.00000000000E+00 0. -1.
         -2   -1    0    0    0  501 -0.00000000000E+00 -0.00000000000E+00 -0.42423759060E+03  0.42423759060E+03  0.00000000000E+00 0.  1.
         23    2    1    2    0    0 -0.13921290093E+03 -0.80948077414E+03  0.32547613522E+03  0.88835196959E+03  0.92710041447E+02 0.  0.
         13    1    3    3    0    0 -0.45068018135E+02 -0.44294524798E+03  0.21299094007E+03  0.49355522439E+03  0.00000000000E+00 0. -1.
        -13    1    3    3    0    0 -0.94144882797E+02 -0.36653552616E+03  0.11248519515E+03  0.39479674520E+03  0.00000000000E+00 0.  1.
         22    1    1    2    0    0  0.13921290093E+03  0.80948077414E+03  0.10382943363E+04  0.13238936832E+04  0.00000000000E+00 0.  1.
<mgrwt>
<rscale>  0 0.17418843E+04</rscale>
<asrwt>0</asrwt>
<pdfrwt beam="1">  1        2 0.27507816E+00 0.17418843E+04</pdfrwt>
<pdfrwt beam="2">  1       -2 0.65267322E-01 0.17418843E+04</pdfrwt>
<totfact> 0.17981025E+01</totfact>
</mgrwt>
</event>
<event>
 6    1  0.1885829E-005  0.1710785E+04  0.7818608E-02  0.8755237E-01
          2   -1    0    0  501    0  0.00000000000E+00  0.00000000000E+00  0.21359906423E+04  0.21359906423E+04  0.00000000000E+00 0. -1.
         -2   -1    0    0    0  501 -0.00000000000E+00 -0.00000000000E+00 -0.34255579128E+03  0.34255579128E+03  0.00000000000E+00 0.  1.
         23    2    1    2    0    0  0.24121471038E+03  0.72838600132E+03  0.14392309604E+04  0.16334481556E+04  0.89646059698E+02 0.  0.
         13    1    3    3    0    0  0.12711454476E+03  0.43585603075E+03  0.93584256200E+03  0.10401585879E+04  0.00000000000E+00 0.  1.
        -13    1    3    3    0    0  0.11410016563E+03  0.29252997058E+03  0.50338839842E+03  0.59328956770E+03  0.00000000000E+00 0. -1.
         22    1    1    2    0    0 -0.24121471038E+03 -0.72838600132E+03  0.35420389063E+03  0.84509827805E+03  0.00000000000E+00 0.  1.
<mgrwt>
<rscale>  0 0.17107846E+04</rscale>
<asrwt>0</asrwt>
<pdfrwt beam="1">  1        2 0.32861393E+00 0.17107846E+04</pdfrwt>
<pdfrwt beam="2">  1       -2 0.52700893E-01 0.17107846E+04</pdfrwt>
<totfact> 0.18121475E+01</totfact>
</mgrwt>
</event>
<event>
 6    1  0.1885829E-005  0.3753649E+04  0.7818608E-02  0.8056176E-01
         -2   -1    0    0    0  501 -0.00000000000E+00  0.00000000000E+00  0.11689359084E+04  0.11689359084E+04  0.00000000000E+00 0.  1.
          2   -1    0    0  501    0  0.00000000000E+00 -0.00000000000E+00 -0.30133983599E+04  0.30133983599E+04  0.00000000000E+00 0. -1.
         23    2    1    2    0    0  0.12787487135E+04  0.10133157202E+04  0.10804620876E+03  0.16378702600E+04  0.94540913735E+02 0.  0.
         13    1    3    3    0    0  0.69878241156E+03  0.60441853046E+03  0.36189768874E+02  0.92462333846E+03  0.00000000000E+00 0.  1.
        -13    1    3    3    0    0  0.57996630191E+03  0.40889718978E+03  0.71856439885E+02  0.71324692156E+03  0.00000000000E+00 0. -1.
         22    1    1    2    0    0 -0.12787487135E+04 -0.10133157202E+04 -0.19525086603E+04  0.25444640083E+04  0.00000000000E+00 0. -1.
<mgrwt>
<rscale>  0 0.37536487E+04</rscale>
<asrwt>0</asrwt>
<pdfrwt beam="1">  1        2 0.46359975E+00 0.37536487E+04</pdfrwt>
<pdfrwt beam="2">  1       -2 0.17983629E+00 0.37536487E+04</pdfrwt>
<totfact> 0.24971336E-01</totfact>
</mgrwt>
</event>
<event>
 6    1  0.1885829E-005  0.9055081E+03  0.7818608E-02  0.9418722E-01
         -2   -1    0    0    0  501 -0.00000000000E+00  0.00000000000E+00  0.13626199056E+03  0.13626199056E+03  0.00000000000E+00 0. -1.
          2   -1    0    0  501    0  0.00000000000E+00 -0.00000000000E+00 -0.15043535908E+04  0.15043535908E+04  0.00000000000E+00 0.  1.
         23    2    1    2    0    0 -0.13581450284E+03 -0.33506814044E+02 -0.14624645912E+04  0.14718715527E+04  0.89637611850E+02 0.  0.
         11    1    3    3    0    0 -0.24888173594E+01  0.21338597992E+02 -0.23108533783E+03  0.23208180311E+03  0.00000000000E+00 0. -1.
        -11    1    3    3    0    0 -0.13332568548E+03 -0.54845412036E+02 -0.12313792534E+04  0.12397897496E+04  0.00000000000E+00 0.  1.
         22    1    1    2    0    0  0.13581450284E+03  0.33506814044E+02  0.94372990979E+02  0.16874402862E+03  0.00000000000E+00 0. -1.
<mgrwt>
<rscale>  0 0.90550807E+03</rscale>
<asrwt>0</asrwt>
<pdfrwt beam="1">  1        2 0.23143902E+00 0.90550807E+03</pdfrwt>
<pdfrwt beam="2">  1       -2 0.20963382E-01 0.90550807E+03</pdfrwt>
<totfact> 0.24889331E+02</totfact>
</mgrwt>
</event>
<event>
 6    1  0.1885829E-005  0.2493413E+04  0.7818608E-02  0.8405336E-01
          2   -1    0    0  501    0  0.00000000000E+00  0.00000000000E+00  0.23457342343E+04  0.23457342343E+04  0.00000000000E+00 0. -1.
         -2   -1    0    0    0  501 -0.00000000000E+00 -0.00000000000E+00 -0.66259703916E+03  0.66259703916E+03  0.00000000000E+00 0.  1.
         23    2    1    2    0    0 -0.73023461553E+02 -0.38879266075E+03  0.22670672834E+04  0.23030182175E+04  0.88355440884E+02 0.  0.
         13    1    3    3    0    0 -0.44069287739E+02 -0.56212294210E+02  0.38330667117E+03  0.38990502473E+03  0.00000000000E+00 0.  1.
        -13    1    3    3    0    0 -0.28954173814E+02 -0.33258036654E+03  0.18837606122E+04  0.19131131928E+04  0.00000000000E+00 0. -1.
         22    1    1    2    0    0  0.73023461553E+02  0.38879266075E+03 -0.58393008821E+03  0.70531305596E+03  0.00000000000E+00 0.  1.
<mgrwt>
<rscale>  0 0.24934126E+04</rscale>
<asrwt>0</asrwt>
<pdfrwt beam="1">  1        2 0.36088218E+00 0.24934126E+04</pdfrwt>
<pdfrwt beam="2">  1       -2 0.10193801E+00 0.24934126E+04</pdfrwt>
<totfact> 0.30061977E+00</totfact>
</mgrwt>
</event>
<event>
 6    1  0.1885829E-005  0.4335054E+04  0.7818608E-02  0.7940168E-01
          2   -1    0    0  501    0  0.00000000000E+00  0.00000000000E+00  0.38474096496E+04  0.38474096496E+04  0.00000000000E+00 0. -1.
         -2   -1    0    0    0  501 -0.00000000000E+00 -0.00000000000E+00 -0.12211263977E+04  0.12211263977E+04  0.00000000000E+00 0.  1.
         23    2    1    2    0    0 -0.18848902698E+04  0.24682300729E+03  0.25289034984E+04  0.31650613975E+04  0.92346192532E+02 0.  0.
         11    1    3    3    0    0 -0.95841575289E+03  0.12426674214E+03  0.12088675985E+04  0.15476963040E+04  0.00000000000E+00 0. -1.
        -11    1    3    3    0    0 -0.92647451695E+03  0.12255626515E+03  0.13200358999E+04  0.16173650935E+04  0.00000000000E+00 0.  1.
         22    1    1    2    0    0  0.18848902698E+04 -0.24682300729E+03  0.97379753482E+02  0.19034746499E+04  0.00000000000E+00 0.  1.
<mgrwt>
<rscale>  0 0.43350541E+04</rscale>
<asrwt>0</asrwt>
<pdfrwt beam="1">  1        2 0.59190917E+00 0.43350541E+04</pdfrwt>
<pdfrwt beam="2">  1       -2 0.18786560E+00 0.43350541E+04</pdfrwt>
<totfact> 0.55388500E-02</totfact>
</mgrwt>
</event>
<event>
 6    1  0.1885829E-005  0.3389492E+04  0.7818608E-02  0.8140490E-01
         -1   -1    0    0    0  501 -0.00000000000E+00  0.00000000000E+00  0.14780871497E+04  0.14780871497E+04  0.00000000000E+00 0.  1.
          1   -1    0    0  501    0  0.00000000000E+00 -0.00000000000E+00 -0.19431625954E+04  0.19431625954E+04  0.00000000000E+00 0. -1.
         23    2    1    2    0    0  0.16153101587E+04 -0.37876355932E+03 -0.57552129454E+03  0.17584548004E+04  0.90828310344E+02 0.  0.
         13    1    3    3    0    0  0.11538405157E+04 -0.28744621094E+03 -0.37238598850E+03  0.12460515978E+04  0.00000000000E+00 0.  1.
        -13    1    3    3    0    0  0.46146964293E+03 -0.91317348378E+02 -0.20313530604E+03  0.51240320258E+03  0.00000000000E+00 0. -1.
         22    1    1    2    0    0 -0.16153101587E+04  0.37876355932E+03  0.11044584882E+03  0.16627949447E+04  0.00000000000E+00 0.  1.
<mgrwt>
<rscale>  0 0.33894918E+04</rscale>
<asrwt>0</asrwt>
<pdfrwt beam="1">  1        1 0.29894809E+00 0.33894918E+04</pdfrwt>
<pdfrwt beam="2">  1       -1 0.22739802E+00 0.33894918E+04</pdfrwt>
<totfact> 0.26343118E-01</totfact>
</mgrwt>
</event>
<event>
 6    1  0.1885829E-005  0.8628672E+03  0.7818608E-02  0.9473228E-01
         -1   -1    0    0    0  501 -0.00000000000E+00  0.00000000000E+00  0.80161962737E+03  0.80161962737E+03  0.00000000000E+00 0.  1.
          1   -1    0    0  501    0  0.00000000000E+00 -0.00000000000E+00 -0.23219857857E+03  0.23219857857E+03  0.00000000000E+00 0. -1.
         23    2    1    2    0    0  0.40916186134E+03 -0.10736959597E+03  0.22038195779E+03  0.48539323753E+03  0.89981824857E+02 0.  0.
         13    1    3    3    0    0  0.33637131561E+02 -0.35705161371E+02  0.36646174692E+02  0.61231179049E+02  0.00000000000E+00 0.  1.
        -13    1    3    3    0    0  0.37552472978E+03 -0.71664434599E+02  0.18373578309E+03  0.42416205848E+03  0.00000000000E+00 0. -1.
         22    1    1    2    0    0 -0.40916186134E+03  0.10736959597E+03  0.34903909101E+03  0.54842496841E+03  0.00000000000E+00 0.  1.
<mgrwt>
<rscale>  0 0.86286717E+03</rscale>
<asrwt>0</asrwt>
<pdfrwt beam="1">  1        1 0.35722859E-01 0.86286717E+03</pdfrwt>
<pdfrwt beam="2">  1       -1 0.12332610E+00 0.86286717E+03</pdfrwt>
<totfact> 0.71590100E+01</totfact>
</mgrwt>
</event>
<event>
 6    1  0.1885829E-005  0.2209804E+04  0.7818608E-02  0.8514358E-01
          2   -1    0    0  501    0  0.00000000000E+00  0.00000000000E+00  0.39602862785E+04  0.39602862785E+04  0.00000000000E+00 0. -1.
         -2   -1    0    0    0  501 -0.00000000000E+00 -0.00000000000E+00 -0.30826272726E+03  0.30826272726E+03  0.00000000000E+00 0.  1.
         23    2    1    2    0    0  0.15469782987E+03  0.17524272143E+02  0.39384717590E+04  0.39425258557E+04  0.87816895429E+02 0.  0.
         11    1    3    3    0    0  0.71430900600E+02  0.48449137877E+02  0.23362947078E+04  0.23378885033E+04  0.00000000000E+00 0. -1.
        -11    1    3    3    0    0  0.83266929274E+02 -0.30924865734E+02  0.16021770513E+04  0.16046373523E+04  0.00000000000E+00 0.  1.
         22    1    1    2    0    0 -0.15469782987E+03 -0.17524272143E+02 -0.28644820778E+03  0.32602315013E+03  0.00000000000E+00 0.  1.
<mgrwt>
<rscale>  0 0.22098042E+04</rscale>
<asrwt>0</asrwt>
<pdfrwt beam="1">  1        2 0.60927478E+00 0.22098042E+04</pdfrwt>
<pdfrwt beam="2">  1       -2 0.47425038E-01 0.22098042E+04</pdfrwt>
<totfact> 0.14267089E+00</totfact>
</mgrwt>
</event>
<event>
 6    1  0.1885829E-005  0.5138043E+03  0.7818608E-02  0.1010237E+00
          2   -1    0    0  501    0  0.00000000000E+00  0.00000000000E+00  0.58981467143E+03  0.58981467143E+03  0.00000000000E+00 0. -1.
         -2   -1    0    0    0  501 -0.00000000000E+00 -0.00000000000E+00 -0.11189736383E+03  0.11189736383E+03  0.00000000000E+00 0.  1.
         23    2    1    2    0    0 -0.85284897402E+02 -0.21455395586E+03  0.37325116099E+03  0.44821269415E+03  0.90946557477E+02 0.  0.
         13    1    3    3    0    0 -0.34138814079E+02 -0.14156309256E+03  0.29756226465E+03  0.33128366869E+03  0.00000000000E+00 0. -1.
        -13    1    3    3    0    0 -0.51146083324E+02 -0.72990863297E+02  0.75688896346E+02  0.11692902546E+03  0.00000000000E+00 0.  1.
         22    1    1    2    0    0  0.85284897402E+02  0.21455395586E+03  0.10466614661E+03  0.25349934111E+03  0.00000000000E+00 0.  1.
<mgrwt>
<rscale>  0 0.51380427E+03</rscale>
<asrwt>0</asrwt>
<pdfrwt beam="1">  1        2 0.90740717E-01 0.51380427E+03</pdfrwt>
<pdfrwt beam="2">  1       -2 0.17214979E-01 0.51380427E+03</pdfrwt>
<totfact> 0.14031805E+03</totfact>
</mgrwt>
</event>
<event>
 6    1  0.1885829E-005  0.3160900E+04  0.7818608E-02  0.8199220E-01
          2   -1    0    0  501    0  0.00000000000E+00  0.00000000000E+00  0.21909973336E+04  0.21909973336E+04  0.00000000000E+00 0. -1.
         -2   -1    0    0    0  501 -0.00000000000E+00 -0.00000000000E+00 -0.11400386521E+04  0.11400386521E+04  0.00000000000E+00 0.  1.
         23    2    1    2    0    0  0.93321697308E+03  0.52907829831E+03 -0.69563053160E+03  0.12813063344E+04  0.83823155737E+02 0.  0.
         13    1    3    3    0    0  0.65290281000E+03  0.32933883183E+03 -0.45339573864E+03  0.86041492390E+03  0.00000000000E+00 0. -1.
        -13    1    3    3    0    0  0.28031416308E+03  0.19973946648E+03 -0.24223479295E+03  0.42089141047E+03  0.00000000000E+00 0.  1.
         22    1    1    2    0    0 -0.93321697308E+03 -0.52907829831E+03  0.17465892130E+04  0.20497296514E+04  0.00000000000E+00 0. -1.
<mgrwt>
<rscale>  0 0.31608996E+04</rscale>
<asrwt>0</asrwt>
<pdfrwt beam="1">  1        2 0.33707651E+00 0.31608996E+04</pdfrwt>
<pdfrwt beam="2">  1       -2 0.17539056E+00 0.31608996E+04</pdfrwt>
<totfact> 0.86169571E-01</totfact>
</mgrwt>
</event>
<event>
 6    1  0.1885829E-005  0.8967448E+03  0.7818608E-02  0.9429660E-01
          1   -1    0    0  501    0  0.00000000000E+00  0.00000000000E+00  0.23565031425E+04  0.23565031425E+04  0.00000000000E+00 0. -1.
         -1   -1    0    0    0  501 -0.00000000000E+00 -0.00000000000E+00 -0.85311917254E+02  0.85311917254E+02  0.00000000000E+00 0.  1.
         23    2    1    2    0    0  0.28813887002E+03  0.11210485811E+03  0.20142248996E+04  0.20397911797E+04  0.89747439914E+02 0.  0.
         11    1    3    3    0    0  0.13473091357E+03  0.99606404439E+02  0.11048863704E+04  0.11175185665E+04  0.00000000000E+00 0. -1.
        -11    1    3    3    0    0  0.15340795646E+03  0.12498453669E+02  0.90933852915E+03  0.92227261319E+03  0.00000000000E+00 0.  1.
         22    1    1    2    0    0 -0.28813887002E+03 -0.11210485811E+03  0.25696632568E+03  0.40202388009E+03  0.00000000000E+00 0.  1.
<mgrwt>
<rscale>  0 0.89674478E+03</rscale>
<asrwt>0</asrwt>
<pdfrwt beam="1">  1        1 0.36253889E+00 0.89674478E+03</pdfrwt>
<pdfrwt beam="2">  1       -1 0.13124912E-01 0.89674478E+03</pdfrwt>
<totfact> 0.71167422E+01</totfact>
</mgrwt>
</event>
<event>
 6    1  0.1885829E-005  0.2043278E+04  0.7818608E-02  0.8586650E-01
          1   -1    0    0  501    0  0.00000000000E+00  0.00000000000E+00  0.13410182994E+04  0.13410182994E+04  0.00000000000E+00 0. -1.
         -1   -1    0    0    0  501 -0.00000000000E+00 -0.00000000000E+00 -0.77832341907E+03  0.77832341907E+03  0.00000000000E+00 0.  1.
         23    2    1    2    0    0 -0.74748369524E+03  0.63235698237E+03  0.57645654816E+03  0.11401601157E+04  0.95161492303E+02 0.  0.
         11    1    3    3    0    0 -0.10985735489E+03  0.80649996733E+02  0.45236054026E+02  0.14359443227E+03  0.00000000000E+00 0.  1.
        -11    1    3    3    0    0 -0.63762634035E+03  0.55170698564E+03  0.53122049413E+03  0.99656568338E+03  0.00000000000E+00 0. -1.
         22    1    1    2    0    0  0.74748369524E+03 -0.63235698237E+03 -0.13761667827E+02  0.97918160282E+03  0.00000000000E+00 0.  1.
<mgrwt>
<rscale>  0 0.20432777E+04</rscale>
<asrwt>0</asrwt>
<pdfrwt beam="1">  1        1 0.20631051E+00 0.20432777E+04</pdfrwt>
<pdfrwt beam="2">  1       -1 0.11974206E+00 0.20432777E+04</pdfrwt>
<totfact> 0.48643566E+00</totfact>
</mgrwt>
</event>
<event>
 6    1  0.1885829E-005  0.3253414E+04  0.7818608E-02  0.8174851E-01
          2   -1    0    0  501    0  0.00000000000E+00  0.00000000000E+00  0.34372386470E+04  0.34372386470E+04  0.00000000000E+00 0. -1.
         -2   -1    0    0    0  501 -0.00000000000E+00 -0.00000000000E+00 -0.76985518482E+03  0.76985518482E+03  0.00000000000E+00 0.  1.
         23    2    1    2    0    0 -0.10827192811E+04 -0.46408350058E+03 -0.11355537328E+03  0.11869489108E+04  0.91095317306E+02 0.  0.
         11    1    3    3    0    0 -0.38756504279E+03 -0.21292901314E+03 -0.32880539276E+02  0.44342593169E+03  0.00000000000E+00 0.  1.
        -11    1    3    3    0    0 -0.69515423835E+03 -0.25115448743E+03 -0.80674834008E+02  0.74352297913E+03  0.00000000000E+00 0. -1.
         22    1    1    2    0    0  0.10827192811E+04  0.46408350058E+03  0.27809388354E+04  0.30201449210E+04  0.00000000000E+00 0. -1.
<mgrwt>
<rscale>  0 0.32534142E+04</rscale>
<asrwt>0</asrwt>
<pdfrwt beam="1">  1        2 0.52880594E+00 0.32534142E+04</pdfrwt>
<pdfrwt beam="2">  1       -2 0.11843926E+00 0.32534142E+04</pdfrwt>
<totfact> 0.41286679E-01</totfact>
</mgrwt>
</event>
<event>
 6    1  0.1885829E-005  0.8654165E+03  0.7818608E-02  0.9469876E-01
         -1   -1    0    0    0  501 -0.00000000000E+00  0.00000000000E+00  0.19704901221E+03  0.19704901221E+03  0.00000000000E+00 0.  1.
          1   -1    0    0  501    0  0.00000000000E+00 -0.00000000000E+00 -0.95020243134E+03  0.95020243134E+03  0.00000000000E+00 0. -1.
         23    2    1    2    0    0  0.32780604737E+03 -0.13071963124E+03 -0.69950569275E+03  0.79028855300E+03  0.10345702553E+03 0.  0.
         13    1    3    3    0    0  0.19064414744E+03 -0.12630579724E+03 -0.39806489353E+03  0.45907951907E+03  0.00000000000E+00 0.  1.
        -13    1    3    3    0    0  0.13716189993E+03 -0.44138340033E+01 -0.30144079921E+03  0.33120903393E+03  0.00000000000E+00 0. -1.
         22    1    1    2    0    0 -0.32780604737E+03  0.13071963124E+03 -0.53647726392E+02  0.35696289055E+03  0.00000000000E+00 0.  1.
<mgrwt>
<rscale>  0 0.86541655E+03</rscale>
<asrwt>0</asrwt>
<pdfrwt beam="1">  1        1 0.14618499E+00 0.86541655E+03</pdfrwt>
<pdfrwt beam="2">  1       -1 0.30315233E-01 0.86541655E+03</pdfrwt>
<totfact> 0.16724035E+02</totfact>
</mgrwt>
</event>
<event>
 6    1  0.1885829E-005  0.2159500E+04  0.7818608E-02  0.8535477E-01
         -2   -1    0    0    0  501 -0.00000000000E+00  0.00000000000E+00  0.68286508991E+03  0.68286508991E+03  0.00000000000E+00 0.  1.
          2   -1    0    0  501    0  0.00000000000E+00 -0.00000000000E+00 -0.17073059012E+04  0.17073059012E+04  0.00000000000E+00 0. -1.
         23    2    1    2    0    0 -0.17189971851E+02 -0.82863447468E+03 -0.12755445175E+04  0.15241550219E+04  0.95415548418E+02 0.  0.
         11    1    3    3    0    0 -0.28836728141E+02 -0.55218344463E+03 -0.92362100110E+03  0.10764821722E+04  0.00000000000E+00 0.  1.
        -11    1    3    3    0    0  0.11646756290E+02 -0.27645103005E+03 -0.35192351637E+03  0.44767284966E+03  0.00000000000E+00 0. -1.
         22    1    1    2    0    0  0.17189971851E+02  0.82863447468E+03  0.25110370616E+03  0.86601596925E+03  0.00000000000E+00 0.  1.
<mgrwt>
<rscale>  0 0.21594996E+04</rscale>
<asrwt>0</asrwt>
<pdfrwt beam="1">  1        2 0.26266245E+00 0.21594996E+04</pdfrwt>
<pdfrwt beam="2">  1       -2 0.10505617E+00 0.21594996E+04</pdfrwt>
<totfact> 0.65415014E+00</totfact>
</mgrwt>
</event>
<event>
 6    1  0.1885829E-005  0.3592740E+04  0.7818608E-02  0.8092157E-01
         -2   -1    0    0    0  501 -0.00000000000E+00  0.00000000000E+00  0.20962673446E+04  0.20962673446E+04  0.00000000000E+00 0. -1.
          2   -1    0    0  501    0  0.00000000000E+00 -0.00000000000E+00 -0.15393769612E+04  0.15393769612E+04  0.00000000000E+00 0.  1.
         23    2    1    2    0    0  0.13547852793E+04  0.54918321427E+03  0.13330535802E+04  0.19805084613E+04  0.91304774545E+02 0.  0.
         11    1    3    3    0    0  0.11784786026E+04  0.44569228832E+03  0.11320800113E+04  0.16938295618E+04  0.00000000000E+00 0.  1.
        -11    1    3    3    0    0  0.17630667675E+03  0.10349092596E+03  0.20097356889E+03  0.28667889950E+03  0.00000000000E+00 0. -1.
         22    1    1    2    0    0 -0.13547852793E+04 -0.54918321427E+03 -0.77616319672E+03  0.16551358445E+04  0.00000000000E+00 0.  1.
<mgrwt>
<rscale>  0 0.35927403E+04</rscale>
<asrwt>0</asrwt>
<pdfrwt beam="1">  1        2 0.23682722E+00 0.35927403E+04</pdfrwt>
<pdfrwt beam="2">  1       -2 0.32250267E+00 0.35927403E+04</pdfrwt>
<totfact> 0.22721747E-01</totfact>
</mgrwt>
</event>
<event>
 6    1  0.1885829E-005  0.2331849E+04  0.7818608E-02  0.8465468E-01
          2   -1    0    0  501    0  0.00000000000E+00  0.00000000000E+00  0.27137799767E+04  0.27137799767E+04  0.00000000000E+00 0.  1.
         -2   -1    0    0    0  501 -0.00000000000E+00 -0.00000000000E+00 -0.50091761065E+03  0.50091761065E+03  0.00000000000E+00 0. -1.
         23    2    1    2    0    0 -0.70407434182E+03  0.59626540110E+03  0.20867900605E+04  0.22834901273E+04  0.91549426408E+02 0.  0.
         13    1    3    3    0    0 -0.41108623066E+03  0.40513330417E+03  0.12776475610E+04  0.14019658246E+04  0.00000000000E+00 0.  1.
        -13    1    3    3    0    0 -0.29298811116E+03  0.19113209693E+03  0.80914249951E+03  0.88152430271E+03  0.00000000000E+00 0. -1.
         22    1    1    2    0    0  0.70407434182E+03 -0.59626540110E+03  0.12607230549E+03  0.93120746001E+03  0.00000000000E+00 0. -1.
<mgrwt>
<rscale>  0 0.23318492E+04</rscale>
<asrwt>0</asrwt>
<pdfrwt beam="1">  1        2 0.41750460E+00 0.23318492E+04</pdfrwt>
<pdfrwt beam="2">  1       -2 0.77064250E-01 0.23318492E+04</pdfrwt>
<totfact> 0.35423323E+00</totfact>
</mgrwt>
</event>
<event>
 6    1  0.1885829E-005  0.2241218E+04  0.7818608E-02  0.8501465E-01
         -2   -1    0    0    0  501 -0.00000000000E+00  0.00000000000E+00  0.10485594291E+04  0.10485594291E+04  0.00000000000E+00 0.  1.
          2   -1    0    0  501    0  0.00000000000E+00 -0.00000000000E+00 -0.11976095087E+04  0.11976095087E+04  0.00000000000E+00 0. -1.
         23    2    1    2    0    0  0.43314460927E+03  0.65492444198E+03 -0.87321522145E+03  0.11780137852E+04  0.93120233627E+02 0.  0.
         11    1    3    3    0    0  0.33636963641E+02  0.76438635019E+02 -0.13381942105E+03  0.15774012710E+03  0.00000000000E+00 0. -1.
        -11    1    3    3    0    0  0.39950764563E+03  0.57848580697E+03 -0.73939580040E+03  0.10202736581E+04  0.00000000000E+00 0.  1.
         22    1    1    2    0    0 -0.43314460927E+03 -0.65492444198E+03  0.72416514186E+03  0.10681551526E+04  0.00000000000E+00 0.  1.
<mgrwt>
<rscale>  0 0.22412182E+04</rscale>
<asrwt>0</asrwt>
<pdfrwt beam="1">  1        2 0.18424762E+00 0.22412182E+04</pdfrwt>
<pdfrwt beam="2">  1       -2 0.16131684E+00 0.22412182E+04</pdfrwt>
<totfact> 0.42643301E+00</totfact>
</mgrwt>
</event>
<event>
 6    1  0.1885829E-005  0.3537628E+04  0.7818608E-02  0.8104930E-01
         -2   -1    0    0    0  501 -0.00000000000E+00  0.00000000000E+00  0.16787738250E+04  0.16787738250E+04  0.00000000000E+00 0.  1.
          2   -1    0    0  501    0  0.00000000000E+00 -0.00000000000E+00 -0.18636836143E+04  0.18636836143E+04  0.00000000000E+00 0. -1.
         23    2    1    2    0    0 -0.12242652485E+04 -0.40986059348E+03  0.11163667124E+04  0.17093912543E+04  0.94513063182E+02 0.  0.
         13    1    3    3    0    0 -0.14751098276E+03 -0.81070775995E+02  0.13204443649E+03  0.21393385418E+03  0.00000000000E+00 0.  1.
        -13    1    3    3    0    0 -0.10767542657E+04 -0.32878981749E+03  0.98432227592E+03  0.14954574001E+04  0.00000000000E+00 0. -1.
         22    1    1    2    0    0  0.12242652485E+04  0.40986059348E+03 -0.13012765017E+04  0.18330661850E+04  0.00000000000E+00 0. -1.
<mgrwt>
<rscale>  0 0.35376282E+04</rscale>
<asrwt>0</asrwt>
<pdfrwt beam="1">  1        2 0.28672056E+00 0.35376282E+04</pdfrwt>
<pdfrwt beam="2">  1       -2 0.25827290E+00 0.35376282E+04</pdfrwt>
<totfact> 0.37253059E-01</totfact>
</mgrwt>
</event>
<event>
 6    1  0.1885829E-005  0.1470317E+04  0.7818608E-02  0.8904436E-01
          2   -1    0    0  501    0  0.00000000000E+00  0.00000000000E+00  0.14927144873E+04  0.14927144873E+04  0.00000000000E+00 0. -1.
         -2   -1    0    0    0  501 -0.00000000000E+00 -0.00000000000E+00 -0.36206365045E+03  0.36206365045E+03  0.00000000000E+00 0.  1.
         23    2    1    2    0    0  0.20718554202E+03  0.60591597365E+03  0.10158179310E+04  0.12042040741E+04  0.90340285855E+02 0.  0.
         13    1    3    3    0    0  0.70912709999E+02  0.13517358681E+03  0.18759749992E+03  0.24185394970E+03  0.00000000000E+00 0.  1.
        -13    1    3    3    0    0  0.13627283202E+03  0.47074238685E+03  0.82822043110E+03  0.96235012444E+03  0.00000000000E+00 0. -1.
         22    1    1    2    0    0 -0.20718554202E+03 -0.60591597365E+03  0.11483290580E+03  0.65057406358E+03  0.00000000000E+00 0.  1.
<mgrwt>
<rscale>  0 0.14703165E+04</rscale>
<asrwt>0</asrwt>
<pdfrwt beam="1">  1        2 0.22964838E+00 0.14703165E+04</pdfrwt>
<pdfrwt beam="2">  1       -2 0.55702101E-01 0.14703165E+04</pdfrwt>
<totfact> 0.37566303E+01</totfact>
</mgrwt>
</event>
<event>
 6    1  0.1885829E-005  0.1176222E+04  0.7818608E-02  0.9133927E-01
         -2   -1    0    0    0  501 -0.00000000000E+00  0.00000000000E+00  0.27882255330E+03  0.27882255330E+03  0.00000000000E+00 0.  1.
          2   -1    0    0  501    0  0.00000000000E+00 -0.00000000000E+00 -0.12404834330E+04  0.12404834330E+04  0.00000000000E+00 0. -1.
         23    2    1    2    0    0 -0.15227737900E+03 -0.41801089088E+03  0.62307569390E+01  0.45406623613E+03  0.90641157417E+02 0.  0.
         11    1    3    3    0    0 -0.11126769270E+03 -0.31130728579E+03 -0.35230759337E+02  0.33246643744E+03  0.00000000000E+00 0. -1.
        -11    1    3    3    0    0 -0.41009686307E+02 -0.10670360509E+03  0.41461516276E+02  0.12159979869E+03  0.00000000000E+00 0.  1.
         22    1    1    2    0    0  0.15227737900E+03  0.41801089088E+03 -0.96789163668E+03  0.10652397502E+04  0.00000000000E+00 0. -1.
<mgrwt>
<rscale>  0 0.11762224E+04</rscale>
<asrwt>0</asrwt>
<pdfrwt beam="1">  1        2 0.19084361E+00 0.11762224E+04</pdfrwt>
<pdfrwt beam="2">  1       -2 0.42895777E-01 0.11762224E+04</pdfrwt>
<totfact> 0.91186459E+01</totfact>
</mgrwt>
</event>
<event>
 6    1  0.1885829E-005  0.3373727E+04  0.7818608E-02  0.8144385E-01
          2   -1    0    0  501    0  0.00000000000E+00  0.00000000000E+00  0.32201202493E+04  0.32201202493E+04  0.00000000000E+00 0. -1.
         -2   -1    0    0    0  501 -0.00000000000E+00 -0.00000000000E+00 -0.88366524557E+03  0.88366524557E+03  0.00000000000E+00 0.  1.
         23    2    1    2    0    0  0.10133761384E+04  0.12412301854E+04  0.53264474481E+03  0.16910453470E+04  0.91325628246E+02 0.  0.
         13    1    3    3    0    0  0.31507466078E+03  0.36079184686E+03  0.11873308782E+03  0.49349806967E+03  0.00000000000E+00 0. -1.
        -13    1    3    3    0    0  0.69830147758E+03  0.88043833856E+03  0.41391165699E+03  0.11975472773E+04  0.00000000000E+00 0.  1.
         22    1    1    2    0    0 -0.10133761384E+04 -0.12412301854E+04  0.18038102589E+04  0.24127401479E+04  0.00000000000E+00 0. -1.
<mgrwt>
<rscale>  0 0.33737269E+04</rscale>
<asrwt>0</asrwt>
<pdfrwt beam="1">  1        2 0.49540311E+00 0.33737269E+04</pdfrwt>
<pdfrwt beam="2">  1       -2 0.13594850E+00 0.33737269E+04</pdfrwt>
<totfact> 0.40429940E-01</totfact>
</mgrwt>
</event>
<event>
 6    1  0.1885829E-005  0.1840076E+04  0.7818608E-02  0.8685273E-01
          2   -1    0    0  501    0  0.00000000000E+00  0.00000000000E+00  0.19357964993E+04  0.19357964993E+04  0.00000000000E+00 0. -1.
         -2   -1    0    0    0  501 -0.00000000000E+00 -0.00000000000E+00 -0.43727230176E+03  0.43727230176E+03  0.00000000000E+00 0.  1.
         23    2    1    2    0    0  0.16310694899E+03 -0.16613868310E+03  0.18959321122E+04  0.19124833155E+04  0.93957006046E+02 0.  0.
         11    1    3    3    0    0  0.13597023856E+03 -0.94976887822E+02  0.15120468641E+04  0.15211161147E+04  0.00000000000E+00 0. -1.
        -11    1    3    3    0    0  0.27136710430E+02 -0.71161795282E+02  0.38388524808E+03  0.39136720079E+03  0.00000000000E+00 0.  1.
         22    1    1    2    0    0 -0.16310694899E+03  0.16613868310E+03 -0.39740791471E+03  0.46058548556E+03  0.00000000000E+00 0.  1.
<mgrwt>
<rscale>  0 0.18400763E+04</rscale>
<asrwt>0</asrwt>
<pdfrwt beam="1">  1        2 0.29781484E+00 0.18400763E+04</pdfrwt>
<pdfrwt beam="2">  1       -2 0.67272663E-01 0.18400763E+04</pdfrwt>
<totfact> 0.13834889E+01</totfact>
</mgrwt>
</event>
<event>
 6    1  0.1885829E-005  0.4533706E+04  0.7818608E-02  0.7904762E-01
          2   -1    0    0  501    0  0.00000000000E+00  0.00000000000E+00  0.33656436837E+04  0.33656436837E+04  0.00000000000E+00 0. -1.
         -2   -1    0    0    0  501 -0.00000000000E+00 -0.00000000000E+00 -0.15267873171E+04  0.15267873171E+04  0.00000000000E+00 0.  1.
         23    2    1    2    0    0  0.12995064055E+04 -0.12812455545E+03  0.29183132898E+04  0.31982173045E+04  0.83118408201E+02 0.  0.
         11    1    3    3    0    0  0.78684822495E+03 -0.80220311217E+02  0.16672786435E+04  0.18453681211E+04  0.00000000000E+00 0. -1.
        -11    1    3    3    0    0  0.51265818053E+03 -0.47904244234E+02  0.12510346463E+04  0.13528491834E+04  0.00000000000E+00 0.  1.
         22    1    1    2    0    0 -0.12995064055E+04  0.12812455545E+03 -0.10794569232E+04  0.16942136963E+04  0.00000000000E+00 0.  1.
<mgrwt>
<rscale>  0 0.45337058E+04</rscale>
<asrwt>0</asrwt>
<pdfrwt beam="1">  1        2 0.51779133E+00 0.45337058E+04</pdfrwt>
<pdfrwt beam="2">  1       -2 0.23489036E+00 0.45337058E+04</pdfrwt>
<totfact> 0.60501650E-02</totfact>
</mgrwt>
</event>
<event>
 6    1  0.1885829E-005  0.2418816E+04  0.7818608E-02  0.8432493E-01
          2   -1    0    0  501    0  0.00000000000E+00  0.00000000000E+00  0.10568273936E+04  0.10568273936E+04  0.00000000000E+00 0. -1.
         -2   -1    0    0    0  501 -0.00000000000E+00 -0.00000000000E+00 -0.13840176962E+04  0.13840176962E+04  0.00000000000E+00 0.  1.
         23    2    1    2    0    0  0.70364410720E+03  0.40055059938E+03  0.74043606888E+03  0.11009264798E+04  0.90761938903E+02 0.  0.
         11    1    3    3    0    0  0.40964139243E+03  0.28039993492E+03  0.42895892256E+03  0.65607617785E+03  0.00000000000E+00 0. -1.
        -11    1    3    3    0    0  0.29400271477E+03  0.12015066446E+03  0.31147714632E+03  0.44485030195E+03  0.00000000000E+00 0.  1.
         22    1    1    2    0    0 -0.70364410720E+03 -0.40055059938E+03 -0.10676263715E+04  0.13399186100E+04  0.00000000000E+00 0. -1.
<mgrwt>
<rscale>  0 0.24188161E+04</rscale>
<asrwt>0</asrwt>
<pdfrwt beam="1">  1        2 0.16258883E+00 0.24188161E+04</pdfrwt>
<pdfrwt beam="2">  1       -2 0.21292580E+00 0.24188161E+04</pdfrwt>
<totfact> 0.22815702E+00</totfact>
</mgrwt>
</event>
<event>
 6    1  0.1885829E-005  0.2748091E+04  0.7818608E-02  0.8319568E-01
         -2   -1    0    0    0  501 -0.00000000000E+00  0.00000000000E+00  0.20622494595E+04  0.20622494595E+04  0.00000000000E+00 0.  1.
          2   -1    0    0  501    0  0.00000000000E+00 -0.00000000000E+00 -0.91550598253E+03  0.91550598253E+03  0.00000000000E+00 0. -1.
         23    2    1    2    0    0  0.76523333725E+03 -0.74377245403E+03  0.15093649884E+04  0.18506911651E+04  0.89975534534E+02 0.  0.
         13    1    3    3    0    0  0.29136425314E+02 -0.34137744228E+02  0.98970804487E+02  0.10867169365E+03  0.00000000000E+00 0.  1.
        -13    1    3    3    0    0  0.73609691193E+03 -0.70963470981E+03  0.14103941839E+04  0.17420194715E+04  0.00000000000E+00 0. -1.
         22    1    1    2    0    0 -0.76523333725E+03  0.74377245403E+03 -0.36262151136E+03  0.11270642769E+04  0.00000000000E+00 0. -1.
<mgrwt>
<rscale>  0 0.27480915E+04</rscale>
<asrwt>0</asrwt>
<pdfrwt beam="1">  1        2 0.14084707E+00 0.27480915E+04</pdfrwt>
<pdfrwt beam="2">  1       -2 0.31726915E+00 0.27480915E+04</pdfrwt>
<totfact> 0.62264385E-01</totfact>
</mgrwt>
</event>
<event>
 6    1  0.1885829E-005  0.5289091E+03  0.7818608E-02  0.1006497E+00
         -2   -1    0    0    0  501 -0.00000000000E+00  0.00000000000E+00  0.39721120683E+03  0.39721120683E+03  0.00000000000E+00 0.  1.
          2   -1    0    0  501    0  0.00000000000E+00 -0.00000000000E+00 -0.17606808141E+03  0.17606808141E+03  0.00000000000E+00 0. -1.
         23    2    1    2    0    0 -0.87972549766E+02 -0.79428038006E+02 -0.12816201877E+03  0.20441336885E+03  0.10635478163E+03 0.  0.
         13    1    3    3    0    0 -0.10746762237E+03 -0.81663437821E+02 -0.92243290859E+02  0.16348404094E+03  0.00000000000E+00 0. -1.
        -13    1    3    3    0    0  0.19495072605E+02  0.22353998156E+01 -0.35918727906E+02  0.40929327902E+02  0.00000000000E+00 0.  1.
         22    1    1    2    0    0  0.87972549766E+02  0.79428038006E+02  0.34930514418E+03  0.36886591939E+03  0.00000000000E+00 0.  1.
<mgrwt>
<rscale>  0 0.52890912E+03</rscale>
<asrwt>0</asrwt>
<pdfrwt beam="1">  1        2 0.27087397E-01 0.52890912E+03</pdfrwt>
<pdfrwt beam="2">  1       -2 0.61109416E-01 0.52890912E+03</pdfrwt>
<totfact> 0.50217815E+02</totfact>
</mgrwt>
</event>
<event>
 6    1  0.1885829E-005  0.1345169E+04  0.7818608E-02  0.8994493E-01
          2   -1    0    0  501    0  0.00000000000E+00  0.00000000000E+00  0.72069755343E+03  0.72069755343E+03  0.00000000000E+00 0. -1.
         -2   -1    0    0    0  501 -0.00000000000E+00 -0.00000000000E+00 -0.62768345906E+03  0.62768345906E+03  0.00000000000E+00 0.  1.
         23    2    1    2    0    0 -0.17462846216E+03 -0.20344609282E+03  0.66156817839E+03  0.71978005883E+03  0.92333449814E+02 0.  0.
         11    1    3    3    0    0 -0.62604604883E+02 -0.10195664872E+03  0.18957370344E+03  0.22417110386E+03  0.00000000000E+00 0. -1.
        -11    1    3    3    0    0 -0.11202385727E+03 -0.10148944410E+03  0.47199447495E+03  0.49560895497E+03  0.00000000000E+00 0.  1.
         22    1    1    2    0    0  0.17462846216E+03  0.20344609282E+03 -0.56855408402E+03  0.62860095366E+03  0.00000000000E+00 0.  1.
<mgrwt>
<rscale>  0 0.13451690E+04</rscale>
<asrwt>0</asrwt>
<pdfrwt beam="1">  1        2 0.11087655E+00 0.13451690E+04</pdfrwt>
<pdfrwt beam="2">  1       -2 0.96566686E-01 0.13451690E+04</pdfrwt>
<totfact> 0.34610010E+01</totfact>
</mgrwt>
</event>
<event>
 6    1  0.1959249E-005  0.4744645E+04  0.7818608E-02  0.7869153E-01
          2   -1    0    0  501    0  0.00000000000E+00  0.00000000000E+00  0.25632626087E+04  0.25632626087E+04  0.00000000000E+00 0. -1.
         -2   -1    0    0    0  501 -0.00000000000E+00 -0.00000000000E+00 -0.21956054512E+04  0.21956054512E+04  0.00000000000E+00 0.  1.
         23    2    1    2    0    0  0.14600744311E+03  0.36811807681E+03  0.25290706086E+04  0.25614747863E+04  0.90143473545E+02 0.  0.
         11    1    3    3    0    0  0.96950060769E+02  0.32829311059E+03  0.21847909882E+04  0.22114446281E+04  0.00000000000E+00 0.  1.
        -11    1    3    3    0    0  0.49057382337E+02  0.39824966228E+02  0.34427962037E+03  0.35003015827E+03  0.00000000000E+00 0. -1.
         22    1    1    2    0    0 -0.14600744311E+03 -0.36811807681E+03 -0.21614134511E+04  0.21973932735E+04  0.00000000000E+00 0.  1.
<mgrwt>
<rscale>  0 0.47446447E+04</rscale>
<asrwt>0</asrwt>
<pdfrwt beam="1">  1        2 0.39434809E+00 0.47446447E+04</pdfrwt>
<pdfrwt beam="2">  1       -2 0.33778545E+00 0.47446447E+04</pdfrwt>
<totfact> 0.44104489E-02</totfact>
</mgrwt>
</event>
<event>
 6    1  0.1885829E-005  0.1555785E+04  0.7818608E-02  0.8848181E-01
          2   -1    0    0  501    0  0.00000000000E+00  0.00000000000E+00  0.18851609721E+04  0.18851609721E+04  0.00000000000E+00 0. -1.
         -2   -1    0    0    0  501 -0.00000000000E+00 -0.00000000000E+00 -0.32098962388E+03  0.32098962388E+03  0.00000000000E+00 0.  1.
         23    2    1    2    0    0 -0.58809362434E+03  0.46483554467E+03  0.50479887962E+03  0.90838473812E+03  0.91731832004E+02 0.  0.
         11    1    3    3    0    0 -0.16802451926E+03  0.15405940011E+03  0.20122699023E+03  0.30407045143E+03  0.00000000000E+00 0. -1.
        -11    1    3    3    0    0 -0.42006910508E+03  0.31077614456E+03  0.30357188939E+03  0.60431428669E+03  0.00000000000E+00 0.  1.
         22    1    1    2    0    0  0.58809362434E+03 -0.46483554467E+03  0.10593724686E+04  0.12977658578E+04  0.00000000000E+00 0. -1.
<mgrwt>
<rscale>  0 0.15557855E+04</rscale>
<asrwt>0</asrwt>
<pdfrwt beam="1">  1        2 0.29002476E+00 0.15557855E+04</pdfrwt>
<pdfrwt beam="2">  1       -2 0.49383020E-01 0.15557855E+04</pdfrwt>
<totfact> 0.28902376E+01</totfact>
</mgrwt>
</event>
<event>
 6    1  0.1885829E-005  0.1704913E+04  0.7818608E-02  0.8758568E-01
         -2   -1    0    0    0  501 -0.00000000000E+00  0.00000000000E+00  0.38003628035E+03  0.38003628035E+03  0.00000000000E+00 0.  1.
          2   -1    0    0  501    0  0.00000000000E+00 -0.00000000000E+00 -0.19121376089E+04  0.19121376089E+04  0.00000000000E+00 0. -1.
         23    2    1    2    0    0  0.23080843307E+03  0.71948422955E+03 -0.24494742276E+03  0.79962731828E+03  0.92057150079E+02 0.  0.
         13    1    3    3    0    0  0.21050403919E+02  0.56783162356E+02 -0.47667412131E+02  0.77068989948E+02  0.00000000000E+00 0. -1.
        -13    1    3    3    0    0  0.20975802915E+03  0.66270106719E+03 -0.19728001063E+03  0.72255832833E+03  0.00000000000E+00 0.  1.
         22    1    1    2    0    0 -0.23080843307E+03 -0.71948422955E+03 -0.12871539058E+04  0.14925465710E+04  0.00000000000E+00 0. -1.
<mgrwt>
<rscale>  0 0.17049125E+04</rscale>
<asrwt>0</asrwt>
<pdfrwt beam="1">  1        2 0.29417502E+00 0.17049125E+04</pdfrwt>
<pdfrwt beam="2">  1       -2 0.58467119E-01 0.17049125E+04</pdfrwt>
<totfact> 0.19452887E+01</totfact>
</mgrwt>
</event>
<event>
 6    1  0.1885829E-005  0.3635472E+04  0.7818608E-02  0.8082414E-01
          2   -1    0    0  501    0  0.00000000000E+00  0.00000000000E+00  0.43340824051E+04  0.43340824051E+04  0.00000000000E+00 0. -1.
         -2   -1    0    0    0  501 -0.00000000000E+00 -0.00000000000E+00 -0.76236758688E+03  0.76236758688E+03  0.00000000000E+00 0.  1.
         23    2    1    2    0    0  0.12745959212E+04 -0.12924918657E+04  0.18854153715E+04  0.26188027593E+04  0.90591302133E+02 0.  0.
         13    1    3    3    0    0  0.53312810740E+03 -0.57089396564E+03  0.86824217157E+03  0.11678998105E+04  0.00000000000E+00 0.  1.
        -13    1    3    3    0    0  0.74146781376E+03 -0.72159790011E+03  0.10171731999E+04  0.14509029488E+04  0.00000000000E+00 0. -1.
         22    1    1    2    0    0 -0.12745959212E+04  0.12924918657E+04  0.16862994467E+04  0.24776472326E+04  0.00000000000E+00 0.  1.
<mgrwt>
<rscale>  0 0.36354719E+04</rscale>
<asrwt>0</asrwt>
<pdfrwt beam="1">  1        2 0.66678190E+00 0.36354719E+04</pdfrwt>
<pdfrwt beam="2">  1       -2 0.11728732E+00 0.36354719E+04</pdfrwt>
<totfact> 0.80292854E-02</totfact>
</mgrwt>
</event>
<event>
 6    1  0.1885829E-005  0.3244814E+04  0.7818608E-02  0.8177081E-01
         -2   -1    0    0    0  501 -0.00000000000E+00  0.00000000000E+00  0.11208193124E+04  0.11208193124E+04  0.00000000000E+00 0.  1.
          2   -1    0    0  501    0  0.00000000000E+00 -0.00000000000E+00 -0.23484643361E+04  0.23484643361E+04  0.00000000000E+00 0. -1.
         23    2    1    2    0    0  0.96164683718E+03  0.12004057698E+04 -0.11621330397E+04  0.19297933200E+04  0.88376490234E+02 0.  0.
         11    1    3    3    0    0  0.70380182609E+03  0.82696339702E+03 -0.78907887417E+03  0.13423304139E+04  0.00000000000E+00 0.  1.
        -11    1    3    3    0    0  0.25784501109E+03  0.37344237282E+03 -0.37305416556E+03  0.58746290606E+03  0.00000000000E+00 0. -1.
         22    1    1    2    0    0 -0.96164683718E+03 -0.12004057698E+04 -0.65511983992E+02  0.15394903286E+04  0.00000000000E+00 0. -1.
<mgrwt>
<rscale>  0 0.32448138E+04</rscale>
<asrwt>0</asrwt>
<pdfrwt beam="1">  1        2 0.36130220E+00 0.32448138E+04</pdfrwt>
<pdfrwt beam="2">  1       -2 0.17243374E+00 0.32448138E+04</pdfrwt>
<totfact> 0.73109338E-01</totfact>
</mgrwt>
</event>
<event>
 6    1  0.1885829E-005  0.3639539E+04  0.7818608E-02  0.8081494E-01
          2   -1    0    0  501    0  0.00000000000E+00  0.00000000000E+00  0.99348302663E+03  0.99348302663E+03  0.00000000000E+00 0. -1.
         -2   -1    0    0    0  501 -0.00000000000E+00 -0.00000000000E+00 -0.33332846175E+04  0.33332846175E+04  0.00000000000E+00 0.  1.
         23    2    1    2    0    0  0.14258745884E+04 -0.10811297724E+04 -0.15564358425E+04  0.23734059720E+04  0.92754780856E+02 0.  0.
         13    1    3    3    0    0  0.54367255987E+03 -0.45854863622E+03 -0.65320233461E+03  0.96567074828E+03  0.00000000000E+00 0. -1.
        -13    1    3    3    0    0  0.88220202850E+03 -0.62258113618E+03 -0.90323350788E+03  0.14077352237E+04  0.00000000000E+00 0.  1.
         22    1    1    2    0    0 -0.14258745884E+04  0.10811297724E+04 -0.78336574833E+03  0.19533616721E+04  0.00000000000E+00 0.  1.
<mgrwt>
<rscale>  0 0.36395394E+04</rscale>
<asrwt>0</asrwt>
<pdfrwt beam="1">  1        2 0.15284355E+00 0.36395394E+04</pdfrwt>
<pdfrwt beam="2">  1       -2 0.51281301E+00 0.36395394E+04</pdfrwt>
<totfact> 0.28444914E-02</totfact>
</mgrwt>
</event>
<event>
 6    1  0.1885829E-005  0.1773730E+04  0.7818608E-02  0.8720396E-01
          2   -1    0    0  501    0  0.00000000000E+00  0.00000000000E+00  0.31138036883E+04  0.31138036883E+04  0.00000000000E+00 0. -1.
         -2   -1    0    0    0  501 -0.00000000000E+00 -0.00000000000E+00 -0.25259435882E+03  0.25259435882E+03  0.00000000000E+00 0.  1.
         23    2    1    2    0    0 -0.31162243135E+03 -0.82624919575E+03  0.15276329469E+04  0.17669536932E+04  0.93094898784E+02 0.  0.
         11    1    3    3    0    0 -0.19469575745E+03 -0.44188092785E+03  0.75728710175E+03  0.89813637430E+03  0.00000000000E+00 0. -1.
        -11    1    3    3    0    0 -0.11692667390E+03 -0.38436826790E+03  0.77034584517E+03  0.86881731889E+03  0.00000000000E+00 0.  1.
         22    1    1    2    0    0  0.31162243135E+03  0.82624919575E+03  0.13335763825E+04  0.15994443539E+04  0.00000000000E+00 0.  1.
<mgrwt>
<rscale>  0 0.17737297E+04</rscale>
<asrwt>0</asrwt>
<pdfrwt beam="1">  1        2 0.47904670E+00 0.17737297E+04</pdfrwt>
<pdfrwt beam="2">  1       -2 0.38860673E-01 0.17737297E+04</pdfrwt>
<totfact> 0.87734097E+00</totfact>
</mgrwt>
</event>
<event>
 6    1  0.1885829E-005  0.2119570E+04  0.7818608E-02  0.8552671E-01
          2   -1    0    0  501    0  0.00000000000E+00  0.00000000000E+00  0.63434492133E+03  0.63434492133E+03  0.00000000000E+00 0. -1.
         -2   -1    0    0    0  501 -0.00000000000E+00 -0.00000000000E+00 -0.17705582490E+04  0.17705582490E+04  0.00000000000E+00 0.  1.
         23    2    1    2    0    0  0.20891227992E+03 -0.10219411079E+04 -0.36990880651E+03  0.11105961789E+04  0.92646525765E+02 0.  0.
         11    1    3    3    0    0  0.99536351945E+02 -0.62156649166E+03 -0.26138436464E+03  0.68159678329E+03  0.00000000000E+00 0.  1.
        -11    1    3    3    0    0  0.10937592798E+03 -0.40037461628E+03 -0.10852444187E+03  0.42899939564E+03  0.00000000000E+00 0. -1.
         22    1    1    2    0    0 -0.20891227992E+03  0.10219411079E+04 -0.76630452113E+03  0.12943069914E+04  0.00000000000E+00 0.  1.
<mgrwt>
<rscale>  0 0.21195704E+04</rscale>
<asrwt>0</asrwt>
<pdfrwt beam="1">  1        2 0.97591526E-01 0.21195704E+04</pdfrwt>
<pdfrwt beam="2">  1       -2 0.27239358E+00 0.21195704E+04</pdfrwt>
<totfact> 0.19982276E+00</totfact>
</mgrwt>
</event>
<event>
 6    1  0.1885829E-005  0.1381812E+04  0.7818608E-02  0.8967090E-01
         -2   -1    0    0    0  501 -0.00000000000E+00  0.00000000000E+00  0.17409725039E+03  0.17409725039E+03  0.00000000000E+00 0.  1.
          2   -1    0    0  501    0  0.00000000000E+00 -0.00000000000E+00 -0.27418630372E+04  0.27418630372E+04  0.00000000000E+00 0. -1.
         23    2    1    2    0    0  0.92785967067E+02 -0.26411867434E+03 -0.26154272783E+04  0.26319892898E+04  0.92411382900E+02 0.  0.
         11    1    3    3    0    0 -0.18395719397E+02 -0.24433920229E+02 -0.26983515702E+03  0.27156294098E+03  0.00000000000E+00 0.  1.
        -11    1    3    3    0    0  0.11118168646E+03 -0.23968475412E+03 -0.23455921213E+04  0.23604263488E+04  0.00000000000E+00 0. -1.
         22    1    1    2    0    0 -0.92785967067E+02  0.26411867434E+03  0.47661491480E+02  0.28397099780E+03  0.00000000000E+00 0.  1.
<mgrwt>
<rscale>  0 0.13818116E+04</rscale>
<asrwt>0</asrwt>
<pdfrwt beam="1">  1        2 0.42182506E+00 0.13818116E+04</pdfrwt>
<pdfrwt beam="2">  1       -2 0.26784194E-01 0.13818116E+04</pdfrwt>
<totfact> 0.31099156E+01</totfact>
</mgrwt>
</event>
<event>
 6    1  0.1885829E-005  0.2797485E+04  0.7818608E-02  0.8304050E-01
          2   -1    0    0  501    0  0.00000000000E+00  0.00000000000E+00  0.26557623225E+04  0.26557623225E+04  0.00000000000E+00 0.  1.
         -2   -1    0    0    0  501 -0.00000000000E+00 -0.00000000000E+00 -0.73669275573E+03  0.73669275573E+03  0.00000000000E+00 0. -1.
         23    2    1    2    0    0  0.27227897644E+03 -0.53025196375E+03 -0.57198598504E+03  0.83107639707E+03  0.90647805376E+02 0.  0.
         13    1    3    3    0    0  0.11694008058E+02 -0.78019061259E+02 -0.53078233294E+02  0.95084292046E+02  0.00000000000E+00 0. -1.
        -13    1    3    3    0    0  0.26058496839E+03 -0.45223290249E+03 -0.51890775174E+03  0.73599210503E+03  0.00000000000E+00 0.  1.
         22    1    1    2    0    0 -0.27227897644E+03  0.53025196375E+03  0.24910555518E+04  0.25613786812E+04  0.00000000000E+00 0.  1.
<mgrwt>
<rscale>  0 0.27974852E+04</rscale>
<asrwt>0</asrwt>
<pdfrwt beam="1">  1        2 0.40857882E+00 0.27974852E+04</pdfrwt>
<pdfrwt beam="2">  1       -2 0.11333735E+00 0.27974852E+04</pdfrwt>
<totfact> 0.14997334E+00</totfact>
</mgrwt>
</event>
<event>
 6    1  0.1885829E-005  0.2677862E+04  0.7818608E-02  0.8342224E-01
          2   -1    0    0  501    0  0.00000000000E+00  0.00000000000E+00  0.18193065469E+04  0.18193065469E+04  0.00000000000E+00 0. -1.
         -2   -1    0    0    0  501 -0.00000000000E+00 -0.00000000000E+00 -0.98539543190E+03  0.98539543190E+03  0.00000000000E+00 0.  1.
         23    2    1    2    0    0 -0.44059852973E+03  0.75456625648E+03  0.14785529418E+04  0.17188565088E+04  0.69653399141E+02 0.  0.
         13    1    3    3    0    0 -0.23129814720E+03  0.41266545807E+03  0.86604299750E+03  0.98682424307E+03  0.00000000000E+00 0. -1.
        -13    1    3    3    0    0 -0.20930038253E+03  0.34190079841E+03  0.61250994434E+03  0.73203226568E+03  0.00000000000E+00 0.  1.
         22    1    1    2    0    0  0.44059852973E+03 -0.75456625648E+03 -0.64464182687E+03  0.10858454700E+04  0.00000000000E+00 0.  1.
<mgrwt>
<rscale>  0 0.26778621E+04</rscale>
<asrwt>0</asrwt>
<pdfrwt beam="1">  1        2 0.27989331E+00 0.26778621E+04</pdfrwt>
<pdfrwt beam="2">  1       -2 0.15159930E+00 0.26778621E+04</pdfrwt>
<totfact> 0.21555099E+00</totfact>
</mgrwt>
</event>
<event>
 6    1  0.1885829E-005  0.3311947E+04  0.7818608E-02  0.8159862E-01
          2   -1    0    0  501    0  0.00000000000E+00  0.00000000000E+00  0.21585612633E+04  0.21585612633E+04  0.00000000000E+00 0. -1.
         -2   -1    0    0    0  501 -0.00000000000E+00 -0.00000000000E+00 -0.12704054296E+04  0.12704054296E+04  0.00000000000E+00 0.  1.
         23    2    1    2    0    0 -0.78170372398E+03  0.22115963273E+03 -0.10480678786E+04  0.13292203845E+04  0.91696549619E+02 0.  0.
         13    1    3    3    0    0 -0.27165893165E+03  0.76638301488E+02 -0.29512660555E+03  0.40837693091E+03  0.00000000000E+00 0.  1.
        -13    1    3    3    0    0 -0.51004479233E+03  0.14452133124E+03 -0.75294127306E+03  0.92084345360E+03  0.00000000000E+00 0. -1.
         22    1    1    2    0    0  0.78170372398E+03 -0.22115963273E+03  0.19362237124E+04  0.20997463084E+04  0.00000000000E+00 0. -1.
<mgrwt>
<rscale>  0 0.33119468E+04</rscale>
<asrwt>0</asrwt>
<pdfrwt beam="1">  1        2 0.33208635E+00 0.33119468E+04</pdfrwt>
<pdfrwt beam="2">  1       -2 0.19544699E+00 0.33119468E+04</pdfrwt>
<totfact> 0.64801628E-01</totfact>
</mgrwt>
</event>
<event>
 6    1  0.1885829E-005  0.2884715E+04  0.7818608E-02  0.8277440E-01
          2   -1    0    0  501    0  0.00000000000E+00  0.00000000000E+00  0.17006562561E+04  0.17006562561E+04  0.00000000000E+00 0.  1.
         -2   -1    0    0    0  501 -0.00000000000E+00 -0.00000000000E+00 -0.12232900420E+04  0.12232900420E+04  0.00000000000E+00 0. -1.
         23    2    1    2    0    0  0.12659730921E+04 -0.40222561546E+03  0.80475240962E+03  0.15558618576E+04  0.92770488342E+02 0.  0.
         13    1    3    3    0    0  0.66556284059E+03 -0.16884007966E+03  0.44131032066E+03  0.81623260557E+03  0.00000000000E+00 0.  1.
        -13    1    3    3    0    0  0.60041025147E+03 -0.23338553580E+03  0.36344208897E+03  0.73962925201E+03  0.00000000000E+00 0. -1.
         22    1    1    2    0    0 -0.12659730921E+04  0.40222561546E+03 -0.32738619551E+03  0.13680844406E+04  0.00000000000E+00 0. -1.
<mgrwt>
<rscale>  0 0.28847155E+04</rscale>
<asrwt>0</asrwt>
<pdfrwt beam="1">  1        2 0.26163943E+00 0.28847155E+04</pdfrwt>
<pdfrwt beam="2">  1       -2 0.18819847E+00 0.28847155E+04</pdfrwt>
<totfact> 0.13498174E+00</totfact>
</mgrwt>
</event>
<event>
 6    1  0.1885829E-005  0.1378128E+04  0.7818608E-02  0.8969805E-01
         -2   -1    0    0    0  501 -0.00000000000E+00  0.00000000000E+00  0.12205849208E+04  0.12205849208E+04  0.00000000000E+00 0.  1.
          2   -1    0    0  501    0  0.00000000000E+00 -0.00000000000E+00 -0.38900117370E+03  0.38900117370E+03  0.00000000000E+00 0. -1.
         23    2    1    2    0    0 -0.31903233302E+03 -0.77236071773E+01 -0.29164886661E+03  0.44189915524E+03  0.91512394692E+02 0.  0.
         13    1    3    3    0    0 -0.22488198182E+03  0.35776651082E+02 -0.18825754819E+03  0.29545351404E+03  0.00000000000E+00 0.  1.
        -13    1    3    3    0    0 -0.94150351208E+02 -0.43500258259E+02 -0.10339131842E+03  0.14644564120E+03  0.00000000000E+00 0. -1.
         22    1    1    2    0    0  0.31903233302E+03  0.77236071773E+01  0.11232326137E+04  0.11676869393E+04  0.00000000000E+00 0.  1.
<mgrwt>
<rscale>  0 0.13781277E+04</rscale>
<asrwt>0</asrwt>
<pdfrwt beam="1">  1        2 0.59846335E-01 0.13781277E+04</pdfrwt>
<pdfrwt beam="2">  1       -2 0.18778229E+00 0.13781277E+04</pdfrwt>
<totfact> 0.12818982E+01</totfact>
</mgrwt>
</event>
<event>
 6    1  0.1885829E-005  0.4161622E+04  0.7818608E-02  0.7972713E-01
         -2   -1    0    0    0  501 -0.00000000000E+00  0.00000000000E+00  0.15409170218E+04  0.15409170218E+04  0.00000000000E+00 0.  1.
          2   -1    0    0  501    0  0.00000000000E+00 -0.00000000000E+00 -0.28098686417E+04  0.28098686417E+04  0.00000000000E+00 0. -1.
         23    2    1    2    0    0  0.17903040105E+04  0.10456369084E+04 -0.46238140826E+03  0.21261282740E+04  0.89888135579E+02 0.  0.
         11    1    3    3    0    0  0.33079174317E+03  0.19546486545E+03 -0.12171013576E+03  0.40304224111E+03  0.00000000000E+00 0.  1.
        -11    1    3    3    0    0  0.14595122673E+04  0.85017204295E+03 -0.34067127250E+03  0.17230860329E+04  0.00000000000E+00 0. -1.
         22    1    1    2    0    0 -0.17903040105E+04 -0.10456369084E+04 -0.80657021163E+03  0.22246573894E+04  0.00000000000E+00 0.  1.
<mgrwt>
<rscale>  0 0.41616220E+04</rscale>
<asrwt>0</asrwt>
<pdfrwt beam="1">  1        2 0.43228748E+00 0.41616220E+04</pdfrwt>
<pdfrwt beam="2">  1       -2 0.23706416E+00 0.41616220E+04</pdfrwt>
<totfact> 0.13715511E-01</totfact>
</mgrwt>
</event>
<event>
 6    1  0.1885829E-005  0.1108104E+04  0.7818608E-02  0.9197329E-01
         -2   -1    0    0    0  501 -0.00000000000E+00  0.00000000000E+00  0.29098355005E+03  0.29098355005E+03  0.00000000000E+00 0.  1.
          2   -1    0    0  501    0  0.00000000000E+00 -0.00000000000E+00 -0.10549515540E+04  0.10549515540E+04  0.00000000000E+00 0. -1.
         23    2    1    2    0    0  0.35687978364E+03 -0.89878181178E+02 -0.88201998751E+03  0.95944119955E+03  0.84420907409E+02 0.  0.
         11    1    3    3    0    0  0.25299829758E+03 -0.78308818662E+02 -0.71430510506E+03  0.76182162792E+03  0.00000000000E+00 0. -1.
        -11    1    3    3    0    0  0.10388148606E+03 -0.11569362516E+02 -0.16771488245E+03  0.19761957163E+03  0.00000000000E+00 0.  1.
         22    1    1    2    0    0 -0.35687978364E+03  0.89878181178E+02  0.11805198353E+03  0.38649390453E+03  0.00000000000E+00 0.  1.
<mgrwt>
<rscale>  0 0.11081039E+04</rscale>
<asrwt>0</asrwt>
<pdfrwt beam="1">  1        2 0.16230024E+00 0.11081039E+04</pdfrwt>
<pdfrwt beam="2">  1       -2 0.44766700E-01 0.11081039E+04</pdfrwt>
<totfact> 0.10908941E+02</totfact>
</mgrwt>
</event>
<event>
 6    1  0.1885829E-005  0.1646060E+04  0.7818608E-02  0.8792741E-01
         -1   -1    0    0    0  501 -0.00000000000E+00  0.00000000000E+00  0.28565515231E+04  0.28565515231E+04  0.00000000000E+00 0.  1.
          1   -1    0    0  501    0  0.00000000000E+00 -0.00000000000E+00 -0.23713158872E+03  0.23713158872E+03  0.00000000000E+00 0. -1.
         23    2    1    2    0    0  0.39139591108E+03 -0.56533548171E+03  0.47247242285E+03  0.83931433467E+03  0.91779060435E+02 0.  0.
         13    1    3    3    0    0  0.32161618394E+03 -0.44331522138E+03  0.41627996973E+03  0.68793485773E+03  0.00000000000E+00 0.  1.
        -13    1    3    3    0    0  0.69779727144E+02 -0.12202026033E+03  0.56192453120E+02  0.15137947694E+03  0.00000000000E+00 0. -1.
         22    1    1    2    0    0 -0.39139591108E+03  0.56533548171E+03  0.21469475115E+04  0.22543687771E+04  0.00000000000E+00 0.  1.
<mgrwt>
<rscale>  0 0.16460603E+04</rscale>
<asrwt>0</asrwt>
<pdfrwt beam="1">  1        1 0.36481785E-01 0.16460603E+04</pdfrwt>
<pdfrwt beam="2">  1       -1 0.43946944E+00 0.16460603E+04</pdfrwt>
<totfact> 0.43753498E-01</totfact>
</mgrwt>
</event>
<event>
 6    1  0.1885829E-005  0.1178263E+04  0.7818608E-02  0.9132099E-01
         -1   -1    0    0    0  501 -0.00000000000E+00  0.00000000000E+00  0.50697288031E+03  0.50697288031E+03  0.00000000000E+00 0.  1.
          1   -1    0    0  501    0  0.00000000000E+00 -0.00000000000E+00 -0.68460421572E+03  0.68460421572E+03  0.00000000000E+00 0. -1.
         23    2    1    2    0    0 -0.39791753628E+03  0.27506016564E+03  0.24459281197E+03  0.54949478741E+03  0.90124454606E+02 0.  0.
         13    1    3    3    0    0 -0.39151728572E+03  0.26756322304E+03  0.25214385671E+03  0.53707763668E+03  0.00000000000E+00 0.  1.
        -13    1    3    3    0    0 -0.64002505597E+01  0.74969425929E+01 -0.75510447407E+01  0.12417150726E+02  0.00000000000E+00 0. -1.
         22    1    1    2    0    0  0.39791753628E+03 -0.27506016564E+03 -0.42222414739E+03  0.64208230862E+03  0.00000000000E+00 0. -1.
<mgrwt>
<rscale>  0 0.11782627E+04</rscale>
<asrwt>0</asrwt>
<pdfrwt beam="1">  1        1 0.10532373E+00 0.11782627E+04</pdfrwt>
<pdfrwt beam="2">  1       -1 0.77995828E-01 0.11782627E+04</pdfrwt>
<totfact> 0.46007628E+01</totfact>
</mgrwt>
</event>
<event>
 6    1  0.1885829E-005  0.4891214E+04  0.7818608E-02  0.7845511E-01
          2   -1    0    0  501    0  0.00000000000E+00  0.00000000000E+00  0.22414029142E+04  0.22414029142E+04  0.00000000000E+00 0. -1.
         -2   -1    0    0    0  501 -0.00000000000E+00 -0.00000000000E+00 -0.26684155365E+04  0.26684155365E+04  0.00000000000E+00 0.  1.
         23    2    1    2    0    0 -0.60746555924E+03 -0.64440652765E+01 -0.25906295310E+04  0.26625325188E+04  0.93070484749E+02 0.  0.
         13    1    3    3    0    0 -0.18180853647E+03  0.40748725116E+02 -0.78129294025E+03  0.80320200511E+03  0.00000000000E+00 0. -1.
        -13    1    3    3    0    0 -0.42565702277E+03 -0.47192790393E+02 -0.18093365908E+04  0.18593305137E+04  0.00000000000E+00 0.  1.
         22    1    1    2    0    0  0.60746555924E+03  0.64440652765E+01  0.21636169087E+04  0.22472859318E+04  0.00000000000E+00 0. -1.
<mgrwt>
<rscale>  0 0.48912143E+04</rscale>
<asrwt>0</asrwt>
<pdfrwt beam="1">  1        2 0.34483122E+00 0.48912143E+04</pdfrwt>
<pdfrwt beam="2">  1       -2 0.41052547E+00 0.48912143E+04</pdfrwt>
<totfact> 0.22770401E-02</totfact>
</mgrwt>
</event>
<event>
 6    1  0.1885829E-005  0.3489803E+04  0.7818608E-02  0.8116211E-01
          2   -1    0    0  501    0  0.00000000000E+00  0.00000000000E+00  0.28886068061E+04  0.28886068061E+04  0.00000000000E+00 0. -1.
         -2   -1    0    0    0  501 -0.00000000000E+00 -0.00000000000E+00 -0.10540308013E+04  0.10540308013E+04  0.00000000000E+00 0.  1.
         23    2    1    2    0    0 -0.54003310469E+03 -0.65843866754E+03 -0.80155265336E+03  0.11723756097E+04  0.82466241559E+02 0.  0.
         13    1    3    3    0    0 -0.33503764689E+03 -0.45933377712E+03 -0.56287402409E+03  0.80004056812E+03  0.00000000000E+00 0.  1.
        -13    1    3    3    0    0 -0.20499545780E+03 -0.19910489042E+03 -0.23867862927E+03  0.37233504157E+03  0.00000000000E+00 0. -1.
         22    1    1    2    0    0  0.54003310469E+03  0.65843866754E+03  0.26361286582E+04  0.27702619976E+04  0.00000000000E+00 0. -1.
<mgrwt>
<rscale>  0 0.34898026E+04</rscale>
<asrwt>0</asrwt>
<pdfrwt beam="1">  1        2 0.44440104E+00 0.34898026E+04</pdfrwt>
<pdfrwt beam="2">  1       -2 0.16215859E+00 0.34898026E+04</pdfrwt>
<totfact> 0.40752966E-01</totfact>
</mgrwt>
</event>
<event>
 6    1  0.1885829E-005  0.2584208E+04  0.7818608E-02  0.8373585E-01
          2   -1    0    0  501    0  0.00000000000E+00  0.00000000000E+00  0.27444779113E+04  0.27444779113E+04  0.00000000000E+00 0.  1.
         -2   -1    0    0    0  501 -0.00000000000E+00 -0.00000000000E+00 -0.60832419502E+03  0.60832419502E+03  0.00000000000E+00 0. -1.
         23    2    1    2    0    0  0.31380789574E+03 -0.39501190877E+03 -0.47139480718E+03  0.69689941502E+03  0.94582910284E+02 0.  0.
         11    1    3    3    0    0  0.24132510046E+03 -0.23430212066E+03 -0.32543052293E+03  0.46801742821E+03  0.00000000000E+00 0. -1.
        -11    1    3    3    0    0  0.72482795275E+02 -0.16070978811E+03 -0.14596428425E+03  0.22888198680E+03  0.00000000000E+00 0.  1.
         22    1    1    2    0    0 -0.31380789574E+03  0.39501190877E+03  0.26075485235E+04  0.26559026913E+04  0.00000000000E+00 0.  1.
<mgrwt>
<rscale>  0 0.25842077E+04</rscale>
<asrwt>0</asrwt>
<pdfrwt beam="1">  1        2 0.42222736E+00 0.25842077E+04</pdfrwt>
<pdfrwt beam="2">  1       -2 0.93588339E-01 0.25842077E+04</pdfrwt>
<totfact> 0.21347671E+00</totfact>
</mgrwt>
</event>
<event>
 6    1  0.1885829E-005  0.3321578E+04  0.7818608E-02  0.8157426E-01
         -2   -1    0    0    0  501 -0.00000000000E+00  0.00000000000E+00  0.89643050372E+03  0.89643050372E+03  0.00000000000E+00 0.  1.
          2   -1    0    0  501    0  0.00000000000E+00 -0.00000000000E+00 -0.30768928558E+04  0.30768928558E+04  0.00000000000E+00 0. -1.
         23    2    1    2    0    0  0.16338173518E+04  0.12930701601E+03 -0.14029542760E+04  0.21593227389E+04  0.91184136372E+02 0.  0.
         11    1    3    3    0    0  0.24535694101E+03 -0.68673594053E+01 -0.18511928299E+03  0.30743509569E+03  0.00000000000E+00 0.  1.
        -11    1    3    3    0    0  0.13884604108E+04  0.13617437542E+03 -0.12178349930E+04  0.18518876432E+04  0.00000000000E+00 0. -1.
         22    1    1    2    0    0 -0.16338173518E+04 -0.12930701601E+03 -0.77750807609E+03  0.18140006207E+04  0.00000000000E+00 0.  1.
<mgrwt>
<rscale>  0 0.33215783E+04</rscale>
<asrwt>0</asrwt>
<pdfrwt beam="1">  1        2 0.47336813E+00 0.33215783E+04</pdfrwt>
<pdfrwt beam="2">  1       -2 0.13791239E+00 0.33215783E+04</pdfrwt>
<totfact> 0.48432430E-01</totfact>
</mgrwt>
</event>
<event>
 6    1  0.1885829E-005  0.1190663E+04  0.7818608E-02  0.9121069E-01
          2   -1    0    0  501    0  0.00000000000E+00  0.00000000000E+00  0.58480761611E+03  0.58480761611E+03  0.00000000000E+00 0. -1.
         -2   -1    0    0    0  501 -0.00000000000E+00 -0.00000000000E+00 -0.60604443617E+03  0.60604443617E+03  0.00000000000E+00 0.  1.
         23    2    1    2    0    0 -0.78253278486E+02  0.30159222640E+03 -0.51391697851E+03  0.60791536176E+03  0.91482127473E+02 0.  0.
         11    1    3    3    0    0 -0.90336536310E+02  0.17342936562E+03 -0.32547190679E+03  0.37969777029E+03  0.00000000000E+00 0.  1.
        -11    1    3    3    0    0  0.12083257824E+02  0.12816286078E+03 -0.18844507171E+03  0.22821759147E+03  0.00000000000E+00 0. -1.
         22    1    1    2    0    0  0.78253278486E+02 -0.30159222640E+03  0.49268015845E+03  0.58293669052E+03  0.00000000000E+00 0. -1.
<mgrwt>
<rscale>  0 0.11906627E+04</rscale>
<asrwt>0</asrwt>
<pdfrwt beam="1">  1        2 0.89970402E-01 0.11906627E+04</pdfrwt>
<pdfrwt beam="2">  1       -2 0.93237606E-01 0.11906627E+04</pdfrwt>
<totfact> 0.49197067E+01</totfact>
</mgrwt>
</event>
<event>
 6    1  0.1885829E-005  0.1110404E+04  0.7818608E-02  0.9195111E-01
         -2   -1    0    0    0  501 -0.00000000000E+00  0.00000000000E+00  0.13880516557E+03  0.13880516557E+03  0.00000000000E+00 0.  1.
          2   -1    0    0  501    0  0.00000000000E+00 -0.00000000000E+00 -0.22207320323E+04  0.22207320323E+04  0.00000000000E+00 0. -1.
         23    2    1    2    0    0 -0.59010428319E+02 -0.41079118458E+03 -0.18199705228E+04  0.18687696826E+04  0.88180466205E+02 0.  0.
         11    1    3    3    0    0 -0.22365911374E+02 -0.22133326968E+03 -0.78260067183E+03  0.81360461024E+03  0.00000000000E+00 0.  1.
        -11    1    3    3    0    0 -0.36644516946E+02 -0.18945791490E+03 -0.10373698510E+04  0.10551650723E+04  0.00000000000E+00 0. -1.
         22    1    1    2    0    0  0.59010428319E+02  0.41079118458E+03 -0.26195634397E+03  0.49076751535E+03  0.00000000000E+00 0.  1.
<mgrwt>
<rscale>  0 0.11104037E+04</rscale>
<asrwt>0</asrwt>
<pdfrwt beam="1">  1        2 0.34165109E+00 0.11104037E+04</pdfrwt>
<pdfrwt beam="2">  1       -2 0.21354640E-01 0.11104037E+04</pdfrwt>
<totfact> 0.95381817E+01</totfact>
</mgrwt>
</event>
<event>
 6    1  0.1885829E-005  0.2114106E+04  0.7818608E-02  0.8555055E-01
          2   -1    0    0  501    0  0.00000000000E+00  0.00000000000E+00  0.14337935839E+04  0.14337935839E+04  0.00000000000E+00 0. -1.
         -2   -1    0    0    0  501 -0.00000000000E+00 -0.00000000000E+00 -0.77930380467E+03  0.77930380467E+03  0.00000000000E+00 0.  1.
         23    2    1    2    0    0  0.93129201802E+03 -0.44613548648E+03  0.10105332488E+03  0.10415029177E+04  0.90414921579E+02 0.  0.
         11    1    3    3    0    0  0.89780436763E+03 -0.41793086720E+03  0.81835059092E+02  0.99368801401E+03  0.00000000000E+00 0. -1.
        -11    1    3    3    0    0  0.33487650385E+02 -0.28204619285E+02  0.19218265789E+02  0.47814903715E+02  0.00000000000E+00 0.  1.
         22    1    1    2    0    0 -0.93129201802E+03  0.44613548648E+03  0.55343645437E+03  0.11715944709E+04  0.00000000000E+00 0. -1.
<mgrwt>
<rscale>  0 0.21141058E+04</rscale>
<asrwt>0</asrwt>
<pdfrwt beam="1">  1        2 0.22058363E+00 0.21141058E+04</pdfrwt>
<pdfrwt beam="2">  1       -2 0.11989289E+00 0.21141058E+04</pdfrwt>
<totfact> 0.67815371E+00</totfact>
</mgrwt>
</event>
<event>
 6    1  0.1885829E-005  0.1686544E+04  0.7818608E-02  0.8769076E-01
          1   -1    0    0  501    0  0.00000000000E+00  0.00000000000E+00  0.67417271251E+03  0.67417271251E+03  0.00000000000E+00 0. -1.
         -1   -1    0    0    0  501 -0.00000000000E+00 -0.00000000000E+00 -0.10547859635E+04  0.10547859635E+04  0.00000000000E+00 0.  1.
         23    2    1    2    0    0  0.82784786170E+03 -0.12033468256E+03 -0.27587515389E+03  0.88587944671E+03  0.94142315831E+02 0.  0.
         11    1    3    3    0    0  0.41015021211E+03 -0.17068567051E+02 -0.15681141759E+03  0.43943640400E+03  0.00000000000E+00 0.  1.
        -11    1    3    3    0    0  0.41769764959E+03 -0.10326611551E+03 -0.11906373630E+03  0.44644304271E+03  0.00000000000E+00 0. -1.
         22    1    1    2    0    0 -0.82784786170E+03  0.12033468256E+03 -0.10473809715E+03  0.84307922934E+03  0.00000000000E+00 0. -1.
<mgrwt>
<rscale>  0 0.16865443E+04</rscale>
<asrwt>0</asrwt>
<pdfrwt beam="1">  1        1 0.10371888E+00 0.16865443E+04</pdfrwt>
<pdfrwt beam="2">  1       -1 0.16227476E+00 0.16865443E+04</pdfrwt>
<totfact> 0.77174716E+00</totfact>
</mgrwt>
</event>
<event>
 6    1  0.1885829E-005  0.3046483E+04  0.7818608E-02  0.8230580E-01
          2   -1    0    0  501    0  0.00000000000E+00  0.00000000000E+00  0.11957126935E+04  0.11957126935E+04  0.00000000000E+00 0. -1.
         -2   -1    0    0    0  501 -0.00000000000E+00 -0.00000000000E+00 -0.19404871564E+04  0.19404871564E+04  0.00000000000E+00 0.  1.
         23    2    1    2    0    0 -0.55455669402E+03  0.50858439218E+03 -0.17342310111E+04  0.18931328880E+04  0.10101347009E+03 0.  0.
         11    1    3    3    0    0 -0.38054373221E+03  0.33778733034E+03 -0.12833850255E+04  0.13805763058E+04  0.00000000000E+00 0.  1.
        -11    1    3    3    0    0 -0.17401296181E+03  0.17079706184E+03 -0.45084598561E+03  0.51255658220E+03  0.00000000000E+00 0. -1.
         22    1    1    2    0    0  0.55455669402E+03 -0.50858439218E+03  0.98945654816E+03  0.12430669618E+04  0.00000000000E+00 0. -1.
<mgrwt>
<rscale>  0 0.30464833E+04</rscale>
<asrwt>0</asrwt>
<pdfrwt beam="1">  1        2 0.18395580E+00 0.30464833E+04</pdfrwt>
<pdfrwt beam="2">  1       -2 0.29853648E+00 0.30464833E+04</pdfrwt>
<totfact> 0.52713406E-01</totfact>
</mgrwt>
</event>
<event>
 6    1  0.1885829E-005  0.2603112E+04  0.7818608E-02  0.8367145E-01
         -2   -1    0    0    0  501 -0.00000000000E+00  0.00000000000E+00  0.16227225823E+04  0.16227225823E+04  0.00000000000E+00 0.  1.
          2   -1    0    0  501    0  0.00000000000E+00 -0.00000000000E+00 -0.10439540394E+04  0.10439540394E+04  0.00000000000E+00 0. -1.
         23    2    1    2    0    0  0.38316458707E+03  0.99135461307E+03  0.10565285133E+04  0.15014068422E+04  0.91492822495E+02 0.  0.
         13    1    3    3    0    0  0.20033466470E+03  0.39373534961E+03  0.44265808796E+03  0.62538602978E+03  0.00000000000E+00 0. -1.
        -13    1    3    3    0    0  0.18282992237E+03  0.59761926347E+03  0.61387042537E+03  0.87602081238E+03  0.00000000000E+00 0.  1.
         22    1    1    2    0    0 -0.38316458707E+03 -0.99135461307E+03 -0.47775997041E+03  0.11652697795E+04  0.00000000000E+00 0. -1.
<mgrwt>
<rscale>  0 0.26031118E+04</rscale>
<asrwt>0</asrwt>
<pdfrwt beam="1">  1        2 0.16060831E+00 0.26031118E+04</pdfrwt>
<pdfrwt beam="2">  1       -2 0.24964963E+00 0.26031118E+04</pdfrwt>
<totfact> 0.13485691E+00</totfact>
</mgrwt>
</event>
<event>
 6    1  0.1885829E-005  0.1894578E+04  0.7818608E-02  0.8657560E-01
          2   -1    0    0  501    0  0.00000000000E+00  0.00000000000E+00  0.28075224017E+04  0.28075224017E+04  0.00000000000E+00 0. -1.
         -2   -1    0    0    0  501 -0.00000000000E+00 -0.00000000000E+00 -0.31962587787E+03  0.31962587787E+03  0.00000000000E+00 0.  1.
         23    2    1    2    0    0  0.70706793997E+02 -0.79863278658E+03  0.42369823920E+03  0.91271193216E+03  0.10348475584E+03 0.  0.
         13    1    3    3    0    0 -0.10238047837E+02 -0.22059819782E+03  0.77227006683E+02  0.23394955240E+03  0.00000000000E+00 0. -1.
        -13    1    3    3    0    0  0.80944841834E+02 -0.57803458875E+03  0.34647123252E+03  0.67876237976E+03  0.00000000000E+00 0.  1.
         22    1    1    2    0    0 -0.70706793997E+02  0.79863278658E+03  0.20641982847E+04  0.22144363475E+04  0.00000000000E+00 0. -1.
<mgrwt>
<rscale>  0 0.18945784E+04</rscale>
<asrwt>0</asrwt>
<pdfrwt beam="1">  1        2 0.43192651E+00 0.18945784E+04</pdfrwt>
<pdfrwt beam="2">  1       -2 0.49173214E-01 0.18945784E+04</pdfrwt>
<totfact> 0.84116523E+00</totfact>
</mgrwt>
</event>
<event>
 6    1  0.1885829E-005  0.1315124E+04  0.7818608E-02  0.9017657E-01
          2   -1    0    0  501    0  0.00000000000E+00  0.00000000000E+00  0.14971410560E+04  0.14971410560E+04  0.00000000000E+00 0. -1.
         -2   -1    0    0    0  501 -0.00000000000E+00 -0.00000000000E+00 -0.28880911704E+03  0.28880911704E+03  0.00000000000E+00 0.  1.
         23    2    1    2    0    0  0.19650019155E+03  0.41735055696E+03 -0.23442798227E+02  0.47063165045E+03  0.90281631261E+02 0.  0.
         11    1    3    3    0    0  0.16610505312E+03  0.35704087949E+03  0.12778656762E+02  0.39399539637E+03  0.00000000000E+00 0. -1.
        -11    1    3    3    0    0  0.30395138433E+02  0.60309677475E+02 -0.36221454990E+02  0.76636254078E+02  0.00000000000E+00 0.  1.
         22    1    1    2    0    0 -0.19650019155E+03 -0.41735055696E+03  0.12317747372E+04  0.13153185226E+04  0.00000000000E+00 0. -1.
<mgrwt>
<rscale>  0 0.13151243E+04</rscale>
<asrwt>0</asrwt>
<pdfrwt beam="1">  1        2 0.23032939E+00 0.13151243E+04</pdfrwt>
<pdfrwt beam="2">  1       -2 0.44432173E-01 0.13151243E+04</pdfrwt>
<totfact> 0.59907771E+01</totfact>
</mgrwt>
</event>
<event>
 6    1  0.1885829E-005  0.4843028E+04  0.7818608E-02  0.7853189E-01
         -2   -1    0    0    0  501 -0.00000000000E+00  0.00000000000E+00  0.19509297255E+04  0.19509297255E+04  0.00000000000E+00 0.  1.
          2   -1    0    0  501    0  0.00000000000E+00 -0.00000000000E+00 -0.30056075416E+04  0.30056075416E+04  0.00000000000E+00 0. -1.
         23    2    1    2    0    0  0.71094076075E+03 -0.39792002474E+03  0.18053045794E+04  0.19827725800E+04  0.92116056599E+02 0.  0.
         11    1    3    3    0    0  0.12519956664E+03 -0.70932078653E+02  0.41153171401E+03  0.43596403855E+03  0.00000000000E+00 0. -1.
        -11    1    3    3    0    0  0.58574119411E+03 -0.32698794608E+03  0.13937728654E+04  0.15468085414E+04  0.00000000000E+00 0.  1.
         22    1    1    2    0    0 -0.71094076075E+03  0.39792002474E+03 -0.28599823955E+04  0.29737646871E+04  0.00000000000E+00 0. -1.
<mgrwt>
<rscale>  0 0.48430276E+04</rscale>
<asrwt>0</asrwt>
<pdfrwt beam="1">  1        2 0.46240116E+00 0.48430276E+04</pdfrwt>
<pdfrwt beam="2">  1       -2 0.30014303E+00 0.48430276E+04</pdfrwt>
<totfact> 0.40362075E-02</totfact>
</mgrwt>
</event>
<event>
 6    1  0.1885829E-005  0.3860173E+04  0.7818608E-02  0.8033364E-01
          2   -1    0    0  501    0  0.00000000000E+00  0.00000000000E+00  0.28361818621E+04  0.28361818621E+04  0.00000000000E+00 0. -1.
         -2   -1    0    0    0  501 -0.00000000000E+00 -0.00000000000E+00 -0.13134679577E+04  0.13134679577E+04  0.00000000000E+00 0.  1.
         23    2    1    2    0    0 -0.10746924038E+04  0.77276925133E+03 -0.74662411933E+03  0.15224781192E+04  0.91410991015E+02 0.  0.
         13    1    3    3    0    0 -0.43617751458E+03  0.26832752636E+03 -0.25977033228E+03  0.57422217927E+03  0.00000000000E+00 0.  1.
        -13    1    3    3    0    0 -0.63851488919E+03  0.50444172497E+03 -0.48685378705E+03  0.94825593991E+03  0.00000000000E+00 0. -1.
         22    1    1    2    0    0  0.10746924038E+04 -0.77276925133E+03  0.22693380237E+04  0.26271717006E+04  0.00000000000E+00 0. -1.
<mgrwt>
<rscale>  0 0.38601731E+04</rscale>
<asrwt>0</asrwt>
<pdfrwt beam="1">  1        2 0.43633567E+00 0.38601731E+04</pdfrwt>
<pdfrwt beam="2">  1       -2 0.20207199E+00 0.38601731E+04</pdfrwt>
<totfact> 0.22601017E-01</totfact>
</mgrwt>
</event>
<event>
 6    1  0.1885829E-005  0.3169601E+04  0.7818608E-02  0.8196892E-01
         -2   -1    0    0    0  501 -0.00000000000E+00  0.00000000000E+00  0.44529131434E+04  0.44529131434E+04  0.00000000000E+00 0.  1.
          2   -1    0    0  501    0  0.00000000000E+00 -0.00000000000E+00 -0.56403375444E+03  0.56403375444E+03  0.00000000000E+00 0. -1.
         23    2    1    2    0    0  0.42064598708E+03 -0.68071304499E+03 -0.21668922475E+03  0.83412405460E+03  0.92170615059E+02 0.  0.
         13    1    3    3    0    0  0.37932458073E+03 -0.54811265036E+03 -0.17670438838E+03  0.68959339898E+03  0.00000000000E+00 0. -1.
        -13    1    3    3    0    0  0.41321406352E+02 -0.13260039462E+03 -0.39984836372E+02  0.14453065563E+03  0.00000000000E+00 0.  1.
         22    1    1    2    0    0 -0.42064598708E+03  0.68071304499E+03  0.41055686137E+04  0.41828228432E+04  0.00000000000E+00 0.  1.
<mgrwt>
<rscale>  0 0.31696014E+04</rscale>
<asrwt>0</asrwt>
<pdfrwt beam="1">  1        2 0.86774427E-01 0.31696014E+04</pdfrwt>
<pdfrwt beam="2">  1       -2 0.68506354E+00 0.31696014E+04</pdfrwt>
<totfact> 0.11474368E-02</totfact>
</mgrwt>
</event>
<event>
 6    1  0.1885829E-005  0.1572000E+04  0.7818608E-02  0.8837936E-01
         -2   -1    0    0    0  501 -0.00000000000E+00  0.00000000000E+00  0.12218420708E+04  0.12218420708E+04  0.00000000000E+00 0.  1.
          2   -1    0    0  501    0  0.00000000000E+00 -0.00000000000E+00 -0.50562681613E+03  0.50562681613E+03  0.00000000000E+00 0. -1.
         23    2    1    2    0    0  0.16591784481E+03 -0.60755012067E+03  0.87110518792E+03  0.10789037230E+04  0.92537099482E+02 0.  0.
         11    1    3    3    0    0  0.35956224057E+02 -0.38742097586E+02  0.80776154100E+02  0.96532829882E+02  0.00000000000E+00 0.  1.
        -11    1    3    3    0    0  0.12996162076E+03 -0.56880802308E+03  0.79032903382E+03  0.98237089314E+03  0.00000000000E+00 0. -1.
         22    1    1    2    0    0 -0.16591784481E+03  0.60755012067E+03 -0.15488993328E+03  0.64856516387E+03  0.00000000000E+00 0. -1.
<mgrwt>
<rscale>  0 0.15720001E+04</rscale>
<asrwt>0</asrwt>
<pdfrwt beam="1">  1        2 0.77788741E-01 0.15720001E+04</pdfrwt>
<pdfrwt beam="2">  1       -2 0.18797570E+00 0.15720001E+04</pdfrwt>
<totfact> 0.93323429E+00</totfact>
</mgrwt>
</event>
<event>
 6    1  0.1885829E-005  0.2013746E+04  0.7818608E-02  0.8600221E-01
          4   -1    0    0  501    0  0.00000000000E+00  0.00000000000E+00  0.13882424459E+04  0.13882424459E+04  0.00000000000E+00 0. -1.
         -4   -1    0    0    0  501 -0.00000000000E+00 -0.00000000000E+00 -0.73027111153E+03  0.73027111153E+03  0.00000000000E+00 0.  1.
         23    2    1    2    0    0  0.35917287392E+03  0.80459826379E+03  0.83769441052E+03  0.12192450194E+04  0.91885648608E+02 0.  0.
         13    1    3    3    0    0  0.98073925470E+02  0.32786928522E+03  0.33401151274E+03  0.47820545134E+03  0.00000000000E+00 0. -1.
        -13    1    3    3    0    0  0.26109894845E+03  0.47672897857E+03  0.50368289778E+03  0.74103956804E+03  0.00000000000E+00 0.  1.
         22    1    1    2    0    0 -0.35917287392E+03 -0.80459826379E+03 -0.17972307613E+03  0.89926853806E+03  0.00000000000E+00 0.  1.
<mgrwt>
<rscale>  0 0.20137461E+04</rscale>
<asrwt>0</asrwt>
<pdfrwt beam="1">  1        4 0.21357576E+00 0.20137461E+04</pdfrwt>
<pdfrwt beam="2">  1       -4 0.11234940E+00 0.20137461E+04</pdfrwt>
<totfact> 0.12401655E-01</totfact>
</mgrwt>
</event>
<event>
 6    1  0.2197899E-005  0.1967232E+04  0.7818608E-02  0.8622096E-01
         -2   -1    0    0    0  501 -0.00000000000E+00  0.00000000000E+00  0.73799418467E+03  0.73799418467E+03  0.00000000000E+00 0.  1.
          2   -1    0    0  501    0  0.00000000000E+00 -0.00000000000E+00 -0.13109858898E+04  0.13109858898E+04  0.00000000000E+00 0. -1.
         23    2    1    2    0    0 -0.83891726072E+02  0.11798664723E+03 -0.12982699517E+04  0.13093942407E+04  0.89720340216E+02 0.  0.
         13    1    3    3    0    0 -0.64722742606E+02  0.17976859024E+02 -0.43855543067E+03  0.44366999746E+03  0.00000000000E+00 0. -1.
        -13    1    3    3    0    0 -0.19168983466E+02  0.10000978821E+03 -0.85971452100E+03  0.86572424321E+03  0.00000000000E+00 0.  1.
         22    1    1    2    0    0  0.83891726072E+02 -0.11798664723E+03  0.72527824655E+03  0.73958583379E+03  0.00000000000E+00 0.  1.
<mgrwt>
<rscale>  0 0.19672315E+04</rscale>
<asrwt>0</asrwt>
<pdfrwt beam="1">  1        2 0.20169013E+00 0.19672315E+04</pdfrwt>
<pdfrwt beam="2">  1       -2 0.11353757E+00 0.19672315E+04</pdfrwt>
<totfact> 0.92328007E+00</totfact>
</mgrwt>
</event>
<event>
 6    1  0.1885829E-005  0.1619511E+04  0.7818608E-02  0.8808650E-01
         -2   -1    0    0    0  501 -0.00000000000E+00  0.00000000000E+00  0.20850656650E+04  0.20850656650E+04  0.00000000000E+00 0.  1.
          2   -1    0    0  501    0  0.00000000000E+00 -0.00000000000E+00 -0.31447658688E+03  0.31447658688E+03  0.00000000000E+00 0. -1.
         23    2    1    2    0    0  0.57837057908E+03  0.51797195080E+02  0.17187784859E+04  0.18165501305E+04  0.91975087429E+02 0.  0.
         13    1    3    3    0    0  0.49436984363E+03  0.75274840279E+02  0.14922904646E+04  0.15738483646E+04  0.00000000000E+00 0.  1.
        -13    1    3    3    0    0  0.84000735452E+02 -0.23477645200E+02  0.22648802126E+03  0.24270176587E+03  0.00000000000E+00 0. -1.
         22    1    1    2    0    0 -0.57837057908E+03 -0.51797195080E+02  0.51810592212E+02  0.58299212141E+03  0.00000000000E+00 0. -1.
<mgrwt>
<rscale>  0 0.16195114E+04</rscale>
<asrwt>0</asrwt>
<pdfrwt beam="1">  1        2 0.48381015E-01 0.16195114E+04</pdfrwt>
<pdfrwt beam="2">  1       -2 0.32077932E+00 0.16195114E+04</pdfrwt>
<totfact> 0.23710962E+00</totfact>
</mgrwt>
</event>
<event>
 6    1  0.1885829E-005  0.5095217E+04  0.7818608E-02  0.7813985E-01
          2   -1    0    0  501    0  0.00000000000E+00  0.00000000000E+00  0.21783568022E+04  0.21783568022E+04  0.00000000000E+00 0. -1.
         -2   -1    0    0    0  501 -0.00000000000E+00 -0.00000000000E+00 -0.29794520470E+04  0.29794520470E+04  0.00000000000E+00 0.  1.
         23    2    1    2    0    0 -0.87950836882E+03 -0.23664269624E+04 -0.74271221812E+03  0.26325524035E+04  0.72105334110E+02 0.  0.
         13    1    3    3    0    0 -0.26844561580E+03 -0.72373110941E+03 -0.19258220133E+03  0.79557380025E+03  0.00000000000E+00 0.  1.
        -13    1    3    3    0    0 -0.61106275302E+03 -0.16426958530E+04 -0.55013001679E+03  0.18369786033E+04  0.00000000000E+00 0. -1.
         22    1    1    2    0    0  0.87950836882E+03  0.23664269624E+04 -0.58383026697E+02  0.25252564458E+04  0.00000000000E+00 0. -1.
<mgrwt>
<rscale>  0 0.50952172E+04</rscale>
<asrwt>0</asrwt>
<pdfrwt beam="1">  1        2 0.33513182E+00 0.50952172E+04</pdfrwt>
<pdfrwt beam="2">  1       -2 0.45837723E+00 0.50952172E+04</pdfrwt>
<totfact> 0.11768205E-02</totfact>
</mgrwt>
</event>
<event>
 6    1  0.1885829E-005  0.2577730E+03  0.7818608E-02  0.1108489E+00
          2   -1    0    0  501    0  0.00000000000E+00  0.00000000000E+00  0.43574056895E+03  0.43574056895E+03  0.00000000000E+00 0. -1.
         -2   -1    0    0    0  501 -0.00000000000E+00 -0.00000000000E+00 -0.38122992852E+02  0.38122992852E+02  0.00000000000E+00 0.  1.
         23    2    1    2    0    0 -0.70705622469E+02  0.87698200213E+02  0.25131859288E+03  0.28921889803E+03  0.88296525868E+02 0.  0.
         13    1    3    3    0    0 -0.43242124079E+02  0.10184437673E+03  0.17702342553E+03  0.20875691977E+03  0.00000000000E+00 0.  1.
        -13    1    3    3    0    0 -0.27463498391E+02 -0.14146176512E+02  0.74295167345E+02  0.80461978255E+02  0.00000000000E+00 0. -1.
         22    1    1    2    0    0  0.70705622469E+02 -0.87698200213E+02  0.14629898322E+03  0.18464466377E+03  0.00000000000E+00 0.  1.
<mgrwt>
<rscale>  0 0.25777304E+03</rscale>
<asrwt>0</asrwt>
<pdfrwt beam="1">  1        2 0.67037007E-01 0.25777304E+03</pdfrwt>
<pdfrwt beam="2">  1       -2 0.58650761E-02 0.25777304E+03</pdfrwt>
<totfact> 0.11018015E+04</totfact>
</mgrwt>
</event>
<event>
 6    1  0.2522095E-005  0.3383647E+04  0.7818608E-02  0.8141932E-01
         -2   -1    0    0    0  501 -0.00000000000E+00  0.00000000000E+00  0.16222360340E+04  0.16222360340E+04  0.00000000000E+00 0.  1.
          2   -1    0    0  501    0  0.00000000000E+00 -0.00000000000E+00 -0.17643961224E+04  0.17643961224E+04  0.00000000000E+00 0. -1.
         23    2    1    2    0    0 -0.99937755451E+03 -0.84808263822E+03  0.99847775655E+03  0.16490895380E+04  0.67370737014E+02 0.  0.
         13    1    3    3    0    0 -0.51518214752E+03 -0.43889954704E+03  0.55778941358E+03  0.87702593315E+03  0.00000000000E+00 0.  1.
        -13    1    3    3    0    0 -0.48419540699E+03 -0.40918309118E+03  0.44068834298E+03  0.77206360483E+03  0.00000000000E+00 0. -1.
         22    1    1    2    0    0  0.99937755451E+03  0.84808263822E+03 -0.11406378449E+04  0.17375426184E+04  0.00000000000E+00 0. -1.
<mgrwt>
<rscale>  0 0.33836471E+04</rscale>
<asrwt>0</asrwt>
<pdfrwt beam="1">  1        2 0.27144556E+00 0.33836471E+04</pdfrwt>
<pdfrwt beam="2">  1       -2 0.24957477E+00 0.33836471E+04</pdfrwt>
<totfact> 0.48434253E-01</totfact>
</mgrwt>
</event>
<event>
 6    1  0.1885829E-005  0.2045129E+04  0.7818608E-02  0.8585807E-01
          1   -1    0    0  501    0  0.00000000000E+00  0.00000000000E+00  0.10359613844E+04  0.10359613844E+04  0.00000000000E+00 0. -1.
         -1   -1    0    0    0  501 -0.00000000000E+00 -0.00000000000E+00 -0.10093404677E+04  0.10093404677E+04  0.00000000000E+00 0.  1.
         23    2    1    2    0    0  0.40105846003E+03 -0.69635190796E+03 -0.61588353092E+03  0.10164355666E+04  0.89860277169E+02 0.  0.
         11    1    3    3    0    0  0.18782371994E+03 -0.28123579157E+03 -0.21110539186E+03  0.39866879324E+03  0.00000000000E+00 0. -1.
        -11    1    3    3    0    0  0.21323474009E+03 -0.41511611639E+03 -0.40477813906E+03  0.61776677341E+03  0.00000000000E+00 0.  1.
         22    1    1    2    0    0 -0.40105846003E+03  0.69635190796E+03  0.64250444758E+03  0.10288662854E+04  0.00000000000E+00 0. -1.
<mgrwt>
<rscale>  0 0.20451286E+04</rscale>
<asrwt>0</asrwt>
<pdfrwt beam="1">  1        1 0.15937867E+00 0.20451286E+04</pdfrwt>
<pdfrwt beam="2">  1       -1 0.15528315E+00 0.20451286E+04</pdfrwt>
<totfact> 0.41631962E+00</totfact>
</mgrwt>
</event>
<event>
 6    1  0.1885829E-005  0.9652930E+03  0.7818608E-02  0.9347452E-01
         -1   -1    0    0    0  501 -0.00000000000E+00  0.00000000000E+00  0.40520124226E+03  0.40520124226E+03  0.00000000000E+00 0.  1.
          1   -1    0    0  501    0  0.00000000000E+00 -0.00000000000E+00 -0.57489368503E+03  0.57489368503E+03  0.00000000000E+00 0. -1.
         23    2    1    2    0    0 -0.27848883861E+03 -0.24779416047E+03 -0.39122868171E+03  0.54646341971E+03  0.81267511879E+02 0.  0.
         13    1    3    3    0    0 -0.15829979027E+03 -0.10125049336E+03 -0.23468811231E+03  0.30064762774E+03  0.00000000000E+00 0. -1.
        -13    1    3    3    0    0 -0.12018904835E+03 -0.14654366711E+03 -0.15654056940E+03  0.24581579197E+03  0.00000000000E+00 0.  1.
         22    1    1    2    0    0  0.27848883861E+03  0.24779416047E+03  0.22153623894E+03  0.43363150757E+03  0.00000000000E+00 0.  1.
<mgrwt>
<rscale>  0 0.96529298E+03</rscale>
<asrwt>0</asrwt>
<pdfrwt beam="1">  1        1 0.88445183E-01 0.96529298E+03</pdfrwt>
<pdfrwt beam="2">  1       -1 0.62338652E-01 0.96529298E+03</pdfrwt>
<totfact> 0.95521866E+01</totfact>
</mgrwt>
</event>
<event>
 6    1  0.1885829E-005  0.2053137E+04  0.7818608E-02  0.8582173E-01
         -2   -1    0    0    0  501 -0.00000000000E+00  0.00000000000E+00  0.10993140878E+04  0.10993140878E+04  0.00000000000E+00 0.  1.
          2   -1    0    0  501    0  0.00000000000E+00 -0.00000000000E+00 -0.95863674456E+03  0.95863674456E+03  0.00000000000E+00 0. -1.
         23    2    1    2    0    0  0.86991012200E+03  0.54011726703E+03  0.37276215268E+02  0.10287948307E+04  0.92514890552E+02 0.  0.
         11    1    3    3    0    0  0.37166215096E+03  0.25747664247E+03 -0.23507612363E+02  0.45274671033E+03  0.00000000000E+00 0.  1.
        -11    1    3    3    0    0  0.49824797104E+03  0.28264062456E+03  0.60783827631E+02  0.57604812038E+03  0.00000000000E+00 0. -1.
         22    1    1    2    0    0 -0.86991012200E+03 -0.54011726703E+03  0.10340112799E+03  0.10291560017E+04  0.00000000000E+00 0.  1.
<mgrwt>
<rscale>  0 0.20531370E+04</rscale>
<asrwt>0</asrwt>
<pdfrwt beam="1">  1        2 0.14748258E+00 0.20531370E+04</pdfrwt>
<pdfrwt beam="2">  1       -2 0.16912524E+00 0.20531370E+04</pdfrwt>
<totfact> 0.53585368E+00</totfact>
</mgrwt>
</event>
<event>
 6    1  0.1885829E-005  0.3384016E+04  0.7818608E-02  0.8141841E-01
         -2   -1    0    0    0  501 -0.00000000000E+00  0.00000000000E+00  0.10652200230E+04  0.10652200230E+04  0.00000000000E+00 0.  1.
          2   -1    0    0  501    0  0.00000000000E+00 -0.00000000000E+00 -0.26876047087E+04  0.26876047087E+04  0.00000000000E+00 0. -1.
         23    2    1    2    0    0  0.18134060920E+03  0.14252876196E+04 -0.18001542119E+04  0.23050916004E+04  0.92535853772E+02 0.  0.
         13    1    3    3    0    0  0.87790004829E+02  0.37126387672E+03 -0.48811783592E+03  0.61951833940E+03  0.00000000000E+00 0. -1.
        -13    1    3    3    0    0  0.93550604368E+02  0.10540237429E+04 -0.13120363760E+04  0.16855732610E+04  0.00000000000E+00 0.  1.
         22    1    1    2    0    0 -0.18134060920E+03 -0.14252876196E+04  0.17776952622E+03  0.14477331314E+04  0.00000000000E+00 0.  1.
<mgrwt>
<rscale>  0 0.33840156E+04</rscale>
<asrwt>0</asrwt>
<pdfrwt beam="1">  1        2 0.41347764E+00 0.33840156E+04</pdfrwt>
<pdfrwt beam="2">  1       -2 0.16388001E+00 0.33840156E+04</pdfrwt>
<totfact> 0.52837397E-01</totfact>
</mgrwt>
</event>
<event>
 6    1  0.1885829E-005  0.3290486E+04  0.7818608E-02  0.8165320E-01
          2   -1    0    0  501    0  0.00000000000E+00  0.00000000000E+00  0.25038680224E+04  0.25038680224E+04  0.00000000000E+00 0. -1.
         -2   -1    0    0    0  501 -0.00000000000E+00 -0.00000000000E+00 -0.10810574632E+04  0.10810574632E+04  0.00000000000E+00 0.  1.
         23    2    1    2    0    0  0.15218644318E+04 -0.58396177136E+03  0.94524336008E+03  0.18863516341E+04  0.88061219453E+02 0.  0.
         13    1    3    3    0    0  0.48145388197E+03 -0.15684942581E+03  0.32997672993E+03  0.60438747930E+03  0.00000000000E+00 0.  1.
        -13    1    3    3    0    0  0.10404105498E+04 -0.42711234555E+03  0.61526663015E+03  0.12819641548E+04  0.00000000000E+00 0. -1.
         22    1    1    2    0    0 -0.15218644318E+04  0.58396177136E+03  0.47756719914E+03  0.16985738515E+04  0.00000000000E+00 0.  1.
<mgrwt>
<rscale>  0 0.32904864E+04</rscale>
<asrwt>0</asrwt>
<pdfrwt beam="1">  1        2 0.38521046E+00 0.32904864E+04</pdfrwt>
<pdfrwt beam="2">  1       -2 0.16631653E+00 0.32904864E+04</pdfrwt>
<totfact> 0.65552121E-01</totfact>
</mgrwt>
</event>
<event>
 6    1  0.1885829E-005  0.1603590E+04  0.7818608E-02  0.8818346E-01
          2   -1    0    0  501    0  0.00000000000E+00  0.00000000000E+00  0.13139350931E+04  0.13139350931E+04  0.00000000000E+00 0. -1.
         -2   -1    0    0    0  501 -0.00000000000E+00 -0.00000000000E+00 -0.48927474577E+03  0.48927474577E+03  0.00000000000E+00 0.  1.
         23    2    1    2    0    0  0.36567930881E+03  0.57638612518E+03  0.88127278282E+03  0.11182665638E+04  0.89084610691E+02 0.  0.
         13    1    3    3    0    0  0.21815318596E+03  0.26594579997E+03  0.41553119470E+03  0.53942947160E+03  0.00000000000E+00 0. -1.
        -13    1    3    3    0    0  0.14752612286E+03  0.31044032521E+03  0.46574158812E+03  0.57883709224E+03  0.00000000000E+00 0.  1.
         22    1    1    2    0    0 -0.36567930881E+03 -0.57638612518E+03 -0.56612435463E+02  0.68494327506E+03  0.00000000000E+00 0.  1.
<mgrwt>
<rscale>  0 0.16035900E+04</rscale>
<asrwt>0</asrwt>
<pdfrwt beam="1">  1        2 0.20214386E+00 0.16035900E+04</pdfrwt>
<pdfrwt beam="2">  1       -2 0.75273038E-01 0.16035900E+04</pdfrwt>
<totfact> 0.24638986E+01</totfact>
</mgrwt>
</event>
<event>
 6    1  0.1885829E-005  0.1443860E+04  0.7818608E-02  0.8922669E-01
         -1   -1    0    0    0  501 -0.00000000000E+00  0.00000000000E+00  0.75204770522E+03  0.75204770522E+03  0.00000000000E+00 0.  1.
          1   -1    0    0  501    0  0.00000000000E+00 -0.00000000000E+00 -0.69301798745E+03  0.69301798745E+03  0.00000000000E+00 0. -1.
         23    2    1    2    0    0  0.47285289077E+03  0.44191323821E+03 -0.28376983419E+03  0.71268007072E+03  0.92251818350E+02 0.  0.
         11    1    3    3    0    0  0.27373313377E+03  0.25326720560E+03 -0.21274456689E+03  0.42934177143E+03  0.00000000000E+00 0. -1.
        -11    1    3    3    0    0  0.19911975700E+03  0.18864603261E+03 -0.71025267302E+02  0.28333829929E+03  0.00000000000E+00 0.  1.
         22    1    1    2    0    0 -0.47285289077E+03 -0.44191323821E+03  0.34279955196E+03  0.73238562195E+03  0.00000000000E+00 0.  1.
<mgrwt>
<rscale>  0 0.14438595E+04</rscale>
<asrwt>0</asrwt>
<pdfrwt beam="1">  1        1 0.10661815E+00 0.14438595E+04</pdfrwt>
<pdfrwt beam="2">  1       -1 0.11569965E+00 0.14438595E+04</pdfrwt>
<totfact> 0.18189892E+01</totfact>
</mgrwt>
</event>
<event>
 6    1  0.1885829E-005  0.1547550E+04  0.7818608E-02  0.8853434E-01
          2   -1    0    0  501    0  0.00000000000E+00  0.00000000000E+00  0.18149664983E+04  0.18149664983E+04  0.00000000000E+00 0. -1.
         -2   -1    0    0    0  501 -0.00000000000E+00 -0.00000000000E+00 -0.32988354824E+03  0.32988354824E+03  0.00000000000E+00 0.  1.
         23    2    1    2    0    0 -0.53804237863E+03  0.15048536050E+02 -0.20259245604E+02  0.54617209720E+03  0.90429326464E+02 0.  0.
         13    1    3    3    0    0 -0.85048090538E+02  0.20144862109E+02 -0.31787847244E+02  0.93002475268E+02  0.00000000000E+00 0. -1.
        -13    1    3    3    0    0 -0.45299428810E+03 -0.50963260587E+01  0.11528601641E+02  0.45316962193E+03  0.00000000000E+00 0.  1.
         22    1    1    2    0    0  0.53804237863E+03 -0.15048536050E+02  0.15053421957E+04  0.15986779493E+04  0.00000000000E+00 0. -1.
<mgrwt>
<rscale>  0 0.15475498E+04</rscale>
<asrwt>0</asrwt>
<pdfrwt beam="1">  1        2 0.27922561E+00 0.15475498E+04</pdfrwt>
<pdfrwt beam="2">  1       -2 0.50751316E-01 0.15475498E+04</pdfrwt>
<totfact> 0.29913600E+01</totfact>
</mgrwt>
</event>
<event>
 6    1  0.1885829E-005  0.2530412E+04  0.7818608E-02  0.8392231E-01
         -4   -1    0    0    0  501 -0.00000000000E+00  0.00000000000E+00  0.11776271711E+04  0.11776271711E+04  0.00000000000E+00 0.  1.
          4   -1    0    0  501    0  0.00000000000E+00 -0.00000000000E+00 -0.13592979686E+04  0.13592979686E+04  0.00000000000E+00 0. -1.
         23    2    1    2    0    0  0.91859482822E+03 -0.55387351405E+03  0.57846169953E+03  0.12222412458E+04  0.93077371678E+02 0.  0.
         13    1    3    3    0    0  0.64739275116E+03 -0.38155151852E+03  0.35669365305E+03  0.83182287638E+03  0.00000000000E+00 0.  1.
        -13    1    3    3    0    0  0.27120207707E+03 -0.17232199553E+03  0.22176804648E+03  0.39041836943E+03  0.00000000000E+00 0. -1.
         22    1    1    2    0    0 -0.91859482822E+03  0.55387351405E+03 -0.76013249698E+03  0.13146838939E+04  0.00000000000E+00 0.  1.
<mgrwt>
<rscale>  0 0.25304120E+04</rscale>
<asrwt>0</asrwt>
<pdfrwt beam="1">  1        4 0.20912276E+00 0.25304120E+04</pdfrwt>
<pdfrwt beam="2">  1       -4 0.18117341E+00 0.25304120E+04</pdfrwt>
<totfact> 0.35880835E-02</totfact>
</mgrwt>
</event>
<event>
 6    1  0.1885829E-005  0.1701182E+04  0.7818608E-02  0.8760690E-01
          2   -1    0    0  501    0  0.00000000000E+00  0.00000000000E+00  0.11518778259E+04  0.11518778259E+04  0.00000000000E+00 0. -1.
         -2   -1    0    0    0  501 -0.00000000000E+00 -0.00000000000E+00 -0.62810927553E+03  0.62810927553E+03  0.00000000000E+00 0.  1.
         23    2    1    2    0    0  0.12799296612E+03 -0.27434543705E+03  0.10916259108E+04  0.11364736206E+04  0.90981003791E+02 0.  0.
         13    1    3    3    0    0  0.76959084110E+02 -0.66736241866E+02  0.32433308735E+03  0.33995349411E+03  0.00000000000E+00 0.  1.
        -13    1    3    3    0    0  0.51033882006E+02 -0.20760919519E+03  0.76729282342E+03  0.79652012649E+03  0.00000000000E+00 0. -1.
         22    1    1    2    0    0 -0.12799296612E+03  0.27434543705E+03 -0.56785736042E+03  0.64351348082E+03  0.00000000000E+00 0.  1.
<mgrwt>
<rscale>  0 0.17011821E+04</rscale>
<asrwt>0</asrwt>
<pdfrwt beam="1">  1        2 0.17721197E+00 0.17011821E+04</pdfrwt>
<pdfrwt beam="2">  1       -2 0.96632197E-01 0.17011821E+04</pdfrwt>
<totfact> 0.17256587E+01</totfact>
</mgrwt>
</event>
<event>
 6    1  0.1885829E-005  0.4334559E+04  0.7818608E-02  0.7940259E-01
         -2   -1    0    0    0  501 -0.00000000000E+00  0.00000000000E+00  0.24670292904E+04  0.24670292904E+04  0.00000000000E+00 0.  1.
          2   -1    0    0  501    0  0.00000000000E+00 -0.00000000000E+00 -0.19039500640E+04  0.19039500640E+04  0.00000000000E+00 0. -1.
         23    2    1    2    0    0 -0.23046224263E+03  0.15173553311E+04  0.18234132958E+04  0.23850483353E+04  0.90219002550E+02 0.  0.
         11    1    3    3    0    0 -0.85033463270E+02  0.38993540590E+03  0.52161999319E+03  0.65678590724E+03  0.00000000000E+00 0.  1.
        -11    1    3    3    0    0 -0.14542877936E+03  0.11274199252E+04  0.13017933026E+04  0.17282624281E+04  0.00000000000E+00 0. -1.
         22    1    1    2    0    0  0.23046224263E+03 -0.15173553311E+04 -0.12603340694E+04  0.19859310191E+04  0.00000000000E+00 0. -1.
<mgrwt>
<rscale>  0 0.43345591E+04</rscale>
<asrwt>0</asrwt>
<pdfrwt beam="1">  1        2 0.29291539E+00 0.43345591E+04</pdfrwt>
<pdfrwt beam="2">  1       -2 0.37954297E+00 0.43345591E+04</pdfrwt>
<totfact> 0.58473760E-02</totfact>
</mgrwt>
</event>
<event>
 6    1  0.1885829E-005  0.3353582E+04  0.7818608E-02  0.8149394E-01
          2   -1    0    0  501    0  0.00000000000E+00  0.00000000000E+00  0.15524332801E+04  0.15524332801E+04  0.00000000000E+00 0. -1.
         -2   -1    0    0    0  501 -0.00000000000E+00 -0.00000000000E+00 -0.18111101546E+04  0.18111101546E+04  0.00000000000E+00 0.  1.
         23    2    1    2    0    0  0.65097025714E+03 -0.11458423295E+04  0.90846060406E+03  0.16031665393E+04  0.90140800701E+02 0.  0.
         13    1    3    3    0    0  0.33901342849E+03 -0.51969266259E+03  0.39793677638E+03  0.73713244823E+03  0.00000000000E+00 0. -1.
        -13    1    3    3    0    0  0.31195682865E+03 -0.62614966690E+03  0.51052382768E+03  0.86603409109E+03  0.00000000000E+00 0.  1.
         22    1    1    2    0    0 -0.65097025714E+03  0.11458423295E+04 -0.11671374786E+04  0.17603768953E+04  0.00000000000E+00 0.  1.
<mgrwt>
<rscale>  0 0.33535818E+04</rscale>
<asrwt>0</asrwt>
<pdfrwt beam="1">  1        2 0.23883589E+00 0.33535818E+04</pdfrwt>
<pdfrwt beam="2">  1       -2 0.27863233E+00 0.33535818E+04</pdfrwt>
<totfact> 0.42332930E-01</totfact>
</mgrwt>
</event>
<event>
 6    1  0.1885829E-005  0.3233994E+04  0.7818608E-02  0.8179897E-01
          2   -1    0    0  501    0  0.00000000000E+00  0.00000000000E+00  0.27066358738E+04  0.27066358738E+04  0.00000000000E+00 0. -1.
         -2   -1    0    0    0  501 -0.00000000000E+00 -0.00000000000E+00 -0.96602542237E+03  0.96602542237E+03  0.00000000000E+00 0.  1.
         23    2    1    2    0    0  0.28908561497E+03 -0.57411410837E+03 -0.81234072197E+03  0.10400319649E+04  0.92690545261E+02 0.  0.
         11    1    3    3    0    0  0.11927393671E+03 -0.27399755812E+03 -0.44669548991E+03  0.53743631672E+03  0.00000000000E+00 0. -1.
        -11    1    3    3    0    0  0.16981167826E+03 -0.30011655025E+03 -0.36564523207E+03  0.50259564815E+03  0.00000000000E+00 0.  1.
         22    1    1    2    0    0 -0.28908561497E+03  0.57411410837E+03  0.25529511734E+04  0.26326293313E+04  0.00000000000E+00 0. -1.
<mgrwt>
<rscale>  0 0.32339939E+04</rscale>
<asrwt>0</asrwt>
<pdfrwt beam="1">  1        2 0.41640552E+00 0.32339939E+04</pdfrwt>
<pdfrwt beam="2">  1       -2 0.14861930E+00 0.32339939E+04</pdfrwt>
<totfact> 0.67820532E-01</totfact>
</mgrwt>
</event>
<event>
 6    1  0.1885829E-005  0.2280997E+04  0.7818608E-02  0.8485452E-01
          2   -1    0    0  501    0  0.00000000000E+00  0.00000000000E+00  0.15249990819E+04  0.15249990819E+04  0.00000000000E+00 0. -1.
         -2   -1    0    0    0  501 -0.00000000000E+00 -0.00000000000E+00 -0.85294255856E+03  0.85294255856E+03  0.00000000000E+00 0.  1.
         23    2    1    2    0    0  0.69055438578E+03 -0.64321447058E+03  0.10007928835E+04  0.13786129612E+04  0.91635616120E+02 0.  0.
         11    1    3    3    0    0  0.58536313702E+03 -0.50035628057E+03  0.79270222659E+03  0.11051620830E+04  0.00000000000E+00 0.  1.
        -11    1    3    3    0    0  0.10519124876E+03 -0.14285819001E+03  0.20809065691E+03  0.27345087815E+03  0.00000000000E+00 0. -1.
         22    1    1    2    0    0 -0.69055438578E+03  0.64321447058E+03 -0.32873636012E+03  0.99932867933E+03  0.00000000000E+00 0.  1.
<mgrwt>
<rscale>  0 0.22809968E+04</rscale>
<asrwt>0</asrwt>
<pdfrwt beam="1">  1        2 0.23461524E+00 0.22809968E+04</pdfrwt>
<pdfrwt beam="2">  1       -2 0.13122193E+00 0.22809968E+04</pdfrwt>
<totfact> 0.47329647E+00</totfact>
</mgrwt>
</event>
<event>
 6    1  0.1885829E-005  0.1521829E+04  0.7818608E-02  0.8870065E-01
          1   -1    0    0  501    0  0.00000000000E+00  0.00000000000E+00  0.12270201011E+04  0.12270201011E+04  0.00000000000E+00 0. -1.
         -1   -1    0    0    0  501 -0.00000000000E+00 -0.00000000000E+00 -0.47186747071E+03  0.47186747071E+03  0.00000000000E+00 0.  1.
         23    2    1    2    0    0  0.44107321162E+03  0.43853665093E+03  0.86255723109E+03  0.10677016083E+04  0.95507985517E+02 0.  0.
         11    1    3    3    0    0  0.42766468048E+03  0.38958443326E+03  0.79425217171E+03  0.98260349167E+03  0.00000000000E+00 0.  1.
        -11    1    3    3    0    0  0.13408531140E+02  0.48952217668E+02  0.68305059374E+02  0.85098116654E+02  0.00000000000E+00 0. -1.
         22    1    1    2    0    0 -0.44107321162E+03 -0.43853665093E+03 -0.10740460072E+03  0.63118596346E+03  0.00000000000E+00 0.  1.
<mgrwt>
<rscale>  0 0.15218290E+04</rscale>
<asrwt>0</asrwt>
<pdfrwt beam="1">  1        1 0.18877232E+00 0.15218290E+04</pdfrwt>
<pdfrwt beam="2">  1       -1 0.72594996E-01 0.15218290E+04</pdfrwt>
<totfact> 0.18870755E+01</totfact>
</mgrwt>
</event>
<event>
 6    1  0.1885829E-005  0.1038298E+04  0.7818608E-02  0.9267509E-01
         -2   -1    0    0    0  501 -0.00000000000E+00  0.00000000000E+00  0.46614563406E+03  0.46614563406E+03  0.00000000000E+00 0.  1.
          2   -1    0    0  501    0  0.00000000000E+00 -0.00000000000E+00 -0.57817932987E+03  0.57817932987E+03  0.00000000000E+00 0. -1.
         23    2    1    2    0    0 -0.18778742905E+03  0.10409839713E+03 -0.52742623605E+03  0.57672304211E+03  0.91271233319E+02 0.  0.
         13    1    3    3    0    0 -0.17342908366E+03  0.67210731135E+02 -0.36644099200E+03  0.41094273330E+03  0.00000000000E+00 0. -1.
        -13    1    3    3    0    0 -0.14358345389E+02  0.36887665998E+02 -0.16098524406E+03  0.16578030881E+03  0.00000000000E+00 0.  1.
         22    1    1    2    0    0  0.18778742905E+03 -0.10409839713E+03  0.41539254024E+03  0.46760192181E+03  0.00000000000E+00 0.  1.
<mgrwt>
<rscale>  0 0.10382982E+04</rscale>
<asrwt>0</asrwt>
<pdfrwt beam="1">  1        2 0.88950665E-01 0.10382982E+04</pdfrwt>
<pdfrwt beam="2">  1       -2 0.71714714E-01 0.10382982E+04</pdfrwt>
<totfact> 0.91161689E+01</totfact>
</mgrwt>
</event>
<event>
 6    1  0.1885829E-005  0.1661883E+04  0.7818608E-02  0.8783408E-01
          2   -1    0    0  501    0  0.00000000000E+00  0.00000000000E+00  0.18518073048E+04  0.18518073048E+04  0.00000000000E+00 0. -1.
         -2   -1    0    0    0  501 -0.00000000000E+00 -0.00000000000E+00 -0.37285933326E+03  0.37285933326E+03  0.00000000000E+00 0.  1.
         23    2    1    2    0    0  0.47850339699E+03  0.48840674717E+03  0.11563048462E+03  0.69949739441E+03  0.91758074307E+02 0.  0.
         11    1    3    3    0    0  0.40042455156E+03  0.42302773249E+03  0.66014315771E+02  0.58621683175E+03  0.00000000000E+00 0.  1.
        -11    1    3    3    0    0  0.78078845435E+02  0.65379014688E+02  0.49616168847E+02  0.11328056266E+03  0.00000000000E+00 0. -1.
         22    1    1    2    0    0 -0.47850339699E+03 -0.48840674717E+03  0.13633174870E+04  0.15251692437E+04  0.00000000000E+00 0. -1.
<mgrwt>
<rscale>  0 0.16618828E+04</rscale>
<asrwt>0</asrwt>
<pdfrwt beam="1">  1        2 0.28489343E+00 0.16618828E+04</pdfrwt>
<pdfrwt beam="2">  1       -2 0.57362976E-01 0.16618828E+04</pdfrwt>
<totfact> 0.21944402E+01</totfact>
</mgrwt>
</event>
<event>
 6    1  0.1885829E-005  0.2695332E+04  0.7818608E-02  0.8336521E-01
          1   -1    0    0  501    0  0.00000000000E+00  0.00000000000E+00  0.11094718611E+04  0.11094718611E+04  0.00000000000E+00 0. -1.
         -1   -1    0    0    0  501 -0.00000000000E+00 -0.00000000000E+00 -0.16369986638E+04  0.16369986638E+04  0.00000000000E+00 0.  1.
         23    2    1    2    0    0  0.42085308730E+03  0.10266573376E+04 -0.10406512352E+04  0.15239979104E+04  0.92043619077E+02 0.  0.
         13    1    3    3    0    0  0.40480223109E+03  0.92409013842E+03 -0.92729040473E+03  0.13702827901E+04  0.00000000000E+00 0.  1.
        -13    1    3    3    0    0  0.16050856211E+02  0.10256719916E+03 -0.11336083044E+03  0.15371512029E+03  0.00000000000E+00 0. -1.
         22    1    1    2    0    0 -0.42085308730E+03 -0.10266573376E+04  0.51312443247E+03  0.12224726144E+04  0.00000000000E+00 0. -1.
<mgrwt>
<rscale>  0 0.26953322E+04</rscale>
<asrwt>0</asrwt>
<pdfrwt beam="1">  1        1 0.17068798E+00 0.26953322E+04</pdfrwt>
<pdfrwt beam="2">  1       -1 0.25184595E+00 0.26953322E+04</pdfrwt>
<totfact> 0.73871777E-01</totfact>
</mgrwt>
</event>
<event>
 6    1  0.1885829E-005  0.3285003E+04  0.7818608E-02  0.8166722E-01
         -2   -1    0    0    0  501 -0.00000000000E+00  0.00000000000E+00  0.85418278203E+03  0.85418278203E+03  0.00000000000E+00 0.  1.
          2   -1    0    0  501    0  0.00000000000E+00 -0.00000000000E+00 -0.31583527845E+04  0.31583527845E+04  0.00000000000E+00 0. -1.
         23    2    1    2    0    0  0.25435985384E+03 -0.15626726154E+04 -0.16810054664E+04  0.23110718798E+04  0.92893580940E+02 0.  0.
         11    1    3    3    0    0  0.20593132326E+03 -0.13532565621E+04 -0.14927625564E+04  0.20253520886E+04  0.00000000000E+00 0. -1.
        -11    1    3    3    0    0  0.48428530581E+02 -0.20941605329E+03 -0.18824291000E+03  0.28571979125E+03  0.00000000000E+00 0.  1.
         22    1    1    2    0    0 -0.25435985384E+03  0.15626726154E+04 -0.62316453609E+03  0.17014636867E+04  0.00000000000E+00 0.  1.
<mgrwt>
<rscale>  0 0.32850026E+04</rscale>
<asrwt>0</asrwt>
<pdfrwt beam="1">  1        2 0.48590043E+00 0.32850026E+04</pdfrwt>
<pdfrwt beam="2">  1       -2 0.13141274E+00 0.32850026E+04</pdfrwt>
<totfact> 0.48723317E-01</totfact>
</mgrwt>
</event>
<event>
 6    1  0.1885829E-005  0.5462660E+04  0.7818608E-02  0.7760848E-01
          2   -1    0    0  501    0  0.00000000000E+00  0.00000000000E+00  0.26337745671E+04  0.26337745671E+04  0.00000000000E+00 0.  1.
         -2   -1    0    0    0  501 -0.00000000000E+00 -0.00000000000E+00 -0.28324991937E+04  0.28324991937E+04  0.00000000000E+00 0. -1.
         23    2    1    2    0    0 -0.20715171565E+03  0.23458026615E+04  0.12835353641E+04  0.26836856419E+04  0.94887478573E+02 0.  0.
         13    1    3    3    0    0 -0.19009844237E+03  0.18684409719E+04  0.99011196024E+03  0.21230946227E+04  0.00000000000E+00 0.  1.
        -13    1    3    3    0    0 -0.17053273281E+02  0.47736168961E+03  0.29342340384E+03  0.56059101916E+03  0.00000000000E+00 0. -1.
         22    1    1    2    0    0  0.20715171565E+03 -0.23458026615E+04 -0.14822599907E+04  0.27825881190E+04  0.00000000000E+00 0. -1.
<mgrwt>
<rscale>  0 0.54626603E+04</rscale>
<asrwt>0</asrwt>
<pdfrwt beam="1">  1        2 0.40519609E+00 0.54626603E+04</pdfrwt>
<pdfrwt beam="2">  1       -2 0.43576911E+00 0.54626603E+04</pdfrwt>
<totfact> 0.88216591E-03</totfact>
</mgrwt>
</event>
<event>
 6    1  0.1885829E-005  0.1039614E+04  0.7818608E-02  0.9266133E-01
          2   -1    0    0  501    0  0.00000000000E+00  0.00000000000E+00  0.95265357003E+03  0.95265357003E+03  0.00000000000E+00 0. -1.
         -2   -1    0    0    0  501 -0.00000000000E+00 -0.00000000000E+00 -0.28362787917E+03  0.28362787917E+03  0.00000000000E+00 0.  1.
         23    2    1    2    0    0 -0.33662434018E+03  0.38508866572E+03  0.41558055286E+03  0.66545427321E+03  0.92265740951E+02 0.  0.
         13    1    3    3    0    0 -0.29189421585E+03  0.27571232057E+03  0.32461483288E+03  0.51632771249E+03  0.00000000000E+00 0.  1.
        -13    1    3    3    0    0 -0.44730124332E+02  0.10937634515E+03  0.90965719980E+02  0.14912656072E+03  0.00000000000E+00 0. -1.
         22    1    1    2    0    0  0.33662434018E+03 -0.38508866572E+03  0.25344513800E+03  0.57082717599E+03  0.00000000000E+00 0.  1.
<mgrwt>
<rscale>  0 0.10396136E+04</rscale>
<asrwt>0</asrwt>
<pdfrwt beam="1">  1        2 0.14656209E+00 0.10396136E+04</pdfrwt>
<pdfrwt beam="2">  1       -2 0.43635059E-01 0.10396136E+04</pdfrwt>
<totfact> 0.13409781E+02</totfact>
</mgrwt>
</event>
<event>
 6    1  0.1885829E-005  0.1183836E+04  0.7818608E-02  0.9127124E-01
         -2   -1    0    0    0  501 -0.00000000000E+00  0.00000000000E+00  0.19132021025E+03  0.19132021025E+03  0.00000000000E+00 0.  1.
          2   -1    0    0  501    0  0.00000000000E+00 -0.00000000000E+00 -0.18313112371E+04  0.18313112371E+04  0.00000000000E+00 0. -1.
         23    2    1    2    0    0 -0.55483046790E+03 -0.19274545644E+03 -0.76279181357E+03  0.96694867356E+03  0.90281378873E+02 0.  0.
         11    1    3    3    0    0 -0.47693868079E+03 -0.13049800436E+03 -0.64049792598E+03  0.80915871592E+03  0.00000000000E+00 0. -1.
        -11    1    3    3    0    0 -0.77891787109E+02 -0.62247452079E+02 -0.12229388759E+03  0.15778995764E+03  0.00000000000E+00 0.  1.
         22    1    1    2    0    0  0.55483046790E+03  0.19274545644E+03 -0.87719921326E+03  0.10556827738E+04  0.00000000000E+00 0.  1.
<mgrwt>
<rscale>  0 0.11838359E+04</rscale>
<asrwt>0</asrwt>
<pdfrwt beam="1">  1        2 0.28174020E+00 0.11838359E+04</pdfrwt>
<pdfrwt beam="2">  1       -2 0.29433878E-01 0.11838359E+04</pdfrwt>
<totfact> 0.87046945E+01</totfact>
</mgrwt>
</event>
<event>
 6    1  0.1885829E-005  0.2653009E+04  0.7818608E-02  0.8350415E-01
         -2   -1    0    0    0  501 -0.00000000000E+00  0.00000000000E+00  0.17530055683E+04  0.17530055683E+04  0.00000000000E+00 0.  1.
          2   -1    0    0  501    0  0.00000000000E+00 -0.00000000000E+00 -0.10037697765E+04  0.10037697765E+04  0.00000000000E+00 0. -1.
         23    2    1    2    0    0  0.58063126862E+03  0.11510641275E+04  0.57862411048E+02  0.12938746484E+04  0.93178599662E+02 0.  0.
         11    1    3    3    0    0  0.26372911623E+03  0.62609316483E+03  0.29082950519E+02  0.67999376159E+03  0.00000000000E+00 0. -1.
        -11    1    3    3    0    0  0.31690215239E+03  0.52497096270E+03  0.28779460528E+02  0.61388088683E+03  0.00000000000E+00 0.  1.
         22    1    1    2    0    0 -0.58063126862E+03 -0.11510641275E+04  0.69137338075E+03  0.14629006964E+04  0.00000000000E+00 0.  1.
<mgrwt>
<rscale>  0 0.26530089E+04</rscale>
<asrwt>0</asrwt>
<pdfrwt beam="1">  1        2 0.15442612E+00 0.26530089E+04</pdfrwt>
<pdfrwt beam="2">  1       -2 0.26969316E+00 0.26530089E+04</pdfrwt>
<totfact> 0.10737533E+00</totfact>
</mgrwt>
</event>
<event>
 6    1  0.1885829E-005  0.1524310E+04  0.7818608E-02  0.8868446E-01
          1   -1    0    0  501    0  0.00000000000E+00  0.00000000000E+00  0.16443655343E+04  0.16443655343E+04  0.00000000000E+00 0. -1.
         -1   -1    0    0    0  501 -0.00000000000E+00 -0.00000000000E+00 -0.35325492696E+03  0.35325492696E+03  0.00000000000E+00 0.  1.
         23    2    1    2    0    0 -0.67101169610E+02  0.42930755493E+03 -0.16795637393E+03  0.47522629432E+03  0.93931589926E+02 0.  0.
         11    1    3    3    0    0 -0.51845792342E+02  0.12972899900E+03 -0.86801956091E+02  0.16447546609E+03  0.00000000000E+00 0. -1.
        -11    1    3    3    0    0 -0.15255377269E+02  0.29957855593E+03 -0.81154417837E+02  0.31075082823E+03  0.00000000000E+00 0.  1.
         22    1    1    2    0    0  0.67101169610E+02 -0.42930755493E+03  0.14590669812E+04  0.15223941669E+04  0.00000000000E+00 0. -1.
<mgrwt>
<rscale>  0 0.15243100E+04</rscale>
<asrwt>0</asrwt>
<pdfrwt beam="1">  1        1 0.25297931E+00 0.15243100E+04</pdfrwt>
<pdfrwt beam="2">  1       -1 0.54346913E-01 0.15243100E+04</pdfrwt>
<totfact> 0.17174620E+01</totfact>
</mgrwt>
</event>
<event>
 6    1  0.1885829E-005  0.2417599E+04  0.7818608E-02  0.8432944E-01
          1   -1    0    0  501    0  0.00000000000E+00  0.00000000000E+00  0.12971635312E+04  0.12971635312E+04  0.00000000000E+00 0. -1.
         -1   -1    0    0    0  501 -0.00000000000E+00 -0.00000000000E+00 -0.11264552944E+04  0.11264552944E+04  0.00000000000E+00 0.  1.
         23    2    1    2    0    0  0.45407938633E+03  0.60000979667E+03 -0.86061769767E+03  0.11469696849E+04  0.93149296253E+02 0.  0.
         13    1    3    3    0    0  0.12978202610E+03  0.14398201710E+03 -0.16769841644E+03  0.25631417133E+03  0.00000000000E+00 0.  1.
        -13    1    3    3    0    0  0.32429736023E+03  0.45602777956E+03 -0.69291928123E+03  0.89065551359E+03  0.00000000000E+00 0. -1.
         22    1    1    2    0    0 -0.45407938633E+03 -0.60000979667E+03  0.10313259345E+04  0.12766491407E+04  0.00000000000E+00 0. -1.
<mgrwt>
<rscale>  0 0.24175994E+04</rscale>
<asrwt>0</asrwt>
<pdfrwt beam="1">  1        1 0.19956362E+00 0.24175994E+04</pdfrwt>
<pdfrwt beam="2">  1       -1 0.17330081E+00 0.24175994E+04</pdfrwt>
<totfact> 0.18926390E+00</totfact>
</mgrwt>
</event>
<event>
 6    1  0.1885829E-005  0.4313156E+04  0.7818608E-02  0.7944190E-01
         -1   -1    0    0    0  501 -0.00000000000E+00  0.00000000000E+00  0.18913591436E+04  0.18913591436E+04  0.00000000000E+00 0.  1.
          1   -1    0    0  501    0  0.00000000000E+00 -0.00000000000E+00 -0.24589877187E+04  0.24589877187E+04  0.00000000000E+00 0. -1.
         23    2    1    2    0    0  0.17524500050E+04 -0.98758579287E+03 -0.10654806606E+04  0.22780864015E+04  0.89565040003E+02 0.  0.
         11    1    3    3    0    0  0.81174932863E+03 -0.46942034435E+03 -0.54587686450E+03  0.10850225728E+04  0.00000000000E+00 0. -1.
        -11    1    3    3    0    0  0.94070067639E+03 -0.51816544852E+03 -0.51960379613E+03  0.11930638288E+04  0.00000000000E+00 0.  1.
         22    1    1    2    0    0 -0.17524500050E+04  0.98758579287E+03  0.49785208549E+03  0.20722604608E+04  0.00000000000E+00 0.  1.
<mgrwt>
<rscale>  0 0.43131561E+04</rscale>
<asrwt>0</asrwt>
<pdfrwt beam="1">  1        1 0.37830580E+00 0.43131561E+04</pdfrwt>
<pdfrwt beam="2">  1       -1 0.29097833E+00 0.43131561E+04</pdfrwt>
<totfact> 0.41697986E-02</totfact>
</mgrwt>
</event>
<event>
 6    1  0.1885829E-005  0.1560788E+04  0.7818608E-02  0.8845006E-01
         -2   -1    0    0    0  501 -0.00000000000E+00  0.00000000000E+00  0.71866882622E+03  0.71866882622E+03  0.00000000000E+00 0.  1.
          2   -1    0    0  501    0  0.00000000000E+00 -0.00000000000E+00 -0.84742096492E+03  0.84742096492E+03  0.00000000000E+00 0. -1.
         23    2    1    2    0    0 -0.21025754807E+03 -0.33701839654E+03 -0.73608304322E+03  0.84038980924E+03  0.81530048700E+02 0.  0.
         11    1    3    3    0    0 -0.13408140174E+03 -0.14116497837E+03 -0.32993057554E+03  0.38309210131E+03  0.00000000000E+00 0.  1.
        -11    1    3    3    0    0 -0.76176146324E+02 -0.19585341817E+03 -0.40615246768E+03  0.45729770794E+03  0.00000000000E+00 0. -1.
         22    1    1    2    0    0  0.21025754807E+03  0.33701839654E+03  0.60733090452E+03  0.72569998189E+03  0.00000000000E+00 0.  1.
<mgrwt>
<rscale>  0 0.15607883E+04</rscale>
<asrwt>0</asrwt>
<pdfrwt beam="1">  1        2 0.13037246E+00 0.15607883E+04</pdfrwt>
<pdfrwt beam="2">  1       -2 0.11056444E+00 0.15607883E+04</pdfrwt>
<totfact> 0.19893155E+01</totfact>
</mgrwt>
</event>
<event>
 6    1  0.1885829E-005  0.4258020E+04  0.7818608E-02  0.7954427E-01
          2   -1    0    0  501    0  0.00000000000E+00  0.00000000000E+00  0.24988983639E+04  0.24988983639E+04  0.00000000000E+00 0. -1.
         -2   -1    0    0    0  501 -0.00000000000E+00 -0.00000000000E+00 -0.18138725339E+04  0.18138725339E+04  0.00000000000E+00 0.  1.
         23    2    1    2    0    0 -0.98963527431E+03 -0.30559949065E+03 -0.15402327434E+04  0.18582760936E+04  0.90022837773E+02 0.  0.
         13    1    3    3    0    0 -0.34613434536E+03 -0.14146069475E+03 -0.60529929981E+03  0.71148250544E+03  0.00000000000E+00 0. -1.
        -13    1    3    3    0    0 -0.64350092895E+03 -0.16413879590E+03 -0.93493344364E+03  0.11467935882E+04  0.00000000000E+00 0.  1.
         22    1    1    2    0    0  0.98963527431E+03  0.30559949065E+03  0.22252585735E+04  0.24544948042E+04  0.00000000000E+00 0. -1.
<mgrwt>
<rscale>  0 0.42580198E+04</rscale>
<asrwt>0</asrwt>
<pdfrwt beam="1">  1        2 0.38444590E+00 0.42580198E+04</pdfrwt>
<pdfrwt beam="2">  1       -2 0.27905731E+00 0.42580198E+04</pdfrwt>
<totfact> 0.11494849E-01</totfact>
</mgrwt>
</event>
<event>
 6    1  0.1885829E-005  0.2357753E+04  0.7818608E-02  0.8455492E-01
          2   -1    0    0  501    0  0.00000000000E+00  0.00000000000E+00  0.13252462735E+04  0.13252462735E+04  0.00000000000E+00 0. -1.
         -2   -1    0    0    0  501 -0.00000000000E+00 -0.00000000000E+00 -0.10486730173E+04  0.10486730173E+04  0.00000000000E+00 0.  1.
         23    2    1    2    0    0  0.88373870389E+03  0.32273569690E+03 -0.57385814220E+03  0.11056977053E+04  0.90010117392E+02 0.  0.
         13    1    3    3    0    0  0.67065789979E+02  0.28513029233E+02 -0.74694818455E+02  0.10435578051E+03  0.00000000000E+00 0.  1.
        -13    1    3    3    0    0  0.81667291392E+03  0.29422266767E+03 -0.49916332375E+03  0.10013419248E+04  0.00000000000E+00 0. -1.
         22    1    1    2    0    0 -0.88373870389E+03 -0.32273569690E+03  0.85043139838E+03  0.12682215856E+04  0.00000000000E+00 0. -1.
<mgrwt>
<rscale>  0 0.23577532E+04</rscale>
<asrwt>0</asrwt>
<pdfrwt beam="1">  1        2 0.20388404E+00 0.23577532E+04</pdfrwt>
<pdfrwt beam="2">  1       -2 0.16133431E+00 0.23577532E+04</pdfrwt>
<totfact> 0.35513971E+00</totfact>
</mgrwt>
</event>
<event>
 6    1  0.1885829E-005  0.3755807E+04  0.7818608E-02  0.8055706E-01
          2   -1    0    0  501    0  0.00000000000E+00  0.00000000000E+00  0.15709392575E+04  0.15709392575E+04  0.00000000000E+00 0. -1.
         -2   -1    0    0    0  501 -0.00000000000E+00 -0.00000000000E+00 -0.22448495491E+04  0.22448495491E+04  0.00000000000E+00 0.  1.
         23    2    1    2    0    0  0.12039543764E+04  0.14385376536E+04 -0.39831963709E+03  0.19197806500E+04  0.89456635585E+02 0.  0.
         11    1    3    3    0    0  0.96939786846E+03  0.11493558791E+04 -0.35501704874E+03  0.15449233862E+04  0.00000000000E+00 0.  1.
        -11    1    3    3    0    0  0.23455650793E+03  0.28918177447E+03 -0.43302588354E+02  0.37485726384E+03  0.00000000000E+00 0. -1.
         22    1    1    2    0    0 -0.12039543764E+04 -0.14385376536E+04 -0.27559065451E+03  0.18960081566E+04  0.00000000000E+00 0.  1.
<mgrwt>
<rscale>  0 0.37558074E+04</rscale>
<asrwt>0</asrwt>
<pdfrwt beam="1">  1        2 0.24168296E+00 0.37558074E+04</pdfrwt>
<pdfrwt beam="2">  1       -2 0.34536147E+00 0.37558074E+04</pdfrwt>
<totfact> 0.15499222E-01</totfact>
</mgrwt>
</event>
<event>
 6    1  0.1885829E-005  0.1633976E+04  0.7818608E-02  0.8799943E-01
          2   -1    0    0  501    0  0.00000000000E+00  0.00000000000E+00  0.14452312106E+04  0.14452312106E+04  0.00000000000E+00 0. -1.
         -2   -1    0    0    0  501 -0.00000000000E+00 -0.00000000000E+00 -0.46184243395E+03  0.46184243395E+03  0.00000000000E+00 0.  1.
         23    2    1    2    0    0 -0.38775995841E+03 -0.58378012407E+02  0.13263400899E+04  0.13861308636E+04  0.91733086564E+02 0.  0.
         13    1    3    3    0    0 -0.15801667361E+03 -0.28891871574E+02  0.70372280802E+03  0.72182393969E+03  0.00000000000E+00 0.  1.
        -13    1    3    3    0    0 -0.22974328480E+03 -0.29486140833E+02  0.62261728191E+03  0.66430692390E+03  0.00000000000E+00 0. -1.
         22    1    1    2    0    0  0.38775995841E+03  0.58378012407E+02 -0.34295131332E+03  0.52094278091E+03  0.00000000000E+00 0.  1.
<mgrwt>
<rscale>  0 0.16339756E+04</rscale>
<asrwt>0</asrwt>
<pdfrwt beam="1">  1        2 0.22234326E+00 0.16339756E+04</pdfrwt>
<pdfrwt beam="2">  1       -2 0.71052683E-01 0.16339756E+04</pdfrwt>
<totfact> 0.23461648E+01</totfact>
</mgrwt>
</event>
<event>
 6    1  0.1885829E-005  0.2631160E+04  0.7818608E-02  0.8357693E-01
          2   -1    0    0  501    0  0.00000000000E+00  0.00000000000E+00  0.33505164578E+04  0.33505164578E+04  0.00000000000E+00 0.  1.
         -2   -1    0    0    0  501 -0.00000000000E+00 -0.00000000000E+00 -0.51656218178E+03  0.51656218178E+03  0.00000000000E+00 0. -1.
         23    2    1    2    0    0  0.66691553104E+03 -0.25281665234E+03  0.30405399002E+04  0.31245355733E+04  0.95640363901E+02 0.  0.
         13    1    3    3    0    0  0.29832065425E+03 -0.15423571482E+03  0.15465706506E+04  0.15826132332E+04  0.00000000000E+00 0. -1.
        -13    1    3    3    0    0  0.36859487679E+03 -0.98580937526E+02  0.14939692496E+04  0.15419223402E+04  0.00000000000E+00 0.  1.
         22    1    1    2    0    0 -0.66691553104E+03  0.25281665234E+03 -0.20658562410E+03  0.74254306631E+03  0.00000000000E+00 0. -1.
<mgrwt>
<rscale>  0 0.26311595E+04</rscale>
<asrwt>0</asrwt>
<pdfrwt beam="1">  1        2 0.51546406E+00 0.26311595E+04</pdfrwt>
<pdfrwt beam="2">  1       -2 0.79471107E-01 0.26311595E+04</pdfrwt>
<totfact> 0.12755733E+00</totfact>
</mgrwt>
</event>
<event>
 6    1  0.1885829E-005  0.2000400E+04  0.7818608E-02  0.8606434E-01
          2   -1    0    0  501    0  0.00000000000E+00  0.00000000000E+00  0.19532213211E+04  0.19532213211E+04  0.00000000000E+00 0.  1.
         -2   -1    0    0    0  501 -0.00000000000E+00 -0.00000000000E+00 -0.51217974966E+03  0.51217974966E+03  0.00000000000E+00 0. -1.
         23    2    1    2    0    0  0.93320750755E+03  0.35387821208E+03  0.68482865321E+03  0.12132173706E+04  0.82462494474E+02 0.  0.
         11    1    3    3    0    0  0.38188506058E+03  0.11815995383E+03  0.23570421959E+03  0.46406298422E+03  0.00000000000E+00 0. -1.
        -11    1    3    3    0    0  0.55132244696E+03  0.23571825825E+03  0.44912443362E+03  0.74915438641E+03  0.00000000000E+00 0.  1.
         22    1    1    2    0    0 -0.93320750755E+03 -0.35387821208E+03  0.75621291819E+03  0.12521837001E+04  0.00000000000E+00 0.  1.
<mgrwt>
<rscale>  0 0.20004004E+04</rscale>
<asrwt>0</asrwt>
<pdfrwt beam="1">  1        2 0.30049558E+00 0.20004004E+04</pdfrwt>
<pdfrwt beam="2">  1       -2 0.78796885E-01 0.20004004E+04</pdfrwt>
<totfact> 0.94244818E+00</totfact>
</mgrwt>
</event>
<event>
 6    1  0.1885829E-005  0.3070259E+04  0.7818608E-02  0.8223948E-01
         -2   -1    0    0    0  501 -0.00000000000E+00  0.00000000000E+00  0.78547532252E+03  0.78547532252E+03  0.00000000000E+00 0.  1.
          2   -1    0    0  501    0  0.00000000000E+00 -0.00000000000E+00 -0.30002502306E+04  0.30002502306E+04  0.00000000000E+00 0. -1.
         23    2    1    2    0    0 -0.71566615171E+03 -0.13055674347E+04 -0.65392512454E+03  0.16286589306E+04  0.90705437530E+02 0.  0.
         11    1    3    3    0    0 -0.30132390007E+03 -0.59808369371E+03 -0.33630456775E+03  0.74940040014E+03  0.00000000000E+00 0. -1.
        -11    1    3    3    0    0 -0.41434225164E+03 -0.70748374100E+03 -0.31762055679E+03  0.87925853045E+03  0.00000000000E+00 0.  1.
         22    1    1    2    0    0  0.71566615171E+03  0.13055674347E+04 -0.15608497835E+04  0.21570666225E+04  0.00000000000E+00 0. -1.
<mgrwt>
<rscale>  0 0.30702590E+04</rscale>
<asrwt>0</asrwt>
<pdfrwt beam="1">  1        2 0.46157695E+00 0.30702590E+04</pdfrwt>
<pdfrwt beam="2">  1       -2 0.12084236E+00 0.30702590E+04</pdfrwt>
<totfact> 0.77251957E-01</totfact>
</mgrwt>
</event>
<event>
 6    1  0.1885829E-005  0.3248580E+04  0.7818608E-02  0.8176104E-01
         -2   -1    0    0    0  501 -0.00000000000E+00  0.00000000000E+00  0.14497279159E+04  0.14497279159E+04  0.00000000000E+00 0.  1.
          2   -1    0    0  501    0  0.00000000000E+00 -0.00000000000E+00 -0.18198713576E+04  0.18198713576E+04  0.00000000000E+00 0. -1.
         23    2    1    2    0    0 -0.12777766017E+04  0.37449488695E+03 -0.11194823202E+04  0.17417026084E+04  0.85602842062E+02 0.  0.
         13    1    3    3    0    0 -0.42895208885E+03  0.14418100123E+03 -0.33330629366E+03  0.56203304265E+03  0.00000000000E+00 0. -1.
        -13    1    3    3    0    0 -0.84882451288E+03  0.23031388573E+03 -0.78617602658E+03  0.11796695658E+04  0.00000000000E+00 0.  1.
         22    1    1    2    0    0  0.12777766017E+04 -0.37449488695E+03  0.74933887857E+03  0.15278966651E+04  0.00000000000E+00 0.  1.
<mgrwt>
<rscale>  0 0.32485802E+04</rscale>
<asrwt>0</asrwt>
<pdfrwt beam="1">  1        2 0.27998021E+00 0.32485802E+04</pdfrwt>
<pdfrwt beam="2">  1       -2 0.22303506E+00 0.32485802E+04</pdfrwt>
<totfact> 0.66723670E-01</totfact>
</mgrwt>
</event>
<event>
 6    1  0.1885829E-005  0.1568758E+04  0.7818608E-02  0.8839974E-01
          2   -1    0    0  501    0  0.00000000000E+00  0.00000000000E+00  0.14337321035E+04  0.14337321035E+04  0.00000000000E+00 0. -1.
         -2   -1    0    0    0  501 -0.00000000000E+00 -0.00000000000E+00 -0.42912533085E+03  0.42912533085E+03  0.00000000000E+00 0.  1.
         23    2    1    2    0    0  0.78007497139E+03 -0.16082594825E+02  0.56113946240E+03  0.96539497489E+03  0.91292663615E+02 0.  0.
         13    1    3    3    0    0  0.42657350680E+03 -0.52266791283E+02  0.29084632363E+03  0.51893001276E+03  0.00000000000E+00 0. -1.
        -13    1    3    3    0    0  0.35350146459E+03  0.36184196458E+02  0.27029313877E+03  0.44646496213E+03  0.00000000000E+00 0.  1.
         22    1    1    2    0    0 -0.78007497139E+03  0.16082594825E+02  0.44346731022E+03  0.89746245943E+03  0.00000000000E+00 0. -1.
<mgrwt>
<rscale>  0 0.15687584E+04</rscale>
<asrwt>0</asrwt>
<pdfrwt beam="1">  1        2 0.22057417E+00 0.15687584E+04</pdfrwt>
<pdfrwt beam="2">  1       -2 0.66019282E-01 0.15687584E+04</pdfrwt>
<totfact> 0.28087327E+01</totfact>
</mgrwt>
</event>
<event>
 6    1  0.1885829E-005  0.1218117E+04  0.7818608E-02  0.9097145E-01
         -2   -1    0    0    0  501 -0.00000000000E+00  0.00000000000E+00  0.57933265733E+03  0.57933265733E+03  0.00000000000E+00 0.  1.
          2   -1    0    0  501    0  0.00000000000E+00 -0.00000000000E+00 -0.64030943470E+03  0.64030943470E+03  0.00000000000E+00 0. -1.
         23    2    1    2    0    0 -0.35179889619E+03  0.15022348307E+03  0.44069851419E+03  0.58876361215E+03  0.78088746708E+02 0.  0.
         11    1    3    3    0    0 -0.12886208189E+03  0.44905421504E+02  0.21409934063E+03  0.25389064710E+03  0.00000000000E+00 0.  1.
        -11    1    3    3    0    0 -0.22293681430E+03  0.10531806157E+03  0.22659917356E+03  0.33487296505E+03  0.00000000000E+00 0. -1.
         22    1    1    2    0    0  0.35179889619E+03 -0.15022348307E+03 -0.50167529156E+03  0.63087847988E+03  0.00000000000E+00 0. -1.
<mgrwt>
<rscale>  0 0.12181169E+04</rscale>
<asrwt>0</asrwt>
<pdfrwt beam="1">  1        2 0.98509144E-01 0.12181169E+04</pdfrwt>
<pdfrwt beam="2">  1       -2 0.89128101E-01 0.12181169E+04</pdfrwt>
<totfact> 0.48814617E+01</totfact>
</mgrwt>
</event>
<event>
 6    1  0.1885829E-005  0.6243880E+04  0.7818608E-02  0.7660878E-01
          2   -1    0    0  501    0  0.00000000000E+00  0.00000000000E+00  0.24180249620E+04  0.24180249620E+04  0.00000000000E+00 0. -1.
         -2   -1    0    0    0  501 -0.00000000000E+00 -0.00000000000E+00 -0.40307728806E+04  0.40307728806E+04  0.00000000000E+00 0.  1.
         23    2    1    2    0    0  0.22384837534E+04 -0.11497965789E+03 -0.30499686839E+04  0.37861612987E+04  0.93158847576E+02 0.  0.
         11    1    3    3    0    0  0.70940815393E+03 -0.35632092901E+00 -0.10056069596E+04  0.12306524339E+04  0.00000000000E+00 0. -1.
        -11    1    3    3    0    0  0.15290755995E+04 -0.11462333696E+03 -0.20443617244E+04  0.25555088649E+04  0.00000000000E+00 0.  1.
         22    1    1    2    0    0 -0.22384837534E+04  0.11497965789E+03  0.14372207653E+04  0.26626365438E+04  0.00000000000E+00 0. -1.
<mgrwt>
<rscale>  0 0.62438800E+04</rscale>
<asrwt>0</asrwt>
<pdfrwt beam="1">  1        2 0.37200384E+00 0.62438800E+04</pdfrwt>
<pdfrwt beam="2">  1       -2 0.62011891E+00 0.62438800E+04</pdfrwt>
<totfact> 0.11193888E-03</totfact>
</mgrwt>
</event>
<event>
 6    1  0.1885829E-005  0.3115670E+04  0.7818608E-02  0.8211450E-01
          2   -1    0    0  501    0  0.00000000000E+00  0.00000000000E+00  0.15273918284E+04  0.15273918284E+04  0.00000000000E+00 0. -1.
         -2   -1    0    0    0  501 -0.00000000000E+00 -0.00000000000E+00 -0.15888853822E+04  0.15888853822E+04  0.00000000000E+00 0.  1.
         23    2    1    2    0    0  0.42297663858E+03  0.14217686891E+04 -0.50257723696E+03  0.15687339130E+04  0.89480548648E+02 0.  0.
         11    1    3    3    0    0  0.19701119910E+03  0.60612695461E+03 -0.17239419127E+03  0.66024469317E+03  0.00000000000E+00 0.  1.
        -11    1    3    3    0    0  0.22596543948E+03  0.81564173454E+03 -0.33018304569E+03  0.90848921987E+03  0.00000000000E+00 0. -1.
         22    1    1    2    0    0 -0.42297663858E+03 -0.14217686891E+04  0.44108368315E+03  0.15475432975E+04  0.00000000000E+00 0. -1.
<mgrwt>
<rscale>  0 0.31156704E+04</rscale>
<asrwt>0</asrwt>
<pdfrwt beam="1">  1        2 0.23498336E+00 0.31156704E+04</pdfrwt>
<pdfrwt beam="2">  1       -2 0.24444391E+00 0.31156704E+04</pdfrwt>
<totfact> 0.72227388E-01</totfact>
</mgrwt>
</event>
<event>
 6    1  0.1885829E-005  0.2065431E+04  0.7818608E-02  0.8576626E-01
         -2   -1    0    0    0  501 -0.00000000000E+00  0.00000000000E+00  0.37103917020E+03  0.37103917020E+03  0.00000000000E+00 0.  1.
          2   -1    0    0  501    0  0.00000000000E+00 -0.00000000000E+00 -0.28743637053E+04  0.28743637053E+04  0.00000000000E+00 0. -1.
         23    2    1    2    0    0  0.91267187450E+03  0.23859199923E+03 -0.19066283984E+04  0.21291849881E+04  0.91108569034E+02 0.  0.
         13    1    3    3    0    0  0.51413895858E+03  0.18094732390E+03 -0.10980754544E+04  0.12259080334E+04  0.00000000000E+00 0.  1.
        -13    1    3    3    0    0  0.39853291592E+03  0.57644675323E+02 -0.80855294396E+03  0.90327695468E+03  0.00000000000E+00 0. -1.
         22    1    1    2    0    0 -0.91267187450E+03 -0.23859199923E+03 -0.59669613670E+03  0.11162178874E+04  0.00000000000E+00 0.  1.
<mgrwt>
<rscale>  0 0.20654312E+04</rscale>
<asrwt>0</asrwt>
<pdfrwt beam="1">  1        2 0.44220980E+00 0.20654312E+04</pdfrwt>
<pdfrwt beam="2">  1       -2 0.57082949E-01 0.20654312E+04</pdfrwt>
<totfact> 0.55464885E+00</totfact>
</mgrwt>
</event>
<event>
 6    1  0.2136366E-005  0.4206196E+04  0.7818608E-02  0.7964195E-01
          2   -1    0    0  501    0  0.00000000000E+00  0.00000000000E+00  0.22619021495E+04  0.22619021495E+04  0.00000000000E+00 0. -1.
         -2   -1    0    0    0  501 -0.00000000000E+00 -0.00000000000E+00 -0.19554433213E+04  0.19554433213E+04  0.00000000000E+00 0.  1.
         23    2    1    2    0    0  0.13972328715E+04  0.64030742870E+03  0.15911711803E+04  0.22141632205E+04  0.91868064834E+02 0.  0.
         13    1    3    3    0    0  0.55654210482E+03  0.23273057380E+03  0.56724081288E+03  0.82804877527E+03  0.00000000000E+00 0.  1.
        -13    1    3    3    0    0  0.84069076665E+03  0.40757685490E+03  0.10239303675E+04  0.13861144452E+04  0.00000000000E+00 0. -1.
         22    1    1    2    0    0 -0.13972328715E+04 -0.64030742870E+03 -0.12847123521E+04  0.20031822503E+04  0.00000000000E+00 0.  1.
<mgrwt>
<rscale>  0 0.42061961E+04</rscale>
<asrwt>0</asrwt>
<pdfrwt beam="1">  1        2 0.34798495E+00 0.42061961E+04</pdfrwt>
<pdfrwt beam="2">  1       -2 0.30083743E+00 0.42061961E+04</pdfrwt>
<totfact> 0.11612385E-01</totfact>
</mgrwt>
</event>
<event>
 6    1  0.1885829E-005  0.4358657E+04  0.7818608E-02  0.7935860E-01
          2   -1    0    0  501    0  0.00000000000E+00  0.00000000000E+00  0.20219984879E+04  0.20219984879E+04  0.00000000000E+00 0. -1.
         -2   -1    0    0    0  501 -0.00000000000E+00 -0.00000000000E+00 -0.23488998122E+04  0.23488998122E+04  0.00000000000E+00 0.  1.
         23    2    1    2    0    0  0.17301028319E+04  0.50942986968E+03 -0.13886632407E+04  0.22780263574E+04  0.90795857863E+02 0.  0.
         11    1    3    3    0    0  0.57820000170E+03  0.12733941083E+03 -0.44144709298E+03  0.73851614974E+03  0.00000000000E+00 0. -1.
        -11    1    3    3    0    0  0.11519028302E+04  0.38209045885E+03 -0.94721614776E+03  0.15395102077E+04  0.00000000000E+00 0.  1.
         22    1    1    2    0    0 -0.17301028319E+04 -0.50942986968E+03  0.10617619164E+04  0.20928719427E+04  0.00000000000E+00 0. -1.
<mgrwt>
<rscale>  0 0.43586566E+04</rscale>
<asrwt>0</asrwt>
<pdfrwt beam="1">  1        2 0.31107669E+00 0.43586566E+04</pdfrwt>
<pdfrwt beam="2">  1       -2 0.36136920E+00 0.43586566E+04</pdfrwt>
<totfact> 0.65606479E-02</totfact>
</mgrwt>
</event>
<event>
 6    1  0.1885829E-005  0.4638879E+04  0.7818608E-02  0.7886764E-01
          2   -1    0    0  501    0  0.00000000000E+00  0.00000000000E+00  0.38459693504E+04  0.38459693504E+04  0.00000000000E+00 0. -1.
         -2   -1    0    0    0  501 -0.00000000000E+00 -0.00000000000E+00 -0.13988151718E+04  0.13988151718E+04  0.00000000000E+00 0.  1.
         23    2    1    2    0    0 -0.58863567360E+03  0.70707710204E+03 -0.11821803591E+04  0.15006532250E+04  0.89217239193E+02 0.  0.
         13    1    3    3    0    0 -0.23653820156E+03  0.31430319312E+03 -0.57008361812E+03  0.69262699171E+03  0.00000000000E+00 0.  1.
        -13    1    3    3    0    0 -0.35209747204E+03  0.39277390891E+03 -0.61209674099E+03  0.80802623328E+03  0.00000000000E+00 0. -1.
         22    1    1    2    0    0  0.58863567360E+03 -0.70707710204E+03  0.36293345377E+04  0.37441312972E+04  0.00000000000E+00 0. -1.
<mgrwt>
<rscale>  0 0.46388793E+04</rscale>
<asrwt>0</asrwt>
<pdfrwt beam="1">  1        2 0.59168759E+00 0.46388793E+04</pdfrwt>
<pdfrwt beam="2">  1       -2 0.21520234E+00 0.46388793E+04</pdfrwt>
<totfact> 0.35853605E-02</totfact>
</mgrwt>
</event>
<event>
 6    1  0.1885829E-005  0.1262741E+04  0.7818608E-02  0.9059645E-01
          2   -1    0    0  501    0  0.00000000000E+00  0.00000000000E+00  0.10956694811E+04  0.10956694811E+04  0.00000000000E+00 0. -1.
         -2   -1    0    0    0  501 -0.00000000000E+00 -0.00000000000E+00 -0.36382219090E+03  0.36382219090E+03  0.00000000000E+00 0.  1.
         23    2    1    2    0    0  0.39356826472E+03  0.48480252871E+03  0.44540416580E+03  0.77248429624E+03  0.91747731181E+02 0.  0.
         11    1    3    3    0    0  0.30780623682E+03  0.40042400242E+03  0.31588542614E+03  0.59570769979E+03  0.00000000000E+00 0. -1.
        -11    1    3    3    0    0  0.85762027904E+02  0.84378526296E+02  0.12951873966E+03  0.17677659645E+03  0.00000000000E+00 0.  1.
         22    1    1    2    0    0 -0.39356826472E+03 -0.48480252871E+03  0.28644312439E+03  0.68700737576E+03  0.00000000000E+00 0. -1.
<mgrwt>
<rscale>  0 0.12627413E+04</rscale>
<asrwt>0</asrwt>
<pdfrwt beam="1">  1        2 0.16856453E+00 0.12627413E+04</pdfrwt>
<pdfrwt beam="2">  1       -2 0.55972645E-01 0.12627413E+04</pdfrwt>
<totfact> 0.64563372E+01</totfact>
</mgrwt>
</event>
<event>
 6    1  0.1885829E-005  0.1496768E+04  0.7818608E-02  0.8886605E-01
         -2   -1    0    0    0  501 -0.00000000000E+00  0.00000000000E+00  0.59131828519E+03  0.59131828519E+03  0.00000000000E+00 0.  1.
          2   -1    0    0  501    0  0.00000000000E+00 -0.00000000000E+00 -0.94716900470E+03  0.94716900470E+03  0.00000000000E+00 0. -1.
         23    2    1    2    0    0  0.30661519984E+03  0.19193454810E+03  0.49164164371E+03  0.61702374897E+03  0.90305312316E+02 0.  0.
         11    1    3    3    0    0  0.11833622153E+03  0.25851938748E+02  0.14327816925E+03  0.18761774396E+03  0.00000000000E+00 0.  1.
        -11    1    3    3    0    0  0.18827897831E+03  0.16608260935E+03  0.34836347446E+03  0.42940600501E+03  0.00000000000E+00 0. -1.
         22    1    1    2    0    0 -0.30661519984E+03 -0.19193454810E+03 -0.84749236322E+03  0.92146354092E+03  0.00000000000E+00 0. -1.
<mgrwt>
<rscale>  0 0.14967677E+04</rscale>
<asrwt>0</asrwt>
<pdfrwt beam="1">  1        2 0.14571831E+00 0.14967677E+04</pdfrwt>
<pdfrwt beam="2">  1       -2 0.90972045E-01 0.14967677E+04</pdfrwt>
<totfact> 0.27172200E+01</totfact>
</mgrwt>
</event>
<event>
 6    1  0.1885829E-005  0.2027848E+04  0.7818608E-02  0.8593710E-01
         -2   -1    0    0    0  501 -0.00000000000E+00  0.00000000000E+00  0.22730069730E+03  0.22730069730E+03  0.00000000000E+00 0.  1.
          2   -1    0    0  501    0  0.00000000000E+00 -0.00000000000E+00 -0.45228278165E+04  0.45228278165E+04  0.00000000000E+00 0. -1.
         23    2    1    2    0    0 -0.86710721854E+03 -0.51520460306E+03 -0.23677804165E+04  0.25744635439E+04  0.64557932804E+02 0.  0.
         13    1    3    3    0    0 -0.94986036683E+02 -0.36715740434E+02 -0.26360951110E+03  0.28259576625E+03  0.00000000000E+00 0. -1.
        -13    1    3    3    0    0 -0.77212118186E+03 -0.47848886263E+03 -0.21041709054E+04  0.22918677777E+04  0.00000000000E+00 0.  1.
         22    1    1    2    0    0  0.86710721854E+03  0.51520460306E+03 -0.19277467027E+04  0.21756649699E+04  0.00000000000E+00 0.  1.
<mgrwt>
<rscale>  0 0.20278480E+04</rscale>
<asrwt>0</asrwt>
<pdfrwt beam="1">  1        2 0.69581963E+00 0.20278480E+04</pdfrwt>
<pdfrwt beam="2">  1       -2 0.34969340E-01 0.20278480E+04</pdfrwt>
<totfact> 0.84491529E-01</totfact>
</mgrwt>
</event>
<event>
 6    1  0.1885829E-005  0.1645030E+04  0.7818608E-02  0.8793352E-01
         -2   -1    0    0    0  501 -0.00000000000E+00  0.00000000000E+00  0.50115848131E+03  0.50115848131E+03  0.00000000000E+00 0.  1.
          2   -1    0    0  501    0  0.00000000000E+00 -0.00000000000E+00 -0.13499347754E+04  0.13499347754E+04  0.00000000000E+00 0. -1.
         23    2    1    2    0    0  0.72614251654E+03  0.56538798288E+02 -0.84932476303E+03  0.11227527519E+04  0.93496517677E+02 0.  0.
         13    1    3    3    0    0  0.20812927412E+03  0.66038020326E+01 -0.30853163216E+03  0.37222731360E+03  0.00000000000E+00 0. -1.
        -13    1    3    3    0    0  0.51801324242E+03  0.49934996255E+02 -0.54079313087E+03  0.75052543833E+03  0.00000000000E+00 0.  1.
         22    1    1    2    0    0 -0.72614251654E+03 -0.56538798288E+02  0.54846896872E+00  0.72834050475E+03  0.00000000000E+00 0.  1.
<mgrwt>
<rscale>  0 0.16450304E+04</rscale>
<asrwt>0</asrwt>
<pdfrwt beam="1">  1        2 0.20768227E+00 0.16450304E+04</pdfrwt>
<pdfrwt beam="2">  1       -2 0.77101306E-01 0.16450304E+04</pdfrwt>
<totfact> 0.22189165E+01</totfact>
</mgrwt>
</event>
<event>
 6    1  0.1885829E-005  0.3255005E+04  0.7818608E-02  0.8174440E-01
         -1   -1    0    0    0  501 -0.00000000000E+00  0.00000000000E+00  0.15905553773E+04  0.15905553773E+04  0.00000000000E+00 0.  1.
          1   -1    0    0  501    0  0.00000000000E+00 -0.00000000000E+00 -0.16653079167E+04  0.16653079167E+04  0.00000000000E+00 0. -1.
         23    2    1    2    0    0  0.12262897579E+04 -0.94087484448E+03 -0.54233697703E+03  0.16410359814E+04  0.99184940588E+02 0.  0.
         11    1    3    3    0    0  0.36266569290E+03 -0.26388251879E+03 -0.11163347202E+03  0.46219305556E+03  0.00000000000E+00 0. -1.
        -11    1    3    3    0    0  0.86362406500E+03 -0.67699232569E+03 -0.43070350501E+03  0.11788429259E+04  0.00000000000E+00 0.  1.
         22    1    1    2    0    0 -0.12262897579E+04  0.94087484448E+03  0.46758443762E+03  0.16148273126E+04  0.00000000000E+00 0.  1.
<mgrwt>
<rscale>  0 0.32550050E+04</rscale>
<asrwt>0</asrwt>
<pdfrwt beam="1">  1        1 0.25620122E+00 0.32550050E+04</pdfrwt>
<pdfrwt beam="2">  1       -1 0.24470083E+00 0.32550050E+04</pdfrwt>
<totfact> 0.31653901E-01</totfact>
</mgrwt>
</event>
<event>
 6    1  0.1885829E-005  0.1119485E+04  0.7818608E-02  0.9186406E-01
          2   -1    0    0  501    0  0.00000000000E+00  0.00000000000E+00  0.13534897286E+04  0.13534897286E+04  0.00000000000E+00 0. -1.
         -2   -1    0    0    0  501 -0.00000000000E+00 -0.00000000000E+00 -0.23148419378E+03  0.23148419378E+03  0.00000000000E+00 0.  1.
         23    2    1    2    0    0 -0.51007784649E+03 -0.17105089420E+03  0.76340396890E+03  0.93841928359E+03  0.91691407441E+02 0.  0.
         11    1    3    3    0    0 -0.22230085450E+03 -0.31888854703E+02  0.28096241544E+03  0.35968659671E+03  0.00000000000E+00 0.  1.
        -11    1    3    3    0    0 -0.28777699198E+03 -0.13916203949E+03  0.48244155346E+03  0.57873268687E+03  0.00000000000E+00 0. -1.
         22    1    1    2    0    0  0.51007784649E+03  0.17105089420E+03  0.35860156595E+03  0.64655463883E+03  0.00000000000E+00 0.  1.
<mgrwt>
<rscale>  0 0.11194847E+04</rscale>
<asrwt>0</asrwt>
<pdfrwt beam="1">  1        2 0.20822918E+00 0.11194847E+04</pdfrwt>
<pdfrwt beam="2">  1       -2 0.35612954E-01 0.11194847E+04</pdfrwt>
<totfact> 0.11299565E+02</totfact>
</mgrwt>
</event>
<event>
 6    1  0.1885829E-005  0.3795731E+04  0.7818608E-02  0.8047072E-01
         -2   -1    0    0    0  501 -0.00000000000E+00  0.00000000000E+00  0.15959250155E+04  0.15959250155E+04  0.00000000000E+00 0.  1.
          2   -1    0    0  501    0  0.00000000000E+00 -0.00000000000E+00 -0.22569315560E+04  0.22569315560E+04  0.00000000000E+00 0. -1.
         23    2    1    2    0    0  0.65779314212E+03  0.41629009335E+02  0.14744970248E+04  0.16179515915E+04  0.95922280316E+02 0.  0.
         11    1    3    3    0    0  0.42835807629E+03 -0.41654580963E+01  0.10328393932E+04  0.11181525856E+04  0.00000000000E+00 0.  1.
        -11    1    3    3    0    0  0.22943506583E+03  0.45794467431E+02  0.44165763169E+03  0.49979900591E+03  0.00000000000E+00 0. -1.
         22    1    1    2    0    0 -0.65779314212E+03 -0.41629009335E+02 -0.21355035653E+04  0.22349049800E+04  0.00000000000E+00 0. -1.
<mgrwt>
<rscale>  0 0.37957310E+04</rscale>
<asrwt>0</asrwt>
<pdfrwt beam="1">  1        2 0.34722024E+00 0.37957310E+04</pdfrwt>
<pdfrwt beam="2">  1       -2 0.24552693E+00 0.37957310E+04</pdfrwt>
<totfact> 0.26339994E-01</totfact>
</mgrwt>
</event>
<event>
 6    1  0.1885829E-005  0.1435274E+04  0.7818608E-02  0.8928674E-01
          2   -1    0    0  501    0  0.00000000000E+00  0.00000000000E+00  0.26513459444E+03  0.26513459444E+03  0.00000000000E+00 0. -1.
         -2   -1    0    0    0  501 -0.00000000000E+00 -0.00000000000E+00 -0.19424201786E+04  0.19424201786E+04  0.00000000000E+00 0.  1.
         23    2    1    2    0    0 -0.31975584760E+03 -0.18569890857E+03 -0.17827088344E+04  0.18230525644E+04  0.93498544753E+02 0.  0.
         13    1    3    3    0    0 -0.20948104954E+03 -0.11819778562E+03 -0.93015409498E+03  0.96074953398E+03  0.00000000000E+00 0.  1.
        -13    1    3    3    0    0 -0.11027479806E+03 -0.67501122953E+02 -0.85255473938E+03  0.86230303045E+03  0.00000000000E+00 0. -1.
         22    1    1    2    0    0  0.31975584760E+03  0.18569890857E+03  0.10542325022E+03  0.38450220858E+03  0.00000000000E+00 0. -1.
<mgrwt>
<rscale>  0 0.14352739E+04</rscale>
<asrwt>0</asrwt>
<pdfrwt beam="1">  1        2 0.40789938E-01 0.14352739E+04</pdfrwt>
<pdfrwt beam="2">  1       -2 0.29883387E+00 0.14352739E+04</pdfrwt>
<totfact> 0.39703496E+00</totfact>
</mgrwt>
</event>
<event>
 6    1  0.1885829E-005  0.2787146E+04  0.7818608E-02  0.8307270E-01
         -2   -1    0    0    0  501 -0.00000000000E+00  0.00000000000E+00  0.12016027301E+04  0.12016027301E+04  0.00000000000E+00 0. -1.
          2   -1    0    0  501    0  0.00000000000E+00 -0.00000000000E+00 -0.16162131911E+04  0.16162131911E+04  0.00000000000E+00 0.  1.
         23    2    1    2    0    0  0.60205488791E+03  0.22908747824E+02  0.10611352893E+04  0.12238208088E+04  0.93457857839E+02 0.  0.
         11    1    3    3    0    0  0.21460171438E+03  0.23118182315E+02  0.29794714543E+03  0.36791418516E+03  0.00000000000E+00 0. -1.
        -11    1    3    3    0    0  0.38745317353E+03 -0.20943449107E+00  0.76318814384E+03  0.85590662367E+03  0.00000000000E+00 0.  1.
         22    1    1    2    0    0 -0.60205488791E+03 -0.22908747824E+02 -0.14757457503E+04  0.15939951124E+04  0.00000000000E+00 0.  1.
<mgrwt>
<rscale>  0 0.27871463E+04</rscale>
<asrwt>0</asrwt>
<pdfrwt beam="1">  1        2 0.24864818E+00 0.27871463E+04</pdfrwt>
<pdfrwt beam="2">  1       -2 0.18486196E+00 0.27871463E+04</pdfrwt>
<totfact> 0.15976518E+00</totfact>
</mgrwt>
</event>
<event>
 6    1  0.1885829E-005  0.1216930E+04  0.7818608E-02  0.9098165E-01
         -2   -1    0    0    0  501 -0.00000000000E+00  0.00000000000E+00  0.42805490736E+03  0.42805490736E+03  0.00000000000E+00 0.  1.
          2   -1    0    0  501    0  0.00000000000E+00 -0.00000000000E+00 -0.86491195100E+03  0.86491195100E+03  0.00000000000E+00 0. -1.
         23    2    1    2    0    0 -0.75539789295E+02 -0.23861399312E+03 -0.80466852941E+03  0.84807565082E+03  0.95383278392E+02 0.  0.
         11    1    3    3    0    0  0.34388040044E+01 -0.13869755599E+03 -0.37105752820E+03  0.39614710228E+03  0.00000000000E+00 0.  1.
        -11    1    3    3    0    0 -0.78978593300E+02 -0.99916437138E+02 -0.43361100121E+03  0.45192854853E+03  0.00000000000E+00 0. -1.
         22    1    1    2    0    0  0.75539789295E+02  0.23861399312E+03  0.36781148578E+03  0.44489120755E+03  0.00000000000E+00 0.  1.
<mgrwt>
<rscale>  0 0.12169302E+04</rscale>
<asrwt>0</asrwt>
<pdfrwt beam="1">  1        2 0.13306338E+00 0.12169302E+04</pdfrwt>
<pdfrwt beam="2">  1       -2 0.65854602E-01 0.12169302E+04</pdfrwt>
<totfact> 0.64855583E+01</totfact>
</mgrwt>
</event>
<event>
 6    1  0.1885829E-005  0.2851847E+04  0.7818608E-02  0.8287350E-01
          2   -1    0    0  501    0  0.00000000000E+00  0.00000000000E+00  0.29268829620E+04  0.29268829620E+04  0.00000000000E+00 0. -1.
         -2   -1    0    0    0  501 -0.00000000000E+00 -0.00000000000E+00 -0.69468364443E+03  0.69468364443E+03  0.00000000000E+00 0.  1.
         23    2    1    2    0    0 -0.14206144417E+04  0.69320763776E+02  0.12153838944E+04  0.18731775293E+04  0.93194876721E+02 0.  0.
         13    1    3    3    0    0 -0.59364944588E+03  0.64579088497E+02  0.54809596010E+03  0.81055493629E+03  0.00000000000E+00 0. -1.
        -13    1    3    3    0    0 -0.82696499586E+03  0.47416752792E+01  0.66728793427E+03  0.10626225930E+04  0.00000000000E+00 0.  1.
         22    1    1    2    0    0  0.14206144417E+04 -0.69320763776E+02  0.10168154232E+04  0.17483890772E+04  0.00000000000E+00 0. -1.
<mgrwt>
<rscale>  0 0.28518469E+04</rscale>
<asrwt>0</asrwt>
<pdfrwt beam="1">  1        2 0.45028968E+00 0.28518469E+04</pdfrwt>
<pdfrwt beam="2">  1       -2 0.10687441E+00 0.28518469E+04</pdfrwt>
<totfact> 0.11797590E+00</totfact>
</mgrwt>
</event>
<event>
 6    1  0.1885829E-005  0.1172111E+04  0.7818608E-02  0.9137625E-01
         -2   -1    0    0    0  501 -0.00000000000E+00  0.00000000000E+00  0.31996152358E+03  0.31996152358E+03  0.00000000000E+00 0.  1.
          2   -1    0    0  501    0  0.00000000000E+00 -0.00000000000E+00 -0.10734439823E+04  0.10734439823E+04  0.00000000000E+00 0. -1.
         23    2    1    2    0    0 -0.54505240233E+02  0.52534836974E+02 -0.10656598799E+04  0.10721805495E+04  0.90605853585E+02 0.  0.
         13    1    3    3    0    0 -0.37997857807E+02  0.83811490754E+01 -0.13959385467E+03  0.14491557929E+03  0.00000000000E+00 0.  1.
        -13    1    3    3    0    0 -0.16507382426E+02  0.44153687899E+02 -0.92606602526E+03  0.92726497021E+03  0.00000000000E+00 0. -1.
         22    1    1    2    0    0  0.54505240233E+02 -0.52534836974E+02  0.31217742120E+03  0.32122495641E+03  0.00000000000E+00 0.  1.
<mgrwt>
<rscale>  0 0.11721105E+04</rscale>
<asrwt>0</asrwt>
<pdfrwt beam="1">  1        2 0.16514523E+00 0.11721105E+04</pdfrwt>
<pdfrwt beam="2">  1       -2 0.49224849E-01 0.11721105E+04</pdfrwt>
<totfact> 0.87369421E+01</totfact>
</mgrwt>
</event>
<event>
 6    1  0.1885829E-005  0.1892415E+04  0.7818608E-02  0.8658641E-01
          2   -1    0    0  501    0  0.00000000000E+00  0.00000000000E+00  0.64781806151E+03  0.64781806151E+03  0.00000000000E+00 0. -1.
         -2   -1    0    0    0  501 -0.00000000000E+00 -0.00000000000E+00 -0.13820369732E+04  0.13820369732E+04  0.00000000000E+00 0.  1.
         23    2    1    2    0    0  0.31337238403E+03 -0.21665224450E+03 -0.12944463697E+04  0.13523631523E+04  0.90300860582E+02 0.  0.
         11    1    3    3    0    0  0.11450786604E+03 -0.10465424886E+03 -0.39391943849E+03  0.42336401266E+03  0.00000000000E+00 0.  1.
        -11    1    3    3    0    0  0.19886451799E+03 -0.11199799564E+03 -0.90052693122E+03  0.92899913961E+03  0.00000000000E+00 0. -1.
         22    1    1    2    0    0 -0.31337238403E+03  0.21665224450E+03  0.56022745800E+03  0.67749188247E+03  0.00000000000E+00 0. -1.
<mgrwt>
<rscale>  0 0.18924149E+04</rscale>
<asrwt>0</asrwt>
<pdfrwt beam="1">  1        2 0.99664318E-01 0.18924149E+04</pdfrwt>
<pdfrwt beam="2">  1       -2 0.21262107E+00 0.18924149E+04</pdfrwt>
<totfact> 0.46574325E+00</totfact>
</mgrwt>
</event>
<event>
 6    1  0.2029517E-005  0.2532464E+04  0.7818608E-02  0.8391510E-01
         -2   -1    0    0    0  501 -0.00000000000E+00  0.00000000000E+00  0.85797730293E+03  0.85797730293E+03  0.00000000000E+00 0.  1.
          2   -1    0    0  501    0  0.00000000000E+00 -0.00000000000E+00 -0.18687485642E+04  0.18687485642E+04  0.00000000000E+00 0. -1.
         23    2    1    2    0    0  0.20672774184E+02  0.51875496640E+03  0.73552251118E+03  0.90489271932E+03  0.91122940379E+02 0.  0.
         11    1    3    3    0    0 -0.28676534568E+01  0.29256240844E+03  0.48611772986E+03  0.56737239407E+03  0.00000000000E+00 0.  1.
        -11    1    3    3    0    0  0.23540427641E+02  0.22619255796E+03  0.24940478132E+03  0.33752032525E+03  0.00000000000E+00 0. -1.
         22    1    1    2    0    0 -0.20672774184E+02 -0.51875496640E+03 -0.17462937724E+04  0.18218331478E+04  0.00000000000E+00 0. -1.
<mgrwt>
<rscale>  0 0.25324643E+04</rscale>
<asrwt>0</asrwt>
<pdfrwt beam="1">  1        2 0.28749978E+00 0.25324643E+04</pdfrwt>
<pdfrwt beam="2">  1       -2 0.13199651E+00 0.25324643E+04</pdfrwt>
<totfact> 0.29373589E+00</totfact>
</mgrwt>
</event>
<event>
 6    1  0.1885829E-005  0.2752849E+04  0.7818608E-02  0.8318058E-01
         -2   -1    0    0    0  501 -0.00000000000E+00  0.00000000000E+00  0.11253435743E+04  0.11253435743E+04  0.00000000000E+00 0. -1.
          2   -1    0    0  501    0  0.00000000000E+00 -0.00000000000E+00 -0.16835251588E+04  0.16835251588E+04  0.00000000000E+00 0.  1.
         23    2    1    2    0    0 -0.13555457135E+04  0.62032892095E+02 -0.55566410739E+02  0.13618116250E+04  0.10045404258E+03 0.  0.
         13    1    3    3    0    0 -0.18862933956E+03  0.24573728622E+02  0.23239185622E+02  0.19163756320E+03  0.00000000000E+00 0. -1.
        -13    1    3    3    0    0 -0.11669163740E+04  0.37459163473E+02 -0.78805596362E+02  0.11701740618E+04  0.00000000000E+00 0.  1.
         22    1    1    2    0    0  0.13555457135E+04 -0.62032892095E+02 -0.50261517381E+03  0.14470571081E+04  0.00000000000E+00 0.  1.
<mgrwt>
<rscale>  0 0.27528489E+04</rscale>
<asrwt>0</asrwt>
<pdfrwt beam="1">  1        2 0.25900387E+00 0.27528489E+04</pdfrwt>
<pdfrwt beam="2">  1       -2 0.17312978E+00 0.27528489E+04</pdfrwt>
<totfact> 0.17722902E+00</totfact>
</mgrwt>
</event>
<event>
 6    1  0.1885829E-005  0.1256972E+04  0.7818608E-02  0.9064401E-01
          1   -1    0    0  501    0  0.00000000000E+00  0.00000000000E+00  0.21439495013E+04  0.21439495013E+04  0.00000000000E+00 0. -1.
         -1   -1    0    0    0  501 -0.00000000000E+00 -0.00000000000E+00 -0.18423682775E+03  0.18423682775E+03  0.00000000000E+00 0.  1.
         23    2    1    2    0    0  0.61644965736E+03  0.10341029421E+03  0.10096511239E+04  0.11909436913E+04  0.90816379688E+02 0.  0.
         13    1    3    3    0    0  0.58361250315E+03  0.85870676712E+02  0.90903613668E+03  0.10836623204E+04  0.00000000000E+00 0. -1.
        -13    1    3    3    0    0  0.32837154214E+02  0.17539617497E+02  0.10061498719E+03  0.10728137083E+03  0.00000000000E+00 0.  1.
         22    1    1    2    0    0 -0.61644965736E+03 -0.10341029421E+03  0.95006154970E+03  0.11372426378E+04  0.00000000000E+00 0. -1.
<mgrwt>
<rscale>  0 0.12569717E+04</rscale>
<asrwt>0</asrwt>
<pdfrwt beam="1">  1        1 0.32983837E+00 0.12569717E+04</pdfrwt>
<pdfrwt beam="2">  1       -1 0.28344129E-01 0.12569717E+04</pdfrwt>
<totfact> 0.26489775E+01</totfact>
</mgrwt>
</event>
<event>
 6    1  0.1885829E-005  0.3243810E+04  0.7818608E-02  0.8177342E-01
          2   -1    0    0  501    0  0.00000000000E+00  0.00000000000E+00  0.27695272729E+04  0.27695272729E+04  0.00000000000E+00 0. -1.
         -2   -1    0    0    0  501 -0.00000000000E+00 -0.00000000000E+00 -0.94982859021E+03  0.94982859021E+03  0.00000000000E+00 0.  1.
         23    2    1    2    0    0  0.57274460369E+03  0.11017597263E+04  0.21046962442E+04  0.24453329097E+04  0.89419703787E+02 0.  0.
         11    1    3    3    0    0  0.13260652984E+03  0.34343951843E+03  0.62573123770E+03  0.72599915730E+03  0.00000000000E+00 0. -1.
        -11    1    3    3    0    0  0.44013807385E+03  0.75832020789E+03  0.14789650065E+04  0.17193337524E+04  0.00000000000E+00 0.  1.
         22    1    1    2    0    0 -0.57274460369E+03 -0.11017597263E+04 -0.28499756154E+03  0.12740229534E+04  0.00000000000E+00 0.  1.
<mgrwt>
<rscale>  0 0.32438102E+04</rscale>
<asrwt>0</asrwt>
<pdfrwt beam="1">  1        2 0.42608112E+00 0.32438102E+04</pdfrwt>
<pdfrwt beam="2">  1       -2 0.14612748E+00 0.32438102E+04</pdfrwt>
<totfact> 0.64961310E-01</totfact>
</mgrwt>
</event>
<event>
 6    1  0.1885829E-005  0.3672543E+04  0.7818608E-02  0.8074074E-01
          1   -1    0    0  501    0  0.00000000000E+00  0.00000000000E+00  0.37040824012E+04  0.37040824012E+04  0.00000000000E+00 0. -1.
         -1   -1    0    0    0  501 -0.00000000000E+00 -0.00000000000E+00 -0.91031800552E+03  0.91031800552E+03  0.00000000000E+00 0.  1.
         23    2    1    2    0    0  0.14207381416E+04 -0.71248765949E+03  0.24501279050E+03  0.16106909872E+04  0.90325283191E+02 0.  0.
         11    1    3    3    0    0  0.33963269755E+03 -0.19085481807E+03  0.94849043650E+02  0.40096417783E+03  0.00000000000E+00 0. -1.
        -11    1    3    3    0    0  0.10811054441E+04 -0.52163284142E+03  0.15016374685E+03  0.12097268094E+04  0.00000000000E+00 0.  1.
         22    1    1    2    0    0 -0.14207381416E+04  0.71248765949E+03  0.25487516051E+04  0.30037094195E+04  0.00000000000E+00 0.  1.
<mgrwt>
<rscale>  0 0.36725429E+04</rscale>
<asrwt>0</asrwt>
<pdfrwt beam="1">  1        1 0.56985882E+00 0.36725429E+04</pdfrwt>
<pdfrwt beam="2">  1       -1 0.14004893E+00 0.36725429E+04</pdfrwt>
<totfact> 0.57537684E-02</totfact>
</mgrwt>
</event>
<event>
 6    1  0.1885829E-005  0.3196655E+04  0.7818608E-02  0.8189701E-01
         -2   -1    0    0    0  501 -0.00000000000E+00  0.00000000000E+00  0.92898978077E+03  0.92898978077E+03  0.00000000000E+00 0.  1.
          2   -1    0    0  501    0  0.00000000000E+00 -0.00000000000E+00 -0.27499232199E+04  0.27499232199E+04  0.00000000000E+00 0. -1.
         23    2    1    2    0    0 -0.13768538788E+04 -0.44165495791E+03 -0.13231712917E+03  0.14558046480E+04  0.10523138883E+03 0.  0.
         11    1    3    3    0    0 -0.91610221043E+03 -0.28468475292E+03 -0.38496016827E+02  0.96008885621E+03  0.00000000000E+00 0.  1.
        -11    1    3    3    0    0 -0.46075166835E+03 -0.15697020499E+03 -0.93821112347E+02  0.49571579183E+03  0.00000000000E+00 0. -1.
         22    1    1    2    0    0  0.13768538788E+04  0.44165495791E+03 -0.16886163100E+04  0.22231083527E+04  0.00000000000E+00 0. -1.
<mgrwt>
<rscale>  0 0.31966549E+04</rscale>
<asrwt>0</asrwt>
<pdfrwt beam="1">  1        2 0.42306511E+00 0.31966549E+04</pdfrwt>
<pdfrwt beam="2">  1       -2 0.14292150E+00 0.31966549E+04</pdfrwt>
<totfact> 0.71028905E-01</totfact>
</mgrwt>
</event>
<event>
 6    1  0.1885829E-005  0.7387989E+03  0.7818608E-02  0.9653089E-01
         -2   -1    0    0    0  501 -0.00000000000E+00  0.00000000000E+00  0.45422785058E+02  0.45422785058E+02  0.00000000000E+00 0.  1.
          2   -1    0    0  501    0  0.00000000000E+00 -0.00000000000E+00 -0.30041301586E+04  0.30041301586E+04  0.00000000000E+00 0. -1.
         23    2    1    2    0    0 -0.15589626244E+03  0.32296489814E+03 -0.17516615950E+04  0.17903589628E+04  0.91961415749E+02 0.  0.
         11    1    3    3    0    0 -0.29203938657E+02  0.16088849478E+03 -0.71125918519E+03  0.72981340513E+03  0.00000000000E+00 0.  1.
        -11    1    3    3    0    0 -0.12669232379E+03  0.16207640337E+03 -0.10404024099E+04  0.10605455577E+04  0.00000000000E+00 0. -1.
         22    1    1    2    0    0  0.15589626244E+03 -0.32296489814E+03 -0.12070457785E+04  0.12591939808E+04  0.00000000000E+00 0.  1.
<mgrwt>
<rscale>  0 0.73879891E+03</rscale>
<asrwt>0</asrwt>
<pdfrwt beam="1">  1        2 0.46217398E+00 0.73879891E+03</pdfrwt>
<pdfrwt beam="2">  1       -2 0.69881191E-02 0.73879891E+03</pdfrwt>
<totfact> 0.22324517E+02</totfact>
</mgrwt>
</event>
<event>
 6    1  0.1885829E-005  0.3697799E+04  0.7818608E-02  0.8068450E-01
          2   -1    0    0  501    0  0.00000000000E+00  0.00000000000E+00  0.23874668083E+04  0.23874668083E+04  0.00000000000E+00 0. -1.
         -2   -1    0    0    0  501 -0.00000000000E+00 -0.00000000000E+00 -0.14318229519E+04  0.14318229519E+04  0.00000000000E+00 0.  1.
         23    2    1    2    0    0  0.73803516210E+03  0.11767332919E+04  0.17367476621E+04  0.22257025188E+04  0.89789306732E+02 0.  0.
         11    1    3    3    0    0  0.48551640312E+03  0.70701303047E+03  0.11108808793E+04  0.14034421723E+04  0.00000000000E+00 0. -1.
        -11    1    3    3    0    0  0.25251875898E+03  0.46972026141E+03  0.62586678280E+03  0.82226034650E+03  0.00000000000E+00 0.  1.
         22    1    1    2    0    0 -0.73803516210E+03 -0.11767332919E+04 -0.78110380573E+03  0.15935872414E+04  0.00000000000E+00 0.  1.
<mgrwt>
<rscale>  0 0.36977992E+04</rscale>
<asrwt>0</asrwt>
<pdfrwt beam="1">  1        2 0.36730259E+00 0.36977992E+04</pdfrwt>
<pdfrwt beam="2">  1       -2 0.22028045E+00 0.36977992E+04</pdfrwt>
<totfact> 0.32167122E-01</totfact>
</mgrwt>
</event>
<event>
 6    1  0.1885829E-005  0.1476101E+04  0.7818608E-02  0.8900503E-01
          1   -1    0    0  501    0  0.00000000000E+00  0.00000000000E+00  0.11822153138E+04  0.11822153138E+04  0.00000000000E+00 0.  1.
         -1   -1    0    0    0  501 -0.00000000000E+00 -0.00000000000E+00 -0.46076065650E+03  0.46076065650E+03  0.00000000000E+00 0. -1.
         23    2    1    2    0    0  0.94924424098E+02 -0.68705388561E+03  0.63390658809E+03  0.94389203226E+03  0.89671166581E+02 0.  0.
         13    1    3    3    0    0  0.79995595486E+02 -0.67408603961E+03  0.60794034429E+03  0.91125339303E+03  0.00000000000E+00 0. -1.
        -13    1    3    3    0    0  0.14928828612E+02 -0.12967846001E+02  0.25966243803E+02  0.32638639231E+02  0.00000000000E+00 0.  1.
         22    1    1    2    0    0 -0.94924424098E+02  0.68705388561E+03  0.87548069234E+02  0.69908393806E+03  0.00000000000E+00 0. -1.
<mgrwt>
<rscale>  0 0.14761007E+04</rscale>
<asrwt>0</asrwt>
<pdfrwt beam="1">  1        1 0.18187928E+00 0.14761007E+04</pdfrwt>
<pdfrwt beam="2">  1       -1 0.70886255E-01 0.14761007E+04</pdfrwt>
<totfact> 0.21458121E+01</totfact>
</mgrwt>
</event>
<event>
 6    1  0.1885829E-005  0.2793567E+04  0.7818608E-02  0.8305268E-01
          2   -1    0    0  501    0  0.00000000000E+00  0.00000000000E+00  0.24400764085E+04  0.24400764085E+04  0.00000000000E+00 0. -1.
         -2   -1    0    0    0  501 -0.00000000000E+00 -0.00000000000E+00 -0.79956684260E+03  0.79956684260E+03  0.00000000000E+00 0.  1.
         23    2    1    2    0    0  0.13560032799E+04  0.23429476730E+02  0.44061407144E+03  0.14288304410E+04  0.90121217495E+02 0.  0.
         13    1    3    3    0    0  0.39611174190E+03 -0.15982069093E+02  0.16477664971E+03  0.42931489945E+03  0.00000000000E+00 0.  1.
        -13    1    3    3    0    0  0.95989153799E+03  0.39411545823E+02  0.27583742174E+03  0.99951554159E+03  0.00000000000E+00 0. -1.
         22    1    1    2    0    0 -0.13560032799E+04 -0.23429476730E+02  0.11998954945E+04  0.18108128101E+04  0.00000000000E+00 0.  1.
<mgrwt>
<rscale>  0 0.27935670E+04</rscale>
<asrwt>0</asrwt>
<pdfrwt beam="1">  1        2 0.37539637E+00 0.27935670E+04</pdfrwt>
<pdfrwt beam="2">  1       -2 0.12301028E+00 0.27935670E+04</pdfrwt>
<totfact> 0.16381086E+00</totfact>
</mgrwt>
</event>
<event>
 6    1  0.1885829E-005  0.2542771E+04  0.7818608E-02  0.8387905E-01
          2   -1    0    0  501    0  0.00000000000E+00  0.00000000000E+00  0.77968707130E+03  0.77968707130E+03  0.00000000000E+00 0. -1.
         -2   -1    0    0    0  501 -0.00000000000E+00 -0.00000000000E+00 -0.20731664637E+04  0.20731664637E+04  0.00000000000E+00 0.  1.
         23    2    1    2    0    0 -0.74163490990E+03 -0.68405394623E+02  0.50639298474E+03  0.90497206746E+03  0.88537846639E+02 0.  0.
         13    1    3    3    0    0 -0.29398204778E+03 -0.64572687379E+02  0.23055589354E+03  0.37914521812E+03  0.00000000000E+00 0. -1.
        -13    1    3    3    0    0 -0.44765286211E+03 -0.38327072437E+01  0.27583709120E+03  0.52582684934E+03  0.00000000000E+00 0.  1.
         22    1    1    2    0    0  0.74163490990E+03  0.68405394623E+02 -0.17998723771E+04  0.19478814675E+04  0.00000000000E+00 0.  1.
<mgrwt>
<rscale>  0 0.25427710E+04</rscale>
<asrwt>0</asrwt>
<pdfrwt beam="1">  1        2 0.11995186E+00 0.25427710E+04</pdfrwt>
<pdfrwt beam="2">  1       -2 0.31894869E+00 0.25427710E+04</pdfrwt>
<totfact> 0.77008826E-01</totfact>
</mgrwt>
</event>
<event>
 6    1  0.1885829E-005  0.1657299E+04  0.7818608E-02  0.8786100E-01
         -2   -1    0    0    0  501 -0.00000000000E+00  0.00000000000E+00  0.51538717242E+03  0.51538717242E+03  0.00000000000E+00 0. -1.
          2   -1    0    0  501    0  0.00000000000E+00 -0.00000000000E+00 -0.13323189733E+04  0.13323189733E+04  0.00000000000E+00 0.  1.
         23    2    1    2    0    0  0.39231851981E+03  0.88774014155E+01  0.40125195918E+03  0.56787635137E+03  0.86531996759E+02 0.  0.
         13    1    3    3    0    0  0.25059034046E+03  0.45097711413E+02  0.27334510337E+03  0.37355972460E+03  0.00000000000E+00 0. -1.
        -13    1    3    3    0    0  0.14172817935E+03 -0.36220309997E+02  0.12790685581E+03  0.19431662677E+03  0.00000000000E+00 0.  1.
         22    1    1    2    0    0 -0.39231851981E+03 -0.88774014155E+01 -0.12181837601E+04  0.12798297944E+04  0.00000000000E+00 0.  1.
<mgrwt>
<rscale>  0 0.16572991E+04</rscale>
<asrwt>0</asrwt>
<pdfrwt beam="1">  1        2 0.20497215E+00 0.16572991E+04</pdfrwt>
<pdfrwt beam="2">  1       -2 0.79290336E-01 0.16572991E+04</pdfrwt>
<totfact> 0.21316008E+01</totfact>
</mgrwt>
</event>
<event>
 6    1  0.1885829E-005  0.1360299E+04  0.7818608E-02  0.8983068E-01
         -2   -1    0    0    0  501 -0.00000000000E+00  0.00000000000E+00  0.19246027416E+03  0.19246027416E+03  0.00000000000E+00 0.  1.
          2   -1    0    0  501    0  0.00000000000E+00 -0.00000000000E+00 -0.24036297992E+04  0.24036297992E+04  0.00000000000E+00 0. -1.
         23    2    1    2    0    0 -0.17526849801E+03  0.17210843373E+03 -0.23145952676E+04  0.23295619442E+04  0.95745704871E+02 0.  0.
         13    1    3    3    0    0 -0.75446423511E+00  0.42289550515E+02 -0.54746097255E+03  0.54909242552E+03  0.00000000000E+00 0. -1.
        -13    1    3    3    0    0 -0.17451403378E+03  0.12981888322E+03 -0.17671342950E+04  0.17804695187E+04  0.00000000000E+00 0.  1.
         22    1    1    2    0    0  0.17526849801E+03 -0.17210843373E+03  0.10342574258E+03  0.26652812907E+03  0.00000000000E+00 0.  1.
<mgrwt>
<rscale>  0 0.13602989E+04</rscale>
<asrwt>0</asrwt>
<pdfrwt beam="1">  1        2 0.36978920E+00 0.13602989E+04</pdfrwt>
<pdfrwt beam="2">  1       -2 0.29609273E-01 0.13602989E+04</pdfrwt>
<totfact> 0.40712882E+01</totfact>
</mgrwt>
</event>
<event>
 6    1  0.1885829E-005  0.2454148E+04  0.7818608E-02  0.8419505E-01
         -2   -1    0    0    0  501 -0.00000000000E+00  0.00000000000E+00  0.96983600408E+03  0.96983600408E+03  0.00000000000E+00 0.  1.
          2   -1    0    0  501    0  0.00000000000E+00 -0.00000000000E+00 -0.15525416166E+04  0.15525416166E+04  0.00000000000E+00 0. -1.
         23    2    1    2    0    0  0.61598048937E+03  0.10289042612E+04 -0.55102908606E+03  0.13227612885E+04  0.89378021371E+02 0.  0.
         11    1    3    3    0    0  0.36617094100E+03  0.53975364573E+03 -0.27172012663E+03  0.70657411737E+03  0.00000000000E+00 0.  1.
        -11    1    3    3    0    0  0.24980954837E+03  0.48915061548E+03 -0.27930895943E+03  0.61618717116E+03  0.00000000000E+00 0. -1.
         22    1    1    2    0    0 -0.61598048937E+03 -0.10289042612E+04 -0.31676526460E+02  0.11996163321E+04  0.00000000000E+00 0.  1.
<mgrwt>
<rscale>  0 0.24541481E+04</rscale>
<asrwt>0</asrwt>
<pdfrwt beam="1">  1        2 0.23885256E+00 0.24541481E+04</pdfrwt>
<pdfrwt beam="2">  1       -2 0.14920554E+00 0.24541481E+04</pdfrwt>
<totfact> 0.32260856E+00</totfact>
</mgrwt>
</event>
<event>
 6    1  0.1885829E-005  0.2352038E+04  0.7818608E-02  0.8457681E-01
          1   -1    0    0  501    0  0.00000000000E+00  0.00000000000E+00  0.11216369633E+04  0.11216369633E+04  0.00000000000E+00 0. -1.
         -1   -1    0    0    0  501 -0.00000000000E+00 -0.00000000000E+00 -0.12330375442E+04  0.12330375442E+04  0.00000000000E+00 0.  1.
         23    2    1    2    0    0 -0.42304204334E+03 -0.56415317628E+03  0.88424289960E+03  0.11346174116E+04  0.90762264053E+02 0.  0.
         11    1    3    3    0    0 -0.28554851016E+03 -0.32593089572E+03  0.58733755455E+03  0.72988650037E+03  0.00000000000E+00 0. -1.
        -11    1    3    3    0    0 -0.13749353318E+03 -0.23822228056E+03  0.29690534505E+03  0.40473091128E+03  0.00000000000E+00 0.  1.
         22    1    1    2    0    0  0.42304204334E+03  0.56415317628E+03 -0.99564348056E+03  0.12200570958E+04  0.00000000000E+00 0.  1.
<mgrwt>
<rscale>  0 0.23520378E+04</rscale>
<asrwt>0</asrwt>
<pdfrwt beam="1">  1        1 0.17255953E+00 0.23520378E+04</pdfrwt>
<pdfrwt beam="2">  1       -1 0.18969808E+00 0.23520378E+04</pdfrwt>
<totfact> 0.19514043E+00</totfact>
</mgrwt>
</event>
<event>
 6    1  0.2129729E-005  0.2662641E+04  0.7818608E-02  0.8347230E-01
          2   -1    0    0  501    0  0.00000000000E+00  0.00000000000E+00  0.12314861004E+04  0.12314861004E+04  0.00000000000E+00 0. -1.
         -2   -1    0    0    0  501 -0.00000000000E+00 -0.00000000000E+00 -0.14392478539E+04  0.14392478539E+04  0.00000000000E+00 0.  1.
         23    2    1    2    0    0  0.78740954401E+03 -0.96027410088E+03  0.37299606719E+03  0.12998146332E+04  0.90839834942E+02 0.  0.
         11    1    3    3    0    0  0.17964730730E+03 -0.27332557126E+03  0.76904388495E+02  0.33599748197E+03  0.00000000000E+00 0. -1.
        -11    1    3    3    0    0  0.60776223671E+03 -0.68694852962E+03  0.29609167869E+03  0.96381715118E+03  0.00000000000E+00 0.  1.
         22    1    1    2    0    0 -0.78740954401E+03  0.96027410088E+03 -0.58075782062E+03  0.13709193211E+04  0.00000000000E+00 0. -1.
<mgrwt>
<rscale>  0 0.26626406E+04</rscale>
<asrwt>0</asrwt>
<pdfrwt beam="1">  1        2 0.18945940E+00 0.26626406E+04</pdfrwt>
<pdfrwt beam="2">  1       -2 0.22142275E+00 0.26626406E+04</pdfrwt>
<totfact> 0.15452955E+00</totfact>
</mgrwt>
</event>
<event>
 6    1  0.1885829E-005  0.1552301E+04  0.7818608E-02  0.8850400E-01
          2   -1    0    0  501    0  0.00000000000E+00  0.00000000000E+00  0.96657510100E+03  0.96657510100E+03  0.00000000000E+00 0. -1.
         -2   -1    0    0    0  501 -0.00000000000E+00 -0.00000000000E+00 -0.62324102335E+03  0.62324102335E+03  0.00000000000E+00 0.  1.
         23    2    1    2    0    0  0.15459212687E+03  0.65659393528E+03  0.56007655475E+03  0.88130245269E+03  0.89408860856E+02 0.  0.
         11    1    3    3    0    0  0.24341373373E+02  0.26317330697E+03  0.18779039468E+03  0.32421894500E+03  0.00000000000E+00 0.  1.
        -11    1    3    3    0    0  0.13025075350E+03  0.39342062831E+03  0.37228616007E+03  0.55708350769E+03  0.00000000000E+00 0. -1.
         22    1    1    2    0    0 -0.15459212687E+03 -0.65659393528E+03 -0.21674247710E+03  0.70851367165E+03  0.00000000000E+00 0.  1.
<mgrwt>
<rscale>  0 0.15523006E+04</rscale>
<asrwt>0</asrwt>
<pdfrwt beam="1">  1        2 0.14870386E+00 0.15523006E+04</pdfrwt>
<pdfrwt beam="2">  1       -2 0.95883234E-01 0.15523006E+04</pdfrwt>
<totfact> 0.23245962E+01</totfact>
</mgrwt>
</event>
<event>
 6    1  0.1885829E-005  0.1075412E+04  0.7818608E-02  0.9229494E-01
          2   -1    0    0  501    0  0.00000000000E+00  0.00000000000E+00  0.24481382795E+04  0.24481382795E+04  0.00000000000E+00 0. -1.
         -2   -1    0    0    0  501 -0.00000000000E+00 -0.00000000000E+00 -0.11810109144E+03  0.11810109144E+03  0.00000000000E+00 0.  1.
         23    2    1    2    0    0  0.30874324198E+03 -0.25411527616E+03  0.20170731543E+04  0.20584564946E+04  0.93605915952E+02 0.  0.
         11    1    3    3    0    0  0.35456101255E+02 -0.20645708343E+02  0.39014813374E+03  0.39229956239E+03  0.00000000000E+00 0. -1.
        -11    1    3    3    0    0  0.27328714072E+03 -0.23346956782E+03  0.16269250206E+04  0.16661569323E+04  0.00000000000E+00 0.  1.
         22    1    1    2    0    0 -0.30874324198E+03  0.25411527616E+03  0.31296403379E+03  0.50778287633E+03  0.00000000000E+00 0.  1.
<mgrwt>
<rscale>  0 0.10754121E+04</rscale>
<asrwt>0</asrwt>
<pdfrwt beam="1">  1        2 0.37663662E+00 0.10754121E+04</pdfrwt>
<pdfrwt beam="2">  1       -2 0.18169401E-01 0.10754121E+04</pdfrwt>
<totfact> 0.94563802E+01</totfact>
</mgrwt>
</event>
<event>
 6    1  0.1885829E-005  0.9039637E+03  0.7818608E-02  0.9420640E-01
          2   -1    0    0  501    0  0.00000000000E+00  0.00000000000E+00  0.14602211672E+03  0.14602211672E+03  0.00000000000E+00 0. -1.
         -2   -1    0    0    0  501 -0.00000000000E+00 -0.00000000000E+00 -0.13990180283E+04  0.13990180283E+04  0.00000000000E+00 0.  1.
         23    2    1    2    0    0  0.20137397751E+03 -0.28399004977E+03 -0.16133601955E+03  0.39921155964E+03  0.11017590918E+03 0.  0.
         11    1    3    3    0    0  0.98090392093E+02 -0.18201472202E+03 -0.14630836151E+03  0.25329275690E+03  0.00000000000E+00 0. -1.
        -11    1    3    3    0    0  0.10328358542E+03 -0.10197532775E+03 -0.15027658036E+02  0.14591880274E+03  0.00000000000E+00 0.  1.
         22    1    1    2    0    0 -0.20137397751E+03  0.28399004977E+03 -0.10916598921E+04  0.11458285854E+04  0.00000000000E+00 0.  1.
<mgrwt>
<rscale>  0 0.90396366E+03</rscale>
<asrwt>0</asrwt>
<pdfrwt beam="1">  1        2 0.22464941E-01 0.90396366E+03</pdfrwt>
<pdfrwt beam="2">  1       -2 0.21523355E+00 0.90396366E+03</pdfrwt>
<totfact> 0.26516198E+01</totfact>
</mgrwt>
</event>
<event>
 6    1  0.1885829E-005  0.2197911E+04  0.7818608E-02  0.8519298E-01
         -2   -1    0    0    0  501 -0.00000000000E+00  0.00000000000E+00  0.10945217612E+04  0.10945217612E+04  0.00000000000E+00 0.  1.
          2   -1    0    0  501    0  0.00000000000E+00 -0.00000000000E+00 -0.11034076651E+04  0.11034076651E+04  0.00000000000E+00 0. -1.
         23    2    1    2    0    0  0.97131772473E+03  0.35598848977E+02 -0.51316881184E+03  0.11029286721E+04  0.91564326249E+02 0.  0.
         13    1    3    3    0    0  0.19835588083E+03  0.95113203941E+01 -0.14790293183E+03  0.24761017329E+03  0.00000000000E+00 0. -1.
        -13    1    3    3    0    0  0.77296184391E+03  0.26087528583E+02 -0.36526588001E+03  0.85531849880E+03  0.00000000000E+00 0.  1.
         22    1    1    2    0    0 -0.97131772473E+03 -0.35598848977E+02  0.50428290799E+03  0.10950007542E+04  0.00000000000E+00 0.  1.
<mgrwt>
<rscale>  0 0.21979115E+04</rscale>
<asrwt>0</asrwt>
<pdfrwt beam="1">  1        2 0.16975502E+00 0.21979115E+04</pdfrwt>
<pdfrwt beam="2">  1       -2 0.16838796E+00 0.21979115E+04</pdfrwt>
<totfact> 0.43376695E+00</totfact>
</mgrwt>
</event>
<event>
 6    1  0.1885829E-005  0.2923467E+04  0.7818608E-02  0.8265929E-01
         -2   -1    0    0    0  501 -0.00000000000E+00  0.00000000000E+00  0.16447816228E+04  0.16447816228E+04  0.00000000000E+00 0.  1.
          2   -1    0    0  501    0  0.00000000000E+00 -0.00000000000E+00 -0.12990569087E+04  0.12990569087E+04  0.00000000000E+00 0. -1.
         23    2    1    2    0    0 -0.38710286355E+03 -0.13847902516E+04 -0.83024459049E+02  0.14433990887E+04  0.94948409879E+02 0.  0.
         11    1    3    3    0    0 -0.10916985447E+03 -0.55443198033E+03 -0.18339001002E+02  0.56537527085E+03  0.00000000000E+00 0. -1.
        -11    1    3    3    0    0 -0.27793300908E+03 -0.83035827128E+03 -0.64685458047E+02  0.87802381785E+03  0.00000000000E+00 0.  1.
         22    1    1    2    0    0  0.38710286355E+03  0.13847902516E+04  0.42874917320E+03  0.15004394428E+04  0.00000000000E+00 0. -1.
<mgrwt>
<rscale>  0 0.29234671E+04</rscale>
<asrwt>0</asrwt>
<pdfrwt beam="1">  1        2 0.19985491E+00 0.29234671E+04</pdfrwt>
<pdfrwt beam="2">  1       -2 0.25304333E+00 0.29234671E+04</pdfrwt>
<totfact> 0.87761730E-01</totfact>
</mgrwt>
</event>
<event>
 6    1  0.1885829E-005  0.7965283E+03  0.7818608E-02  0.9565056E-01
          2   -1    0    0  501    0  0.00000000000E+00  0.00000000000E+00  0.17467628756E+04  0.17467628756E+04  0.00000000000E+00 0. -1.
         -2   -1    0    0    0  501 -0.00000000000E+00 -0.00000000000E+00 -0.90804736836E+02  0.90804736836E+02  0.00000000000E+00 0.  1.
         23    2    1    2    0    0  0.18086082783E+03 -0.34680328613E+03  0.74847586511E+03  0.84938380599E+03  0.90849165773E+02 0.  0.
         11    1    3    3    0    0  0.15556576042E+03 -0.22377568111E+03  0.45865754779E+03  0.53351945365E+03  0.00000000000E+00 0.  1.
        -11    1    3    3    0    0  0.25295067404E+02 -0.12302760502E+03  0.28981831731E+03  0.31586435234E+03  0.00000000000E+00 0. -1.
         22    1    1    2    0    0 -0.18086082783E+03  0.34680328613E+03  0.90748227365E+03  0.98818380644E+03  0.00000000000E+00 0. -1.
<mgrwt>
<rscale>  0 0.79652833E+03</rscale>
<asrwt>0</asrwt>
<pdfrwt beam="1">  1        2 0.26873273E+00 0.79652833E+03</pdfrwt>
<pdfrwt beam="2">  1       -2 0.13969961E-01 0.79652833E+03</pdfrwt>
<totfact> 0.37013944E+02</totfact>
</mgrwt>
</event>
<event>
 6    1  0.1885829E-005  0.9765603E+03  0.7818608E-02  0.9334633E-01
         -2   -1    0    0    0  501 -0.00000000000E+00  0.00000000000E+00  0.10549396817E+03  0.10549396817E+03  0.00000000000E+00 0.  1.
          2   -1    0    0  501    0  0.00000000000E+00 -0.00000000000E+00 -0.22600107761E+04  0.22600107761E+04  0.00000000000E+00 0. -1.
         23    2    1    2    0    0  0.26639708155E+03 -0.34127628065E+03 -0.55979169966E+03  0.71305653760E+03  0.87441260361E+02 0.  0.
         13    1    3    3    0    0  0.21567081642E+03 -0.30046215614E+03 -0.42522516241E+03  0.56356707415E+03  0.00000000000E+00 0.  1.
        -13    1    3    3    0    0  0.50726265133E+02 -0.40814124518E+02 -0.13456653725E+03  0.14948946345E+03  0.00000000000E+00 0. -1.
         22    1    1    2    0    0 -0.26639708155E+03  0.34127628065E+03 -0.15947251082E+04  0.16524482066E+04  0.00000000000E+00 0. -1.
<mgrwt>
<rscale>  0 0.97656030E+03</rscale>
<asrwt>0</asrwt>
<pdfrwt beam="1">  1        2 0.34769397E+00 0.97656030E+03</pdfrwt>
<pdfrwt beam="2">  1       -2 0.16229841E-01 0.97656030E+03</pdfrwt>
<totfact> 0.14785857E+02</totfact>
</mgrwt>
</event>
<event>
 6    1  0.1885829E-005  0.3132117E+04  0.7818608E-02  0.8206978E-01
         -2   -1    0    0    0  501 -0.00000000000E+00  0.00000000000E+00  0.10989995358E+04  0.10989995358E+04  0.00000000000E+00 0.  1.
          2   -1    0    0  501    0  0.00000000000E+00 -0.00000000000E+00 -0.22316112574E+04  0.22316112574E+04  0.00000000000E+00 0. -1.
         23    2    1    2    0    0  0.48957336286E+03  0.10359177037E+04 -0.16999924979E+04  0.20520457727E+04  0.90054394312E+02 0.  0.
         11    1    3    3    0    0  0.38042311918E+03  0.72162540552E+03 -0.12426820253E+04  0.14865139056E+04  0.00000000000E+00 0.  1.
        -11    1    3    3    0    0  0.10915024368E+03  0.31429229814E+03 -0.45731047267E+03  0.56553186717E+03  0.00000000000E+00 0. -1.
         22    1    1    2    0    0 -0.48957336286E+03 -0.10359177037E+04  0.56738077627E+03  0.12785650205E+04  0.00000000000E+00 0.  1.
<mgrwt>
<rscale>  0 0.31321173E+04</rscale>
<asrwt>0</asrwt>
<pdfrwt beam="1">  1        2 0.34332481E+00 0.31321173E+04</pdfrwt>
<pdfrwt beam="2">  1       -2 0.16907685E+00 0.31321173E+04</pdfrwt>
<totfact> 0.90813261E-01</totfact>
</mgrwt>
</event>
<event>
 6    1  0.1885829E-005  0.1580893E+04  0.7818608E-02  0.8832373E-01
         -2   -1    0    0    0  501 -0.00000000000E+00  0.00000000000E+00  0.36209767636E+03  0.36209767636E+03  0.00000000000E+00 0.  1.
          2   -1    0    0  501    0  0.00000000000E+00 -0.00000000000E+00 -0.17255164543E+04  0.17255164543E+04  0.00000000000E+00 0. -1.
         23    2    1    2    0    0 -0.57995531994E+03 -0.48804112106E+03 -0.40173927248E+03  0.86313065579E+03  0.95224875661E+02 0.  0.
         13    1    3    3    0    0 -0.28302789605E+03 -0.17686945585E+03 -0.18174949804E+03  0.38002693903E+03  0.00000000000E+00 0. -1.
        -13    1    3    3    0    0 -0.29692742389E+03 -0.31117166521E+03 -0.21998977445E+03  0.48310371676E+03  0.00000000000E+00 0.  1.
         22    1    1    2    0    0  0.57995531994E+03  0.48804112106E+03 -0.96167950543E+03  0.12244834748E+04  0.00000000000E+00 0. -1.
<mgrwt>
<rscale>  0 0.15808928E+04</rscale>
<asrwt>0</asrwt>
<pdfrwt beam="1">  1        2 0.26546407E+00 0.15808928E+04</pdfrwt>
<pdfrwt beam="2">  1       -2 0.55707335E-01 0.15808928E+04</pdfrwt>
<totfact> 0.27590309E+01</totfact>
</mgrwt>
</event>
<event>
 6    1  0.2999488E-005  0.4523571E+04  0.7818608E-02  0.7906523E-01
         -2   -1    0    0    0  501 -0.00000000000E+00  0.00000000000E+00  0.29024504454E+04  0.29024504454E+04  0.00000000000E+00 0.  1.
          2   -1    0    0  501    0  0.00000000000E+00 -0.00000000000E+00 -0.17625359729E+04  0.17625359729E+04  0.00000000000E+00 0. -1.
         23    2    1    2    0    0 -0.26327358806E+03  0.21827047046E+04  0.11138494076E+04  0.24663067696E+04  0.92172496209E+02 0.  0.
         13    1    3    3    0    0 -0.19333949227E+03  0.13843511142E+04  0.74792249302E+03  0.15853063496E+04  0.00000000000E+00 0.  1.
        -13    1    3    3    0    0 -0.69934095794E+02  0.79835359044E+03  0.36592691463E+03  0.88100041997E+03  0.00000000000E+00 0. -1.
         22    1    1    2    0    0  0.26327358806E+03 -0.21827047046E+04  0.26065064848E+02  0.21986796487E+04  0.00000000000E+00 0. -1.
<mgrwt>
<rscale>  0 0.45235709E+04</rscale>
<asrwt>0</asrwt>
<pdfrwt beam="1">  1        2 0.27115938E+00 0.45235709E+04</pdfrwt>
<pdfrwt beam="2">  1       -2 0.44653084E+00 0.45235709E+04</pdfrwt>
<totfact> 0.25082080E-02</totfact>
</mgrwt>
</event>
<event>
 6    1  0.1885829E-005  0.5929855E+04  0.7818608E-02  0.7699160E-01
         -2   -1    0    0    0  501 -0.00000000000E+00  0.00000000000E+00  0.35960055634E+04  0.35960055634E+04  0.00000000000E+00 0. -1.
          2   -1    0    0  501    0  0.00000000000E+00 -0.00000000000E+00 -0.24446001940E+04  0.24446001940E+04  0.00000000000E+00 0.  1.
         23    2    1    2    0    0  0.12981102012E+04 -0.54469454960E+02  0.32898712643E+04  0.35383880612E+04  0.94234390924E+02 0.  0.
         13    1    3    3    0    0  0.10768784283E+04 -0.80487580730E+02  0.27357935711E+04  0.29412092519E+04  0.00000000000E+00 0. -1.
        -13    1    3    3    0    0  0.22123177285E+03  0.26018125770E+02  0.55407769316E+03  0.59717880927E+03  0.00000000000E+00 0.  1.
         22    1    1    2    0    0 -0.12981102012E+04  0.54469454960E+02 -0.21384658948E+04  0.25022176962E+04  0.00000000000E+00 0.  1.
<mgrwt>
<rscale>  0 0.59298553E+04</rscale>
<asrwt>0</asrwt>
<pdfrwt beam="1">  1        2 0.37609233E+00 0.59298553E+04</pdfrwt>
<pdfrwt beam="2">  1       -2 0.55323163E+00 0.59298553E+04</pdfrwt>
<totfact> 0.21222157E-03</totfact>
</mgrwt>
</event>
<event>
 6    1  0.1885829E-005  0.9223321E+03  0.7818608E-02  0.9398088E-01
          2   -1    0    0  501    0  0.00000000000E+00  0.00000000000E+00  0.12122129051E+04  0.12122129051E+04  0.00000000000E+00 0. -1.
         -2   -1    0    0    0  501 -0.00000000000E+00 -0.00000000000E+00 -0.17544286625E+03  0.17544286625E+03  0.00000000000E+00 0.  1.
         23    2    1    2    0    0 -0.77528286554E+02  0.43997660584E+03  0.66707660455E+03  0.80777364172E+03  0.88977587182E+02 0.  0.
         11    1    3    3    0    0  0.26083348544E+01  0.23565994368E+03  0.36198062740E+03  0.43194025869E+03  0.00000000000E+00 0. -1.
        -11    1    3    3    0    0 -0.80136621408E+02  0.20431666216E+03  0.30509597715E+03  0.37583338303E+03  0.00000000000E+00 0.  1.
         22    1    1    2    0    0  0.77528286554E+02 -0.43997660584E+03  0.36969343431E+03  0.57988212964E+03  0.00000000000E+00 0.  1.
<mgrwt>
<rscale>  0 0.92233206E+03</rscale>
<asrwt>0</asrwt>
<pdfrwt beam="1">  1        2 0.18649429E+00 0.92233206E+03</pdfrwt>
<pdfrwt beam="2">  1       -2 0.26991211E-01 0.92233206E+03</pdfrwt>
<totfact> 0.23236179E+02</totfact>
</mgrwt>
</event>
<event>
 6    1  0.1885829E-005  0.2615001E+04  0.7818608E-02  0.8363123E-01
         -1   -1    0    0    0  501 -0.00000000000E+00  0.00000000000E+00  0.11977636229E+04  0.11977636229E+04  0.00000000000E+00 0.  1.
          1   -1    0    0  501    0  0.00000000000E+00 -0.00000000000E+00 -0.14272915974E+04  0.14272915974E+04  0.00000000000E+00 0. -1.
         23    2    1    2    0    0  0.75045257483E+03  0.22213112266E+03  0.93456677986E+03  0.12223300513E+04  0.90301636622E+02 0.  0.
         13    1    3    3    0    0  0.14244546456E+03  0.93855291927E+01  0.19304091660E+03  0.24009080369E+03  0.00000000000E+00 0. -1.
        -13    1    3    3    0    0  0.60800711027E+03  0.21274559347E+03  0.74152586326E+03  0.98223924762E+03  0.00000000000E+00 0.  1.
         22    1    1    2    0    0 -0.75045257483E+03 -0.22213112266E+03 -0.11640947543E+04  0.14027251690E+04  0.00000000000E+00 0. -1.
<mgrwt>
<rscale>  0 0.26150013E+04</rscale>
<asrwt>0</asrwt>
<pdfrwt beam="1">  1        1 0.21958332E+00 0.26150013E+04</pdfrwt>
<pdfrwt beam="2">  1       -1 0.18427133E+00 0.26150013E+04</pdfrwt>
<totfact> 0.12543488E+00</totfact>
</mgrwt>
</event>
<event>
 6    1  0.1885829E-005  0.1823099E+04  0.7818608E-02  0.8694111E-01
          2   -1    0    0  501    0  0.00000000000E+00  0.00000000000E+00  0.24708153050E+04  0.24708153050E+04  0.00000000000E+00 0. -1.
         -2   -1    0    0    0  501 -0.00000000000E+00 -0.00000000000E+00 -0.33629491477E+03  0.33629491477E+03  0.00000000000E+00 0.  1.
         23    2    1    2    0    0  0.33921953868E+03 -0.68727606364E+03  0.31629314864E+03  0.83394814201E+03  0.89497846962E+02 0.  0.
         11    1    3    3    0    0  0.18956994176E+03 -0.29208562836E+03  0.16243271429E+03  0.38423321536E+03  0.00000000000E+00 0.  1.
        -11    1    3    3    0    0  0.14964959693E+03 -0.39519043528E+03  0.15386043434E+03  0.44971492665E+03  0.00000000000E+00 0. -1.
         22    1    1    2    0    0 -0.33921953868E+03  0.68727606364E+03  0.18182272416E+04  0.19731620778E+04  0.00000000000E+00 0.  1.
<mgrwt>
<rscale>  0 0.18230991E+04</rscale>
<asrwt>0</asrwt>
<pdfrwt beam="1">  1        2 0.38012542E+00 0.18230991E+04</pdfrwt>
<pdfrwt beam="2">  1       -2 0.51737681E-01 0.18230991E+04</pdfrwt>
<totfact> 0.12045173E+01</totfact>
</mgrwt>
</event>
<event>
 6    1  0.1885829E-005  0.5216019E+04  0.7818608E-02  0.7796022E-01
         -2   -1    0    0    0  501 -0.00000000000E+00  0.00000000000E+00  0.26504647038E+04  0.26504647038E+04  0.00000000000E+00 0.  1.
          2   -1    0    0  501    0  0.00000000000E+00 -0.00000000000E+00 -0.25662341365E+04  0.25662341365E+04  0.00000000000E+00 0. -1.
         23    2    1    2    0    0 -0.72868825900E+03  0.10483249564E+04 -0.22314080527E+04  0.25724306973E+04  0.90807498056E+02 0.  0.
         13    1    3    3    0    0 -0.26091847194E+03  0.37061230326E+03 -0.88097454240E+03  0.99073107991E+03  0.00000000000E+00 0. -1.
        -13    1    3    3    0    0 -0.46776978705E+03  0.67771265316E+03 -0.13504335103E+04  0.15816996174E+04  0.00000000000E+00 0.  1.
         22    1    1    2    0    0  0.72868825900E+03 -0.10483249564E+04  0.23156386200E+04  0.26442681429E+04  0.00000000000E+00 0.  1.
<mgrwt>
<rscale>  0 0.52160188E+04</rscale>
<asrwt>0</asrwt>
<pdfrwt beam="1">  1        2 0.39480525E+00 0.52160188E+04</pdfrwt>
<pdfrwt beam="2">  1       -2 0.40776380E+00 0.52160188E+04</pdfrwt>
<totfact> 0.15065142E-02</totfact>
</mgrwt>
</event>
<event>
 6    1  0.1885829E-005  0.1659128E+04  0.7818608E-02  0.8785025E-01
          2   -1    0    0  501    0  0.00000000000E+00  0.00000000000E+00  0.15110532652E+04  0.15110532652E+04  0.00000000000E+00 0. -1.
         -2   -1    0    0    0  501 -0.00000000000E+00 -0.00000000000E+00 -0.45542810574E+03  0.45542810574E+03  0.00000000000E+00 0.  1.
         23    2    1    2    0    0  0.28833429236E+03  0.21388435353E+03 -0.35374312515E+03  0.51210791735E+03  0.90758688800E+02 0.  0.
         11    1    3    3    0    0  0.21365434371E+03  0.11111216295E+03 -0.25877381969E+03  0.35349396190E+03  0.00000000000E+00 0.  1.
        -11    1    3    3    0    0  0.74679948646E+02  0.10277219057E+03 -0.94969305460E+02  0.15861395545E+03  0.00000000000E+00 0. -1.
         22    1    1    2    0    0 -0.28833429236E+03 -0.21388435353E+03  0.14093682846E+04  0.14543734536E+04  0.00000000000E+00 0. -1.
<mgrwt>
<rscale>  0 0.16591276E+04</rscale>
<asrwt>0</asrwt>
<pdfrwt beam="1">  1        2 0.23246973E+00 0.16591276E+04</pdfrwt>
<pdfrwt beam="2">  1       -2 0.70065863E-01 0.16591276E+04</pdfrwt>
<totfact> 0.22156366E+01</totfact>
</mgrwt>
</event>
<event>
 6    1  0.1885829E-005  0.1661564E+04  0.7818608E-02  0.8783595E-01
         -2   -1    0    0    0  501 -0.00000000000E+00  0.00000000000E+00  0.30230721457E+03  0.30230721457E+03  0.00000000000E+00 0.  1.
          2   -1    0    0  501    0  0.00000000000E+00 -0.00000000000E+00 -0.22831037305E+04  0.22831037305E+04  0.00000000000E+00 0. -1.
         23    2    1    2    0    0 -0.42227154744E+03  0.11425362366E+03  0.10126679074E+03  0.45788779284E+03  0.89661126632E+02 0.  0.
         13    1    3    3    0    0 -0.25545997241E+03  0.96095546300E+02  0.98194866306E+02  0.29006272303E+03  0.00000000000E+00 0. -1.
        -13    1    3    3    0    0 -0.16681157503E+03  0.18158077360E+02  0.30719244354E+01  0.16782506981E+03  0.00000000000E+00 0.  1.
         22    1    1    2    0    0  0.42227154744E+03 -0.11425362366E+03 -0.20820633066E+04  0.21275231522E+04  0.00000000000E+00 0. -1.
<mgrwt>
<rscale>  0 0.16615640E+04</rscale>
<asrwt>0</asrwt>
<pdfrwt beam="1">  1        2 0.35124671E+00 0.16615640E+04</pdfrwt>
<pdfrwt beam="2">  1       -2 0.46508804E-01 0.16615640E+04</pdfrwt>
<totfact> 0.19404804E+01</totfact>
</mgrwt>
</event>
<event>
 6    1  0.1885829E-005  0.3527893E+04  0.7818608E-02  0.8107211E-01
         -2   -1    0    0    0  501 -0.00000000000E+00  0.00000000000E+00  0.86788818880E+03  0.86788818880E+03  0.00000000000E+00 0.  1.
          2   -1    0    0  501    0  0.00000000000E+00 -0.00000000000E+00 -0.35851467332E+04  0.35851467332E+04  0.00000000000E+00 0. -1.
         23    2    1    2    0    0 -0.79759239286E+02 -0.11611248501E+04 -0.30309102115E+04  0.32476512395E+04  0.79053204607E+02 0.  0.
         11    1    3    3    0    0 -0.81910927382E+02 -0.73633137655E+03 -0.18653888633E+04  0.20071295193E+04  0.00000000000E+00 0. -1.
        -11    1    3    3    0    0  0.21516880961E+01 -0.42479347350E+03 -0.11655213482E+04  0.12405217201E+04  0.00000000000E+00 0.  1.
         22    1    1    2    0    0  0.79759239286E+02  0.11611248501E+04  0.31365166718E+03  0.12053836825E+04  0.00000000000E+00 0.  1.
<mgrwt>
<rscale>  0 0.35278926E+04</rscale>
<asrwt>0</asrwt>
<pdfrwt beam="1">  1        2 0.55156103E+00 0.35278926E+04</pdfrwt>
<pdfrwt beam="2">  1       -2 0.13352126E+00 0.35278926E+04</pdfrwt>
<totfact> 0.23495619E-01</totfact>
</mgrwt>
</event>
<event>
 6    1  0.1885829E-005  0.3320042E+04  0.7818608E-02  0.8157814E-01
         -2   -1    0    0    0  501 -0.00000000000E+00  0.00000000000E+00  0.16102311597E+04  0.16102311597E+04  0.00000000000E+00 0.  1.
          2   -1    0    0  501    0  0.00000000000E+00 -0.00000000000E+00 -0.17113501694E+04  0.17113501694E+04  0.00000000000E+00 0. -1.
         23    2    1    2    0    0 -0.58420138717E+03  0.15492223233E+04  0.50050313671E+02  0.16589829915E+04  0.91315192679E+02 0.  0.
         13    1    3    3    0    0 -0.29275696673E+03  0.79825072490E+03 -0.19303913260E+02  0.85046075890E+03  0.00000000000E+00 0. -1.
        -13    1    3    3    0    0 -0.29144442044E+03  0.75097159837E+03  0.69354226931E+02  0.80852223257E+03  0.00000000000E+00 0.  1.
         22    1    1    2    0    0  0.58420138717E+03 -0.15492223233E+04 -0.15116932337E+03  0.16625983375E+04  0.00000000000E+00 0.  1.
<mgrwt>
<rscale>  0 0.33200418E+04</rscale>
<asrwt>0</asrwt>
<pdfrwt beam="1">  1        2 0.26328464E+00 0.33200418E+04</pdfrwt>
<pdfrwt beam="2">  1       -2 0.24772787E+00 0.33200418E+04</pdfrwt>
<totfact> 0.53489839E-01</totfact>
</mgrwt>
</event>
<event>
 6    1  0.1885829E-005  0.1288572E+04  0.7818608E-02  0.9038677E-01
          2   -1    0    0  501    0  0.00000000000E+00  0.00000000000E+00  0.50389247898E+03  0.50389247898E+03  0.00000000000E+00 0. -1.
         -2   -1    0    0    0  501 -0.00000000000E+00 -0.00000000000E+00 -0.82379505522E+03  0.82379505522E+03  0.00000000000E+00 0.  1.
         23    2    1    2    0    0 -0.21348951163E+03  0.48741910049E+03  0.20647756255E+03  0.57920159472E+03  0.98419268405E+02 0.  0.
         11    1    3    3    0    0 -0.17939411424E+03  0.30308670041E+03  0.15504178329E+03  0.38481391705E+03  0.00000000000E+00 0.  1.
        -11    1    3    3    0    0 -0.34095397388E+02  0.18433240008E+03  0.51435779258E+02  0.19438767767E+03  0.00000000000E+00 0. -1.
         22    1    1    2    0    0  0.21348951163E+03 -0.48741910049E+03 -0.52638013879E+03  0.74848593949E+03  0.00000000000E+00 0.  1.
<mgrwt>
<rscale>  0 0.12885715E+04</rscale>
<asrwt>0</asrwt>
<pdfrwt beam="1">  1        2 0.77521920E-01 0.12885715E+04</pdfrwt>
<pdfrwt beam="2">  1       -2 0.12673770E+00 0.12885715E+04</pdfrwt>
<totfact> 0.27710582E+01</totfact>
</mgrwt>
</event>
<event>
 6    1  0.1885829E-005  0.1917972E+04  0.7818608E-02  0.8645962E-01
         -2   -1    0    0    0  501 -0.00000000000E+00  0.00000000000E+00  0.60344383243E+03  0.60344383243E+03  0.00000000000E+00 0.  1.
          2   -1    0    0  501    0  0.00000000000E+00 -0.00000000000E+00 -0.15240090578E+04  0.15240090578E+04  0.00000000000E+00 0. -1.
         23    2    1    2    0    0  0.72778553652E+03  0.43838690149E+03  0.26763189159E+02  0.85494120560E+03  0.91396576344E+02 0.  0.
         11    1    3    3    0    0  0.24490381015E+03  0.17715155004E+03  0.45175885255E+02  0.30561644019E+03  0.00000000000E+00 0. -1.
        -11    1    3    3    0    0  0.48288172637E+03  0.26123535145E+03 -0.18412696096E+02  0.54932476540E+03  0.00000000000E+00 0.  1.
         22    1    1    2    0    0 -0.72778553652E+03 -0.43838690149E+03 -0.94732841453E+03  0.12725116846E+04  0.00000000000E+00 0. -1.
<mgrwt>
<rscale>  0 0.19179717E+04</rscale>
<asrwt>0</asrwt>
<pdfrwt beam="1">  1        2 0.23446294E+00 0.19179717E+04</pdfrwt>
<pdfrwt beam="2">  1       -2 0.92837511E-01 0.19179717E+04</pdfrwt>
<totfact> 0.11316856E+01</totfact>
</mgrwt>
</event>
<event>
 6    1  0.1885829E-005  0.6697193E+03  0.7818608E-02  0.9770465E-01
          2   -1    0    0  501    0  0.00000000000E+00  0.00000000000E+00  0.47512075260E+03  0.47512075260E+03  0.00000000000E+00 0.  1.
         -2   -1    0    0    0  501 -0.00000000000E+00 -0.00000000000E+00 -0.23600523502E+03  0.23600523502E+03  0.00000000000E+00 0. -1.
         23    2    1    2    0    0  0.29762218433E+03 -0.13268219084E+03  0.16679391329E+03  0.37733871582E+03  0.91546537744E+02 0.  0.
         11    1    3    3    0    0  0.22953564123E+03 -0.85126017565E+02  0.16317536742E+03  0.29420953417E+03  0.00000000000E+00 0.  1.
        -11    1    3    3    0    0  0.68086543099E+02 -0.47556173278E+02  0.36185458696E+01  0.83129181652E+02  0.00000000000E+00 0. -1.
         22    1    1    2    0    0 -0.29762218433E+03  0.13268219084E+03  0.72321604294E+02  0.33378727181E+03  0.00000000000E+00 0.  1.
<mgrwt>
<rscale>  0 0.66971930E+03</rscale>
<asrwt>0</asrwt>
<pdfrwt beam="1">  1        2 0.73095500E-01 0.66971930E+03</pdfrwt>
<pdfrwt beam="2">  1       -2 0.36308498E-01 0.66971930E+03</pdfrwt>
<totfact> 0.46991708E+02</totfact>
</mgrwt>
</event>
<event>
 6    1  0.1885829E-005  0.3167164E+04  0.7818608E-02  0.8197543E-01
          2   -1    0    0  501    0  0.00000000000E+00  0.00000000000E+00  0.24478425658E+04  0.24478425658E+04  0.00000000000E+00 0.  1.
         -2   -1    0    0    0  501 -0.00000000000E+00 -0.00000000000E+00 -0.10244662547E+04  0.10244662547E+04  0.00000000000E+00 0. -1.
         23    2    1    2    0    0  0.93763058108E+02 -0.91534588140E+03  0.21234973316E+04  0.23160999134E+04  0.91805763477E+02 0.  0.
         13    1    3    3    0    0 -0.17586044417E+02 -0.19639161382E+03  0.45416064191E+03  0.49511697971E+03  0.00000000000E+00 0.  1.
        -13    1    3    3    0    0  0.11134910253E+03 -0.71895426759E+03  0.16693366896E+04  0.18209829337E+04  0.00000000000E+00 0. -1.
         22    1    1    2    0    0 -0.93763058108E+02  0.91534588140E+03 -0.70012102043E+03  0.11562089071E+04  0.00000000000E+00 0. -1.
<mgrwt>
<rscale>  0 0.31671641E+04</rscale>
<asrwt>0</asrwt>
<pdfrwt beam="1">  1        2 0.37659116E+00 0.31671641E+04</pdfrwt>
<pdfrwt beam="2">  1       -2 0.15761019E+00 0.31671641E+04</pdfrwt>
<totfact> 0.82663361E-01</totfact>
</mgrwt>
</event>
<event>
 6    1  0.1885829E-005  0.3426397E+04  0.7818608E-02  0.8131458E-01
         -2   -1    0    0    0  501 -0.00000000000E+00  0.00000000000E+00  0.77538796771E+03  0.77538796771E+03  0.00000000000E+00 0.  1.
          2   -1    0    0  501    0  0.00000000000E+00 -0.00000000000E+00 -0.37852642686E+04  0.37852642686E+04  0.00000000000E+00 0. -1.
         23    2    1    2    0    0 -0.94804227789E+03  0.22116921558E+03  0.36845543916E+03  0.10448556938E+04  0.90906697208E+02 0.  0.
         13    1    3    3    0    0 -0.96979878157E+02  0.14317589985E+02  0.66363258762E+02  0.11838146926E+03  0.00000000000E+00 0.  1.
        -13    1    3    3    0    0 -0.85106239973E+03  0.20685162560E+03  0.30209218040E+03  0.92647422452E+03  0.00000000000E+00 0. -1.
         22    1    1    2    0    0  0.94804227789E+03 -0.22116921558E+03 -0.33783317400E+04  0.35157965425E+04  0.00000000000E+00 0. -1.
<mgrwt>
<rscale>  0 0.34263966E+04</rscale>
<asrwt>0</asrwt>
<pdfrwt beam="1">  1        2 0.58234835E+00 0.34263966E+04</pdfrwt>
<pdfrwt beam="2">  1       -2 0.11929046E+00 0.34263966E+04</pdfrwt>
<totfact> 0.22403387E-01</totfact>
</mgrwt>
</event>
<event>
 6    1  0.1885829E-005  0.3758657E+04  0.7818608E-02  0.8055086E-01
         -4   -1    0    0    0  501 -0.00000000000E+00  0.00000000000E+00  0.10545794409E+04  0.10545794409E+04  0.00000000000E+00 0.  1.
          4   -1    0    0  501    0  0.00000000000E+00 -0.00000000000E+00 -0.33490846894E+04  0.33490846894E+04  0.00000000000E+00 0. -1.
         23    2    1    2    0    0  0.41711802732E+03 -0.15580818125E+04 -0.20408471921E+02  0.16156321124E+04  0.90797762250E+02 0.  0.
         13    1    3    3    0    0  0.18497222082E+03 -0.67463556456E+03  0.35949609661E+02  0.70045716634E+03  0.00000000000E+00 0. -1.
        -13    1    3    3    0    0  0.23214580649E+03 -0.88344624796E+03 -0.56358081582E+02  0.91517494605E+03  0.00000000000E+00 0.  1.
         22    1    1    2    0    0 -0.41711802732E+03  0.15580818125E+04 -0.22740967767E+04  0.27880320179E+04  0.00000000000E+00 0. -1.
<mgrwt>
<rscale>  0 0.37586571E+04</rscale>
<asrwt>0</asrwt>
<pdfrwt beam="1">  1        4 0.51524380E+00 0.37586571E+04</pdfrwt>
<pdfrwt beam="2">  1       -4 0.16224299E+00 0.37586571E+04</pdfrwt>
<totfact> 0.34472982E-04</totfact>
</mgrwt>
</event>
<event>
 6    1  0.1885829E-005  0.3219561E+04  0.7818608E-02  0.8183670E-01
          2   -1    0    0  501    0  0.00000000000E+00  0.00000000000E+00  0.20075258809E+04  0.20075258809E+04  0.00000000000E+00 0. -1.
         -2   -1    0    0    0  501 -0.00000000000E+00 -0.00000000000E+00 -0.12908389874E+04  0.12908389874E+04  0.00000000000E+00 0.  1.
         23    2    1    2    0    0  0.77095111995E+03  0.10431258327E+04  0.13330222490E+04  0.18622776834E+04  0.93020005926E+02 0.  0.
         11    1    3    3    0    0  0.57667414229E+03  0.75105091892E+03  0.10251073294E+04  0.13955198265E+04  0.00000000000E+00 0.  1.
        -11    1    3    3    0    0  0.19427697766E+03  0.29207491375E+03  0.30791491960E+03  0.46675785693E+03  0.00000000000E+00 0. -1.
         22    1    1    2    0    0 -0.77095111995E+03 -0.10431258327E+04 -0.61633535555E+03  0.14360871849E+04  0.00000000000E+00 0.  1.
<mgrwt>
<rscale>  0 0.32195606E+04</rscale>
<asrwt>0</asrwt>
<pdfrwt beam="1">  1        2 0.30885013E+00 0.32195606E+04</pdfrwt>
<pdfrwt beam="2">  1       -2 0.19859061E+00 0.32195606E+04</pdfrwt>
<totfact> 0.75591300E-01</totfact>
</mgrwt>
</event>
<event>
 6    1  0.1885829E-005  0.7863557E+04  0.7818608E-02  0.7494390E-01
         -1   -1    0    0    0  501 -0.00000000000E+00  0.00000000000E+00  0.43684409003E+04  0.43684409003E+04  0.00000000000E+00 0.  1.
          1   -1    0    0  501    0  0.00000000000E+00 -0.00000000000E+00 -0.35387645421E+04  0.35387645421E+04  0.00000000000E+00 0. -1.
         23    2    1    2    0    0  0.17825054017E+04  0.28357833119E+04 -0.16546444897E+04  0.37369725263E+04  0.90126445419E+02 0.  0.
         11    1    3    3    0    0  0.15261114705E+04  0.23934652567E+04 -0.14316557056E+04  0.31792027641E+04  0.00000000000E+00 0. -1.
        -11    1    3    3    0    0  0.25639393119E+03  0.44231805518E+03 -0.22298878408E+03  0.55776976228E+03  0.00000000000E+00 0.  1.
         22    1    1    2    0    0 -0.17825054017E+04 -0.28357833119E+04  0.24843208479E+04  0.41702329161E+04  0.00000000000E+00 0. -1.
<mgrwt>
<rscale>  0 0.78635574E+04</rscale>
<asrwt>0</asrwt>
<pdfrwt beam="1">  1        1 0.54442532E+00 0.78635574E+04</pdfrwt>
<pdfrwt beam="2">  1       -1 0.67206783E+00 0.78635574E+04</pdfrwt>
<totfact> 0.34785361E-05</totfact>
</mgrwt>
</event>
<event>
 6    1  0.1885829E-005  0.1197576E+04  0.7818608E-02  0.9114981E-01
         -2   -1    0    0    0  501 -0.00000000000E+00  0.00000000000E+00  0.48339905069E+03  0.48339905069E+03  0.00000000000E+00 0. -1.
          2   -1    0    0  501    0  0.00000000000E+00 -0.00000000000E+00 -0.74172059127E+03  0.74172059127E+03  0.00000000000E+00 0.  1.
         23    2    1    2    0    0  0.14870425959E+03 -0.41718927620E+03 -0.53701325330E+03  0.70183299037E+03  0.89590530459E+02 0.  0.
         11    1    3    3    0    0  0.80956412000E+02 -0.10712111197E+03 -0.14985493948E+03  0.20120978147E+03  0.00000000000E+00 0. -1.
        -11    1    3    3    0    0  0.67747847593E+02 -0.31006816423E+03 -0.38715831382E+03  0.50062320889E+03  0.00000000000E+00 0.  1.
         22    1    1    2    0    0 -0.14870425959E+03  0.41718927620E+03  0.27869171271E+03  0.52328665159E+03  0.00000000000E+00 0. -1.
<mgrwt>
<rscale>  0 0.11975759E+04</rscale>
<asrwt>0</asrwt>
<pdfrwt beam="1">  1        2 0.11411086E+00 0.11975759E+04</pdfrwt>
<pdfrwt beam="2">  1       -2 0.74369085E-01 0.11975759E+04</pdfrwt>
<totfact> 0.61117134E+01</totfact>
</mgrwt>
</event>
<event>
 6    1  0.1885829E-005  0.1725151E+04  0.7818608E-02  0.8747148E-01
         -2   -1    0    0    0  501 -0.00000000000E+00  0.00000000000E+00  0.40058044585E+03  0.40058044585E+03  0.00000000000E+00 0.  1.
          2   -1    0    0  501    0  0.00000000000E+00 -0.00000000000E+00 -0.18573961289E+04  0.18573961289E+04  0.00000000000E+00 0. -1.
         23    2    1    2    0    0 -0.52030410356E+02 -0.31618052642E+03  0.31446662502E+03  0.45794371289E+03  0.90254623333E+02 0.  0.
         13    1    3    3    0    0 -0.77784667748E+02 -0.22061353573E+03  0.22098558138E+03  0.32180027014E+03  0.00000000000E+00 0. -1.
        -13    1    3    3    0    0  0.25754257392E+02 -0.95566990698E+02  0.93481043634E+02  0.13614344275E+03  0.00000000000E+00 0.  1.
         22    1    1    2    0    0  0.52030410356E+02  0.31618052642E+03 -0.17712823081E+04  0.18000328619E+04  0.00000000000E+00 0. -1.
<mgrwt>
<rscale>  0 0.17251511E+04</rscale>
<asrwt>0</asrwt>
<pdfrwt beam="1">  1        2 0.28575325E+00 0.17251511E+04</pdfrwt>
<pdfrwt beam="2">  1       -2 0.61627761E-01 0.17251511E+04</pdfrwt>
<totfact> 0.18631479E+01</totfact>
</mgrwt>
</event>
<event>
 6    1  0.1885829E-005  0.1917749E+04  0.7818608E-02  0.8646072E-01
          1   -1    0    0  501    0  0.00000000000E+00  0.00000000000E+00  0.27247549678E+04  0.27247549678E+04  0.00000000000E+00 0. -1.
         -1   -1    0    0    0  501 -0.00000000000E+00 -0.00000000000E+00 -0.33743952920E+03  0.33743952920E+03  0.00000000000E+00 0.  1.
         23    2    1    2    0    0  0.82038243968E+03  0.46039157717E+03  0.14744926924E+04  0.17513805828E+04  0.90650395942E+02 0.  0.
         13    1    3    3    0    0  0.54591419301E+03  0.27086099960E+03  0.10081676277E+04  0.11780449706E+04  0.00000000000E+00 0. -1.
        -13    1    3    3    0    0  0.27446824666E+03  0.18953057756E+03  0.46632506464E+03  0.57333561216E+03  0.00000000000E+00 0.  1.
         22    1    1    2    0    0 -0.82038243968E+03 -0.46039157717E+03  0.91282274624E+03  0.13108139142E+04  0.00000000000E+00 0.  1.
<mgrwt>
<rscale>  0 0.19177487E+04</rscale>
<asrwt>0</asrwt>
<pdfrwt beam="1">  1        1 0.41919306E+00 0.19177487E+04</pdfrwt>
<pdfrwt beam="2">  1       -1 0.51913775E-01 0.19177487E+04</pdfrwt>
<totfact> 0.32937466E+00</totfact>
</mgrwt>
</event>
<event>
 6    1  0.1885829E-005  0.3416491E+04  0.7818608E-02  0.8133871E-01
          2   -1    0    0  501    0  0.00000000000E+00  0.00000000000E+00  0.26695126754E+04  0.26695126754E+04  0.00000000000E+00 0. -1.
         -2   -1    0    0    0  501 -0.00000000000E+00 -0.00000000000E+00 -0.10931219445E+04  0.10931219445E+04  0.00000000000E+00 0.  1.
         23    2    1    2    0    0 -0.90599265428E+03  0.38545595972E+02  0.23817451194E+04  0.25498262494E+04  0.81213518198E+02 0.  0.
         11    1    3    3    0    0 -0.30543296438E+03  0.44086618859E+02  0.87293851770E+03  0.92588043579E+03  0.00000000000E+00 0. -1.
        -11    1    3    3    0    0 -0.60055968990E+03 -0.55410228874E+01  0.15088066017E+04  0.16239458136E+04  0.00000000000E+00 0.  1.
         22    1    1    2    0    0  0.90599265428E+03 -0.38545595972E+02 -0.80535438852E+03  0.12128083706E+04  0.00000000000E+00 0.  1.
<mgrwt>
<rscale>  0 0.34164911E+04</rscale>
<asrwt>0</asrwt>
<pdfrwt beam="1">  1        2 0.41069426E+00 0.34164911E+04</pdfrwt>
<pdfrwt beam="2">  1       -2 0.16817261E+00 0.34164911E+04</pdfrwt>
<totfact> 0.50296398E-01</totfact>
</mgrwt>
</event>
<event>
 6    1  0.1885829E-005  0.4223953E+04  0.7818608E-02  0.7960831E-01
          1   -1    0    0  501    0  0.00000000000E+00  0.00000000000E+00  0.10731787066E+04  0.10731787066E+04  0.00000000000E+00 0. -1.
         -1   -1    0    0    0  501 -0.00000000000E+00 -0.00000000000E+00 -0.41562928920E+04  0.41562928920E+04  0.00000000000E+00 0.  1.
         23    2    1    2    0    0  0.45000720769E+02 -0.19887008801E+04 -0.66742234197E+03  0.21001708240E+04  0.91151808062E+02 0.  0.
         11    1    3    3    0    0  0.38916610895E+02 -0.15608484086E+04 -0.48412207235E+03  0.16346670726E+04  0.00000000000E+00 0. -1.
        -11    1    3    3    0    0  0.60841098744E+01 -0.42785247149E+03 -0.18330026962E+03  0.46550375143E+03  0.00000000000E+00 0.  1.
         22    1    1    2    0    0 -0.45000720769E+02  0.19887008801E+04 -0.24156918434E+04  0.31293007746E+04  0.00000000000E+00 0.  1.
<mgrwt>
<rscale>  0 0.42239531E+04</rscale>
<asrwt>0</asrwt>
<pdfrwt beam="1">  1        1 0.16510441E+00 0.42239531E+04</pdfrwt>
<pdfrwt beam="2">  1       -1 0.63942970E+00 0.42239531E+04</pdfrwt>
<totfact> 0.32473218E-03</totfact>
</mgrwt>
</event>
<event>
 6    1  0.1885829E-005  0.1435856E+04  0.7818608E-02  0.8928265E-01
          2   -1    0    0  501    0  0.00000000000E+00  0.00000000000E+00  0.24220832910E+04  0.24220832910E+04  0.00000000000E+00 0. -1.
         -2   -1    0    0    0  501 -0.00000000000E+00 -0.00000000000E+00 -0.21280051229E+03  0.21280051229E+03  0.00000000000E+00 0.  1.
         23    2    1    2    0    0  0.25763636342E+03 -0.16869174714E+03  0.22932910398E+04  0.23156804366E+04  0.91425870833E+02 0.  0.
         11    1    3    3    0    0  0.14324850903E+03 -0.48483824727E+02  0.12783327813E+04  0.12872472631E+04  0.00000000000E+00 0. -1.
        -11    1    3    3    0    0  0.11438785439E+03 -0.12020792242E+03  0.10149582586E+04  0.10284331736E+04  0.00000000000E+00 0.  1.
         22    1    1    2    0    0 -0.25763636342E+03  0.16869174714E+03 -0.84008261172E+02  0.31920336661E+03  0.00000000000E+00 0.  1.
<mgrwt>
<rscale>  0 0.14358559E+04</rscale>
<asrwt>0</asrwt>
<pdfrwt beam="1">  1        2 0.37262818E+00 0.14358559E+04</pdfrwt>
<pdfrwt beam="2">  1       -2 0.32738542E-01 0.14358559E+04</pdfrwt>
<totfact> 0.32701386E+01</totfact>
</mgrwt>
</event>
<event>
 6    1  0.1885829E-005  0.7225634E+03  0.7818608E-02  0.9679405E-01
         -1   -1    0    0    0  501 -0.00000000000E+00  0.00000000000E+00  0.62978666228E+02  0.62978666228E+02  0.00000000000E+00 0.  1.
          1   -1    0    0  501    0  0.00000000000E+00 -0.00000000000E+00 -0.20725187410E+04  0.20725187410E+04  0.00000000000E+00 0. -1.
         23    2    1    2    0    0  0.21098519157E+02  0.28049504712E+03 -0.16625329251E+04  0.16888022305E+04  0.94417306820E+02 0.  0.
         13    1    3    3    0    0 -0.84064952529E+01  0.14291355958E+03 -0.59212612609E+03  0.60918659200E+03  0.00000000000E+00 0.  1.
        -13    1    3    3    0    0  0.29505014410E+02  0.13758148755E+03 -0.10704067990E+04  0.10796156385E+04  0.00000000000E+00 0. -1.
         22    1    1    2    0    0 -0.21098519157E+02 -0.28049504712E+03 -0.34700714972E+03  0.44669517674E+03  0.00000000000E+00 0.  1.
<mgrwt>
<rscale>  0 0.72256340E+03</rscale>
<asrwt>0</asrwt>
<pdfrwt beam="1">  1        1 0.31884901E+00 0.72256340E+03</pdfrwt>
<pdfrwt beam="2">  1       -1 0.96890264E-02 0.72256340E+03</pdfrwt>
<totfact> 0.18241217E+02</totfact>
</mgrwt>
</event>
<event>
 6    1  0.1885829E-005  0.7042267E+03  0.7818608E-02  0.9710031E-01
         -2   -1    0    0    0  501 -0.00000000000E+00  0.00000000000E+00  0.24409996354E+03  0.24409996354E+03  0.00000000000E+00 0.  1.
          2   -1    0    0  501    0  0.00000000000E+00 -0.00000000000E+00 -0.50792232436E+03  0.50792232436E+03  0.00000000000E+00 0. -1.
         23    2    1    2    0    0  0.13648995941E+03  0.19987545644E+03 -0.39850170154E+03  0.47504172555E+03  0.91001800939E+02 0.  0.
         11    1    3    3    0    0  0.13506726718E+03  0.14885755699E+03 -0.26866028718E+03  0.33552956479E+03  0.00000000000E+00 0.  1.
        -11    1    3    3    0    0  0.14226922277E+01  0.51017899445E+02 -0.12984141436E+03  0.13951216076E+03  0.00000000000E+00 0. -1.
         22    1    1    2    0    0 -0.13648995941E+03 -0.19987545644E+03  0.13467934072E+03  0.27698056236E+03  0.00000000000E+00 0.  1.
<mgrwt>
<rscale>  0 0.70422673E+03</rscale>
<asrwt>0</asrwt>
<pdfrwt beam="1">  1        2 0.78141896E-01 0.70422673E+03</pdfrwt>
<pdfrwt beam="2">  1       -2 0.37553841E-01 0.70422673E+03</pdfrwt>
<totfact> 0.40742490E+02</totfact>
</mgrwt>
</event>
<event>
 6    1  0.1885829E-005  0.1680854E+04  0.7818608E-02  0.8772360E-01
         -2   -1    0    0    0  501 -0.00000000000E+00  0.00000000000E+00  0.46143451921E+03  0.46143451921E+03  0.00000000000E+00 0. -1.
          2   -1    0    0  501    0  0.00000000000E+00 -0.00000000000E+00 -0.15306996197E+04  0.15306996197E+04  0.00000000000E+00 0.  1.
         23    2    1    2    0    0 -0.42095164809E+03 -0.72405493247E+03 -0.56918850743E+03  0.10166688990E+04  0.90466889057E+02 0.  0.
         11    1    3    3    0    0 -0.18561856025E+03 -0.30838335734E+03 -0.19139766372E+03  0.40766114687E+03  0.00000000000E+00 0.  1.
        -11    1    3    3    0    0 -0.23533308785E+03 -0.41567157514E+03 -0.37779084372E+03  0.60900775217E+03  0.00000000000E+00 0. -1.
         22    1    1    2    0    0  0.42095164809E+03  0.72405493247E+03 -0.50007659309E+03  0.97546523989E+03  0.00000000000E+00 0.  1.
<mgrwt>
<rscale>  0 0.16808541E+04</rscale>
<asrwt>0</asrwt>
<pdfrwt beam="1">  1        2 0.23549225E+00 0.16808541E+04</pdfrwt>
<pdfrwt beam="2">  1       -2 0.70989927E-01 0.16808541E+04</pdfrwt>
<totfact> 0.20951891E+01</totfact>
</mgrwt>
</event>
<event>
 6    1  0.1885829E-005  0.6642286E+03  0.7818608E-02  0.9780441E-01
          2   -1    0    0  501    0  0.00000000000E+00  0.00000000000E+00  0.16644784125E+03  0.16644784125E+03  0.00000000000E+00 0. -1.
         -2   -1    0    0    0  501 -0.00000000000E+00 -0.00000000000E+00 -0.66266951932E+03  0.66266951932E+03  0.00000000000E+00 0.  1.
         23    2    1    2    0    0 -0.17948174289E+03 -0.41222127108E+02  0.80186482690E+02  0.22400635622E+03  0.99176689937E+02 0.  0.
         11    1    3    3    0    0 -0.97709287243E+02 -0.67777401707E+02  0.24041076953E+02  0.12132128575E+03  0.00000000000E+00 0.  1.
        -11    1    3    3    0    0 -0.81772455645E+02  0.26555274599E+02  0.56145405737E+02  0.10268507047E+03  0.00000000000E+00 0. -1.
         22    1    1    2    0    0  0.17948174289E+03  0.41222127108E+02 -0.57640816077E+03  0.60511100435E+03  0.00000000000E+00 0.  1.
<mgrwt>
<rscale>  0 0.66422861E+03</rscale>
<asrwt>0</asrwt>
<pdfrwt beam="1">  1        2 0.25607360E-01 0.66422861E+03</pdfrwt>
<pdfrwt beam="2">  1       -2 0.10194916E+00 0.66422861E+03</pdfrwt>
<totfact> 0.17006636E+02</totfact>
</mgrwt>
</event>
<event>
 6    1  0.1885829E-005  0.1339986E+04  0.7818608E-02  0.8998443E-01
          2   -1    0    0  501    0  0.00000000000E+00  0.00000000000E+00  0.20836225381E+04  0.20836225381E+04  0.00000000000E+00 0. -1.
         -2   -1    0    0    0  501 -0.00000000000E+00 -0.00000000000E+00 -0.21543770980E+03  0.21543770980E+03  0.00000000000E+00 0.  1.
         23    2    1    2    0    0  0.30326624072E+03 -0.29375872692E+03  0.18241360512E+04  0.18745547742E+04  0.90656858883E+02 0.  0.
         13    1    3    3    0    0  0.20841424105E+03 -0.25383465522E+03  0.13497028964E+04  0.13890883473E+04  0.00000000000E+00 0.  1.
        -13    1    3    3    0    0  0.94851999668E+02 -0.39924071700E+02  0.47443315471E+03  0.48546642689E+03  0.00000000000E+00 0. -1.
         22    1    1    2    0    0 -0.30326624072E+03  0.29375872692E+03  0.44048777148E+02  0.42450547367E+03  0.00000000000E+00 0.  1.
<mgrwt>
<rscale>  0 0.13399864E+04</rscale>
<asrwt>0</asrwt>
<pdfrwt beam="1">  1        2 0.32055730E+00 0.13399864E+04</pdfrwt>
<pdfrwt beam="2">  1       -2 0.33144265E-01 0.13399864E+04</pdfrwt>
<totfact> 0.49915241E+01</totfact>
</mgrwt>
</event>
<event>
 6    1  0.1885829E-005  0.3474779E+04  0.7818608E-02  0.8119793E-01
         -2   -1    0    0    0  501 -0.00000000000E+00  0.00000000000E+00  0.15469066842E+04  0.15469066842E+04  0.00000000000E+00 0.  1.
          2   -1    0    0  501    0  0.00000000000E+00 -0.00000000000E+00 -0.19513281620E+04  0.19513281620E+04  0.00000000000E+00 0. -1.
         23    2    1    2    0    0  0.88559958794E+03 -0.31343006651E+03 -0.16722536372E+04  0.19202857275E+04  0.92412181138E+02 0.  0.
         13    1    3    3    0    0  0.34674006178E+03 -0.17055063057E+03 -0.67330251500E+03  0.77630693977E+03  0.00000000000E+00 0. -1.
        -13    1    3    3    0    0  0.53885952616E+03 -0.14287943594E+03 -0.99895112224E+03  0.11439787877E+04  0.00000000000E+00 0.  1.
         22    1    1    2    0    0 -0.88559958794E+03  0.31343006651E+03  0.12678321594E+04  0.15779491187E+04  0.00000000000E+00 0.  1.
<mgrwt>
<rscale>  0 0.34747792E+04</rscale>
<asrwt>0</asrwt>
<pdfrwt beam="1">  1        2 0.30020433E+00 0.34747792E+04</pdfrwt>
<pdfrwt beam="2">  1       -2 0.23798564E+00 0.34747792E+04</pdfrwt>
<totfact> 0.44641151E-01</totfact>
</mgrwt>
</event>
<event>
 6    1  0.1885829E-005  0.1939225E+04  0.7818608E-02  0.8635574E-01
          2   -1    0    0  501    0  0.00000000000E+00  0.00000000000E+00  0.81310530798E+03  0.81310530798E+03  0.00000000000E+00 0. -1.
         -2   -1    0    0    0  501 -0.00000000000E+00 -0.00000000000E+00 -0.11562443065E+04  0.11562443065E+04  0.00000000000E+00 0.  1.
         23    2    1    2    0    0 -0.65016213616E+03 -0.53124148864E+03  0.31387311357E+03  0.90323834543E+03  0.11133218177E+03 0.  0.
         13    1    3    3    0    0 -0.26895136121E+03 -0.18898782112E+03  0.71074288731E+02  0.33630757611E+03  0.00000000000E+00 0.  1.
        -13    1    3    3    0    0 -0.38121077494E+03 -0.34225366752E+03  0.24279882484E+03  0.56693076932E+03  0.00000000000E+00 0. -1.
         22    1    1    2    0    0  0.65016213616E+03  0.53124148864E+03 -0.65701211206E+03  0.10661112690E+04  0.00000000000E+00 0.  1.
<mgrwt>
<rscale>  0 0.19392250E+04</rscale>
<asrwt>0</asrwt>
<pdfrwt beam="1">  1        2 0.12509312E+00 0.19392250E+04</pdfrwt>
<pdfrwt beam="2">  1       -2 0.17788374E+00 0.19392250E+04</pdfrwt>
<totfact> 0.58993610E+00</totfact>
</mgrwt>
</event>
<event>
 6    1  0.1885829E-005  0.3910861E+04  0.7818608E-02  0.8022774E-01
          2   -1    0    0  501    0  0.00000000000E+00  0.00000000000E+00  0.37031123663E+04  0.37031123663E+04  0.00000000000E+00 0. -1.
         -2   -1    0    0    0  501 -0.00000000000E+00 -0.00000000000E+00 -0.10325659990E+04  0.10325659990E+04  0.00000000000E+00 0.  1.
         23    2    1    2    0    0 -0.10919132681E+04 -0.62648769191E+03  0.31462988594E+04  0.33899065247E+04  0.86650568496E+02 0.  0.
         11    1    3    3    0    0 -0.57380344778E+03 -0.37863214238E+03  0.17007125073E+04  0.18344033712E+04  0.00000000000E+00 0. -1.
        -11    1    3    3    0    0 -0.51810982031E+03 -0.24785554953E+03  0.14455863521E+04  0.15555031535E+04  0.00000000000E+00 0.  1.
         22    1    1    2    0    0  0.10919132681E+04  0.62648769191E+03 -0.47575249202E+03  0.13457718406E+04  0.00000000000E+00 0.  1.
<mgrwt>
<rscale>  0 0.39108607E+04</rscale>
<asrwt>0</asrwt>
<pdfrwt beam="1">  1        2 0.56970959E+00 0.39108607E+04</pdfrwt>
<pdfrwt beam="2">  1       -2 0.15885631E+00 0.39108607E+04</pdfrwt>
<totfact> 0.11820944E-01</totfact>
</mgrwt>
</event>
<event>
 6    1  0.1885829E-005  0.2548653E+04  0.7818608E-02  0.8385855E-01
         -2   -1    0    0    0  501 -0.00000000000E+00  0.00000000000E+00  0.61138064355E+03  0.61138064355E+03  0.00000000000E+00 0.  1.
          2   -1    0    0  501    0  0.00000000000E+00 -0.00000000000E+00 -0.26561321889E+04  0.26561321889E+04  0.00000000000E+00 0. -1.
         23    2    1    2    0    0  0.48465637656E+03 -0.83452157353E+03  0.40141012896E+02  0.97010232507E+03  0.90383406407E+02 0.  0.
         11    1    3    3    0    0  0.15857982057E+03 -0.23339850520E+03  0.47785481014E+02  0.28619202280E+03  0.00000000000E+00 0. -1.
        -11    1    3    3    0    0  0.32607655599E+03 -0.60112306834E+03 -0.76444681179E+01  0.68391030227E+03  0.00000000000E+00 0.  1.
         22    1    1    2    0    0 -0.48465637656E+03  0.83452157353E+03 -0.20848925582E+04  0.22974105074E+04  0.00000000000E+00 0. -1.
<mgrwt>
<rscale>  0 0.25486528E+04</rscale>
<asrwt>0</asrwt>
<pdfrwt beam="1">  1        2 0.40863572E+00 0.25486528E+04</pdfrwt>
<pdfrwt beam="2">  1       -2 0.94058562E-01 0.25486528E+04</pdfrwt>
<totfact> 0.23890720E+00</totfact>
</mgrwt>
</event>
<event>
 6    1  0.1885829E-005  0.3109348E+04  0.7818608E-02  0.8213177E-01
         -1   -1    0    0    0  501 -0.00000000000E+00  0.00000000000E+00  0.89985921565E+03  0.89985921565E+03  0.00000000000E+00 0.  1.
          1   -1    0    0  501    0  0.00000000000E+00 -0.00000000000E+00 -0.26859888519E+04  0.26859888519E+04  0.00000000000E+00 0. -1.
         23    2    1    2    0    0  0.19569930196E+03 -0.93539357062E+03  0.51834202146E+03  0.10910837561E+04  0.92336140263E+02 0.  0.
         11    1    3    3    0    0  0.51247971233E+02 -0.33219370004E+03  0.22858479185E+03  0.40648495171E+03  0.00000000000E+00 0. -1.
        -11    1    3    3    0    0  0.14445133073E+03 -0.60319987057E+03  0.28975722961E+03  0.68459880435E+03  0.00000000000E+00 0.  1.
         22    1    1    2    0    0 -0.19569930196E+03  0.93539357062E+03 -0.23044716577E+04  0.24947643115E+04  0.00000000000E+00 0. -1.
<mgrwt>
<rscale>  0 0.31093484E+04</rscale>
<asrwt>0</asrwt>
<pdfrwt beam="1">  1        1 0.41322905E+00 0.31093484E+04</pdfrwt>
<pdfrwt beam="2">  1       -1 0.13843988E+00 0.31093484E+04</pdfrwt>
<totfact> 0.36517498E-01</totfact>
</mgrwt>
</event>
<event>
 6    1  0.1885829E-005  0.2317422E+04  0.7818608E-02  0.8471084E-01
          2   -1    0    0  501    0  0.00000000000E+00  0.00000000000E+00  0.49550372220E+03  0.49550372220E+03  0.00000000000E+00 0.  1.
         -2   -1    0    0    0  501 -0.00000000000E+00 -0.00000000000E+00 -0.27095875874E+04  0.27095875874E+04  0.00000000000E+00 0. -1.
         23    2    1    2    0    0 -0.10360389335E+04 -0.44687601064E+03 -0.14622671606E+04  0.18492509068E+04  0.91808641565E+02 0.  0.
         13    1    3    3    0    0 -0.23435501891E+03 -0.13854650597E+03 -0.32172184606E+03  0.42145267283E+03  0.00000000000E+00 0.  1.
        -13    1    3    3    0    0 -0.80168391457E+03 -0.30832950467E+03 -0.11405453146E+04  0.14277982340E+04  0.00000000000E+00 0. -1.
         22    1    1    2    0    0  0.10360389335E+04  0.44687601064E+03 -0.75181670456E+03  0.13558404028E+04  0.00000000000E+00 0. -1.
<mgrwt>
<rscale>  0 0.23174216E+04</rscale>
<asrwt>0</asrwt>
<pdfrwt beam="1">  1        2 0.76231343E-01 0.23174216E+04</pdfrwt>
<pdfrwt beam="2">  1       -2 0.41685962E+00 0.23174216E+04</pdfrwt>
<totfact> 0.32426510E-01</totfact>
</mgrwt>
</event>
<event>
 6    1  0.1885829E-005  0.2555429E+04  0.7818608E-02  0.8383501E-01
          2   -1    0    0  501    0  0.00000000000E+00  0.00000000000E+00  0.64536638802E+03  0.64536638802E+03  0.00000000000E+00 0. -1.
         -2   -1    0    0    0  501 -0.00000000000E+00 -0.00000000000E+00 -0.25296541338E+04  0.25296541338E+04  0.00000000000E+00 0.  1.
         23    2    1    2    0    0  0.78490569947E+03 -0.83997544015E+03 -0.25517865450E+03  0.11811217961E+04  0.91087070434E+02 0.  0.
         13    1    3    3    0    0  0.69453584102E+02 -0.41654084083E+02 -0.24104830972E+02  0.84497964127E+02  0.00000000000E+00 0. -1.
        -13    1    3    3    0    0  0.71545211537E+03 -0.79832135607E+03 -0.23107382353E+03  0.10966238320E+04  0.00000000000E+00 0.  1.
         22    1    1    2    0    0 -0.78490569947E+03  0.83997544015E+03 -0.16291090913E+04  0.19938987258E+04  0.00000000000E+00 0. -1.
<mgrwt>
<rscale>  0 0.25554285E+04</rscale>
<asrwt>0</asrwt>
<pdfrwt beam="1">  1        2 0.99287138E-01 0.25554285E+04</pdfrwt>
<pdfrwt beam="2">  1       -2 0.38917755E+00 0.25554285E+04</pdfrwt>
<totfact> 0.35174999E-01</totfact>
</mgrwt>
</event>
<event>
 6    1  0.1885829E-005  0.5716561E+04  0.7818608E-02  0.7726573E-01
          2   -1    0    0  501    0  0.00000000000E+00  0.00000000000E+00  0.26047539873E+04  0.26047539873E+04  0.00000000000E+00 0. -1.
         -2   -1    0    0    0  501 -0.00000000000E+00 -0.00000000000E+00 -0.31364837173E+04  0.31364837173E+04  0.00000000000E+00 0.  1.
         23    2    1    2    0    0  0.14144488203E+04 -0.94945253565E+03  0.20381822176E+04  0.26579646060E+04  0.91997347250E+02 0.  0.
         11    1    3    3    0    0  0.56267797105E+03 -0.34192262947E+03  0.83985598206E+03  0.10671811722E+04  0.00000000000E+00 0.  1.
        -11    1    3    3    0    0  0.85177084928E+03 -0.60752990618E+03  0.11983262355E+04  0.15907834338E+04  0.00000000000E+00 0. -1.
         22    1    1    2    0    0 -0.14144488203E+04  0.94945253565E+03 -0.25699119475E+04  0.30832730987E+04  0.00000000000E+00 0.  1.
<mgrwt>
<rscale>  0 0.57165614E+04</rscale>
<asrwt>0</asrwt>
<pdfrwt beam="1">  1        2 0.40073139E+00 0.57165614E+04</pdfrwt>
<pdfrwt beam="2">  1       -2 0.48253595E+00 0.57165614E+04</pdfrwt>
<totfact> 0.44598249E-03</totfact>
</mgrwt>
</event>
<event>
 6    1  0.1885829E-005  0.1448132E+04  0.7818608E-02  0.8919696E-01
         -1   -1    0    0    0  501 -0.00000000000E+00  0.00000000000E+00  0.48826761587E+03  0.48826761587E+03  0.00000000000E+00 0.  1.
          1   -1    0    0  501    0  0.00000000000E+00 -0.00000000000E+00 -0.10737387953E+04  0.10737387953E+04  0.00000000000E+00 0. -1.
         23    2    1    2    0    0 -0.18655878923E+03  0.94759638506E+02  0.45059747438E+03  0.50501926539E+03  0.90679675628E+02 0.  0.
         13    1    3    3    0    0 -0.14848824655E+03  0.49669179480E+02  0.24200533614E+03  0.28824012468E+03  0.00000000000E+00 0. -1.
        -13    1    3    3    0    0 -0.38070542688E+02  0.45090459026E+02  0.20859213824E+03  0.21677914072E+03  0.00000000000E+00 0.  1.
         22    1    1    2    0    0  0.18655878923E+03 -0.94759638506E+02 -0.10360686538E+04  0.10569871457E+04  0.00000000000E+00 0. -1.
<mgrwt>
<rscale>  0 0.14481324E+04</rscale>
<asrwt>0</asrwt>
<pdfrwt beam="1">  1        1 0.16519058E+00 0.14481324E+04</pdfrwt>
<pdfrwt beam="2">  1       -1 0.75118096E-01 0.14481324E+04</pdfrwt>
<totfact> 0.22979311E+01</totfact>
</mgrwt>
</event>
<event>
 6    1  0.1885829E-005  0.1737150E+04  0.7818608E-02  0.8740455E-01
          2   -1    0    0  501    0  0.00000000000E+00  0.00000000000E+00  0.65069654441E+03  0.65069654441E+03  0.00000000000E+00 0. -1.
         -2   -1    0    0    0  501 -0.00000000000E+00 -0.00000000000E+00 -0.11594077945E+04  0.11594077945E+04  0.00000000000E+00 0.  1.
         23    2    1    2    0    0  0.31038199222E+03 -0.24938250786E+03 -0.10564392245E+04  0.11329525463E+04  0.94810446960E+02 0.  0.
         13    1    3    3    0    0  0.23254937796E+02 -0.40019370111E+02 -0.20827738827E+03  0.21335841343E+03  0.00000000000E+00 0.  1.
        -13    1    3    3    0    0  0.28712705442E+03 -0.20936313775E+03 -0.84816183620E+03  0.91959413287E+03  0.00000000000E+00 0. -1.
         22    1    1    2    0    0 -0.31038199222E+03  0.24938250786E+03  0.54772797438E+03  0.67715179262E+03  0.00000000000E+00 0. -1.
<mgrwt>
<rscale>  0 0.17371501E+04</rscale>
<asrwt>0</asrwt>
<pdfrwt beam="1">  1        2 0.10010716E+00 0.17371501E+04</pdfrwt>
<pdfrwt beam="2">  1       -2 0.17837043E+00 0.17371501E+04</pdfrwt>
<totfact> 0.79222169E+00</totfact>
</mgrwt>
</event>
<event>
 6    1  0.1885829E-005  0.1240769E+04  0.7818608E-02  0.9077901E-01
         -2   -1    0    0    0  501 -0.00000000000E+00  0.00000000000E+00  0.42040996506E+03  0.42040996506E+03  0.00000000000E+00 0.  1.
          2   -1    0    0  501    0  0.00000000000E+00 -0.00000000000E+00 -0.91548007892E+03  0.91548007892E+03  0.00000000000E+00 0. -1.
         23    2    1    2    0    0  0.42257952598E+03  0.18575379034E+02  0.23503107146E+03  0.49210912379E+03  0.89516951894E+02 0.  0.
         11    1    3    3    0    0  0.37593208461E+03  0.10641995707E+02  0.17266657567E+03  0.41382596664E+03  0.00000000000E+00 0. -1.
        -11    1    3    3    0    0  0.46647441374E+02  0.79333833264E+01  0.62364495793E+02  0.78283157149E+02  0.00000000000E+00 0.  1.
         22    1    1    2    0    0 -0.42257952598E+03 -0.18575379034E+02 -0.73010118532E+03  0.84378092020E+03  0.00000000000E+00 0. -1.
<mgrwt>
<rscale>  0 0.12407690E+04</rscale>
<asrwt>0</asrwt>
<pdfrwt beam="1">  1        2 0.14084309E+00 0.12407690E+04</pdfrwt>
<pdfrwt beam="2">  1       -2 0.64678456E-01 0.12407690E+04</pdfrwt>
<totfact> 0.62175661E+01</totfact>
</mgrwt>
</event>
<event>
 6    1  0.1885829E-005  0.5280189E+04  0.7818608E-02  0.7786681E-01
          2   -1    0    0  501    0  0.00000000000E+00  0.00000000000E+00  0.34788226794E+04  0.34788226794E+04  0.00000000000E+00 0. -1.
         -2   -1    0    0    0  501 -0.00000000000E+00 -0.00000000000E+00 -0.20035794981E+04  0.20035794981E+04  0.00000000000E+00 0.  1.
         23    2    1    2    0    0 -0.25706221590E+03  0.14134198642E+04  0.30366688238E+04  0.33606371734E+04  0.93209281255E+02 0.  0.
         13    1    3    3    0    0 -0.94381766146E+01  0.13849462373E+02  0.55756323413E+02  0.58220738456E+02  0.00000000000E+00 0. -1.
        -13    1    3    3    0    0 -0.24762403928E+03  0.13995704018E+04  0.29809125004E+04  0.33024164349E+04  0.00000000000E+00 0.  1.
         22    1    1    2    0    0  0.25706221590E+03 -0.14134198642E+04 -0.15614256426E+04  0.21217650041E+04  0.00000000000E+00 0.  1.
<mgrwt>
<rscale>  0 0.52801886E+04</rscale>
<asrwt>0</asrwt>
<pdfrwt beam="1">  1        2 0.53520349E+00 0.52801886E+04</pdfrwt>
<pdfrwt beam="2">  1       -2 0.30824300E+00 0.52801886E+04</pdfrwt>
<totfact> 0.16911516E-02</totfact>
</mgrwt>
</event>
<event>
 6    1  0.1885829E-005  0.2472178E+04  0.7818608E-02  0.8412965E-01
         -2   -1    0    0    0  501 -0.00000000000E+00  0.00000000000E+00  0.43901083833E+03  0.43901083833E+03  0.00000000000E+00 0.  1.
          2   -1    0    0  501    0  0.00000000000E+00 -0.00000000000E+00 -0.34803607747E+04  0.34803607747E+04  0.00000000000E+00 0. -1.
         23    2    1    2    0    0  0.10038318522E+04  0.16566824793E+03 -0.41455047290E+03  0.11024229487E+04  0.91432529772E+02 0.  0.
         11    1    3    3    0    0  0.47943878177E+03  0.10979095413E+03 -0.16314022190E+03  0.51819912300E+03  0.00000000000E+00 0.  1.
        -11    1    3    3    0    0  0.52439307042E+03  0.55877293804E+02 -0.25141025100E+03  0.58422382575E+03  0.00000000000E+00 0. -1.
         22    1    1    2    0    0 -0.10038318522E+04 -0.16566824793E+03 -0.26267994635E+04  0.28169486643E+04  0.00000000000E+00 0. -1.
<mgrwt>
<rscale>  0 0.24721781E+04</rscale>
<asrwt>0</asrwt>
<pdfrwt beam="1">  1        2 0.53544013E+00 0.24721781E+04</pdfrwt>
<pdfrwt beam="2">  1       -2 0.67540128E-01 0.24721781E+04</pdfrwt>
<totfact> 0.15094556E+00</totfact>
</mgrwt>
</event>
<event>
 6    1  0.1885829E-005  0.2720481E+04  0.7818608E-02  0.8328390E-01
          2   -1    0    0  501    0  0.00000000000E+00  0.00000000000E+00  0.11552796097E+04  0.11552796097E+04  0.00000000000E+00 0. -1.
         -2   -1    0    0    0  501 -0.00000000000E+00 -0.00000000000E+00 -0.16015644365E+04  0.16015644365E+04  0.00000000000E+00 0.  1.
         23    2    1    2    0    0  0.59056895509E+03 -0.83058156147E+03  0.68739708853E+03  0.12324188738E+04  0.87773015974E+02 0.  0.
         13    1    3    3    0    0  0.15358793337E+03 -0.17716646238E+03  0.12350278925E+03  0.26500971232E+03  0.00000000000E+00 0.  1.
        -13    1    3    3    0    0  0.43698102172E+03 -0.65341509909E+03  0.56389429927E+03  0.96740916153E+03  0.00000000000E+00 0. -1.
         22    1    1    2    0    0 -0.59056895509E+03  0.83058156147E+03 -0.11336819154E+04  0.15244251724E+04  0.00000000000E+00 0.  1.
<mgrwt>
<rscale>  0 0.27204814E+04</rscale>
<asrwt>0</asrwt>
<pdfrwt beam="1">  1        2 0.17773532E+00 0.27204814E+04</pdfrwt>
<pdfrwt beam="2">  1       -2 0.24639453E+00 0.27204814E+04</pdfrwt>
<totfact> 0.11937541E+00</totfact>
</mgrwt>
</event>
<event>
 6    1  0.1885829E-005  0.1057415E+04  0.7818608E-02  0.9247722E-01
          1   -1    0    0  501    0  0.00000000000E+00  0.00000000000E+00  0.12266089539E+04  0.12266089539E+04  0.00000000000E+00 0. -1.
         -1   -1    0    0    0  501 -0.00000000000E+00 -0.00000000000E+00 -0.22788980399E+03  0.22788980399E+03  0.00000000000E+00 0.  1.
         23    2    1    2    0    0  0.17746812208E+03  0.18670959008E+03 -0.12582313362E+03  0.30083036843E+03  0.91170413158E+02 0.  0.
         11    1    3    3    0    0  0.68754236927E+02  0.12631940897E+03 -0.96086495981E+02  0.17296344379E+03  0.00000000000E+00 0. -1.
        -11    1    3    3    0    0  0.10871388515E+03  0.60390181114E+02 -0.29736637635E+02  0.12786692464E+03  0.00000000000E+00 0.  1.
         22    1    1    2    0    0 -0.17746812208E+03 -0.18670959008E+03  0.11245422835E+04  0.11536683895E+04  0.00000000000E+00 0. -1.
<mgrwt>
<rscale>  0 0.10574151E+04</rscale>
<asrwt>0</asrwt>
<pdfrwt beam="1">  1        1 0.18870907E+00 0.10574151E+04</pdfrwt>
<pdfrwt beam="2">  1       -1 0.35059970E-01 0.10574151E+04</pdfrwt>
<totfact> 0.78915276E+01</totfact>
</mgrwt>
</event>
<event>
 6    1  0.1885829E-005  0.1858288E+04  0.7818608E-02  0.8675902E-01
         -2   -1    0    0    0  501 -0.00000000000E+00  0.00000000000E+00  0.25154813018E+03  0.25154813018E+03  0.00000000000E+00 0.  1.
          2   -1    0    0  501    0  0.00000000000E+00 -0.00000000000E+00 -0.34319831781E+04  0.34319831781E+04  0.00000000000E+00 0. -1.
         23    2    1    2    0    0  0.57411278796E+03 -0.20621975382E+03 -0.29774403537E+04  0.30406169080E+04  0.89822277677E+02 0.  0.
         13    1    3    3    0    0  0.41178351229E+03 -0.12479021339E+03 -0.22562864752E+04  0.22969473038E+04  0.00000000000E+00 0. -1.
        -13    1    3    3    0    0  0.16232927567E+03 -0.81429540425E+02 -0.72115387846E+03  0.74366960420E+03  0.00000000000E+00 0.  1.
         22    1    1    2    0    0 -0.57411278796E+03  0.20621975382E+03 -0.20299469425E+03  0.64291440026E+03  0.00000000000E+00 0.  1.
<mgrwt>
<rscale>  0 0.18582884E+04</rscale>
<asrwt>0</asrwt>
<pdfrwt beam="1">  1        2 0.52799738E+00 0.18582884E+04</pdfrwt>
<pdfrwt beam="2">  1       -2 0.38699715E-01 0.18582884E+04</pdfrwt>
<totfact> 0.54099116E+00</totfact>
</mgrwt>
</event>
<event>
 6    1  0.1885829E-005  0.1121465E+04  0.7818608E-02  0.9184519E-01
         -2   -1    0    0    0  501 -0.00000000000E+00  0.00000000000E+00  0.51114915204E+03  0.51114915204E+03  0.00000000000E+00 0. -1.
          2   -1    0    0  501    0  0.00000000000E+00 -0.00000000000E+00 -0.61512595234E+03  0.61512595234E+03  0.00000000000E+00 0.  1.
         23    2    1    2    0    0  0.23123380776E+03 -0.38600675824E+03 -0.38119853501E+03  0.59776570857E+03  0.97679209600E+02 0.  0.
         13    1    3    3    0    0  0.11807658384E+03 -0.28605547681E+03 -0.25664892031E+03  0.40204288796E+03  0.00000000000E+00 0. -1.
        -13    1    3    3    0    0  0.11315722392E+03 -0.99951281431E+02 -0.12454961470E+03  0.19572282061E+03  0.00000000000E+00 0.  1.
         22    1    1    2    0    0 -0.23123380776E+03  0.38600675824E+03  0.27722173471E+03  0.52850939580E+03  0.00000000000E+00 0. -1.
<mgrwt>
<rscale>  0 0.11214653E+04</rscale>
<asrwt>0</asrwt>
<pdfrwt beam="1">  1        2 0.94634762E-01 0.11214653E+04</pdfrwt>
<pdfrwt beam="2">  1       -2 0.78638331E-01 0.11214653E+04</pdfrwt>
<totfact> 0.68588723E+01</totfact>
</mgrwt>
</event>
<event>
 6    1  0.1885829E-005  0.1956038E+04  0.7818608E-02  0.8627455E-01
         -1   -1    0    0    0  501 -0.00000000000E+00  0.00000000000E+00  0.49998727447E+03  0.49998727447E+03  0.00000000000E+00 0.  1.
          1   -1    0    0  501    0  0.00000000000E+00 -0.00000000000E+00 -0.19130909634E+04  0.19130909634E+04  0.00000000000E+00 0. -1.
         23    2    1    2    0    0  0.10087691832E+03  0.95696088577E+03 -0.50738273817E+03  0.10916090819E+04  0.90679959939E+02 0.  0.
         11    1    3    3    0    0  0.11290709467E+03  0.72442818457E+03 -0.36980051946E+03  0.82115566784E+03  0.00000000000E+00 0. -1.
        -11    1    3    3    0    0 -0.12030176344E+02  0.23253270120E+03 -0.13758221871E+03  0.27045341406E+03  0.00000000000E+00 0.  1.
         22    1    1    2    0    0 -0.10087691832E+03 -0.95696088577E+03 -0.90572095077E+03  0.13214691560E+04  0.00000000000E+00 0.  1.
<mgrwt>
<rscale>  0 0.19560380E+04</rscale>
<asrwt>0</asrwt>
<pdfrwt beam="1">  1        1 0.29432168E+00 0.19560380E+04</pdfrwt>
<pdfrwt beam="2">  1       -1 0.76921120E-01 0.19560380E+04</pdfrwt>
<totfact> 0.53882057E+00</totfact>
</mgrwt>
</event>
<event>
 6    1  0.1885829E-005  0.2914124E+04  0.7818608E-02  0.8268687E-01
         -2   -1    0    0    0  501 -0.00000000000E+00  0.00000000000E+00  0.85602463103E+03  0.85602463103E+03  0.00000000000E+00 0.  1.
          2   -1    0    0  501    0  0.00000000000E+00 -0.00000000000E+00 -0.24801039622E+04  0.24801039622E+04  0.00000000000E+00 0. -1.
         23    2    1    2    0    0 -0.32642253589E+03  0.13976042155E+04 -0.53441419793E+03  0.15341243431E+04  0.89943036919E+02 0.  0.
         11    1    3    3    0    0 -0.65000280290E+01  0.14285821850E+03 -0.46833294524E+02  0.15047949506E+03  0.00000000000E+00 0.  1.
        -11    1    3    3    0    0 -0.31992250786E+03  0.12547459970E+04 -0.48758090341E+03  0.13836448480E+04  0.00000000000E+00 0. -1.
         22    1    1    2    0    0  0.32642253589E+03 -0.13976042155E+04 -0.10896651333E+04  0.18020042502E+04  0.00000000000E+00 0. -1.
<mgrwt>
<rscale>  0 0.29141243E+04</rscale>
<asrwt>0</asrwt>
<pdfrwt beam="1">  1        2 0.38155446E+00 0.29141243E+04</pdfrwt>
<pdfrwt beam="2">  1       -2 0.13169610E+00 0.29141243E+04</pdfrwt>
<totfact> 0.12947861E+00</totfact>
</mgrwt>
</event>
<event>
 6    1  0.1885829E-005  0.1492620E+04  0.7818608E-02  0.8889375E-01
         -2   -1    0    0    0  501 -0.00000000000E+00  0.00000000000E+00  0.53980872188E+03  0.53980872188E+03  0.00000000000E+00 0.  1.
          2   -1    0    0  501    0  0.00000000000E+00 -0.00000000000E+00 -0.10318079264E+04  0.10318079264E+04  0.00000000000E+00 0. -1.
         23    2    1    2    0    0  0.56730390054E+02  0.74131191619E+03 -0.24110742675E+03  0.78694577562E+03  0.91592402964E+02 0.  0.
         11    1    3    3    0    0  0.29816270054E+01  0.55383837907E+03 -0.16977296182E+03  0.57928291775E+03  0.00000000000E+00 0.  1.
        -11    1    3    3    0    0  0.53748763049E+02  0.18747353712E+03 -0.71334464933E+02  0.20766285787E+03  0.00000000000E+00 0. -1.
         22    1    1    2    0    0 -0.56730390054E+02 -0.74131191619E+03 -0.25089177774E+03  0.78467087265E+03  0.00000000000E+00 0. -1.
<mgrwt>
<rscale>  0 0.14926204E+04</rscale>
<asrwt>0</asrwt>
<pdfrwt beam="1">  1        2 0.15873968E+00 0.14926204E+04</pdfrwt>
<pdfrwt beam="2">  1       -2 0.83047496E-01 0.14926204E+04</pdfrwt>
<totfact> 0.29524171E+01</totfact>
</mgrwt>
</event>
<event>
 6    1  0.1885829E-005  0.3818563E+04  0.7818608E-02  0.8042183E-01
          2   -1    0    0  501    0  0.00000000000E+00  0.00000000000E+00  0.32935340412E+04  0.32935340412E+04  0.00000000000E+00 0.  1.
         -2   -1    0    0    0  501 -0.00000000000E+00 -0.00000000000E+00 -0.11068219230E+04  0.11068219230E+04  0.00000000000E+00 0. -1.
         23    2    1    2    0    0  0.43998468259E+03 -0.32971667488E+03  0.31996150601E+04  0.32478491415E+04  0.93208938465E+02 0.  0.
         11    1    3    3    0    0  0.38224384019E+03 -0.31854966721E+03  0.29233539878E+04  0.29653975757E+04  0.00000000000E+00 0. -1.
        -11    1    3    3    0    0  0.57740842401E+02 -0.11167007673E+02  0.27626107235E+03  0.28245156583E+03  0.00000000000E+00 0.  1.
         22    1    1    2    0    0 -0.43998468259E+03  0.32971667488E+03 -0.10129029419E+04  0.11525068227E+04  0.00000000000E+00 0. -1.
<mgrwt>
<rscale>  0 0.38185629E+04</rscale>
<asrwt>0</asrwt>
<pdfrwt beam="1">  1        2 0.50669754E+00 0.38185629E+04</pdfrwt>
<pdfrwt beam="2">  1       -2 0.17028030E+00 0.38185629E+04</pdfrwt>
<totfact> 0.19083965E-01</totfact>
</mgrwt>
</event>
<event>
 6    1  0.1885829E-005  0.4873813E+04  0.7818608E-02  0.7848273E-01
          2   -1    0    0  501    0  0.00000000000E+00  0.00000000000E+00  0.40519786690E+04  0.40519786690E+04  0.00000000000E+00 0. -1.
         -2   -1    0    0    0  501 -0.00000000000E+00 -0.00000000000E+00 -0.14655834082E+04  0.14655834082E+04  0.00000000000E+00 0.  1.
         23    2    1    2    0    0  0.10575939302E+04  0.62927945258E+03 -0.10863492821E+04  0.16441204514E+04  0.92085533332E+02 0.  0.
         13    1    3    3    0    0  0.63495473175E+03  0.37879627953E+03 -0.71213455441E+03  0.10265426228E+04  0.00000000000E+00 0.  1.
        -13    1    3    3    0    0  0.42263919840E+03  0.25048317305E+03 -0.37421472773E+03  0.61757782866E+03  0.00000000000E+00 0. -1.
         22    1    1    2    0    0 -0.10575939302E+04 -0.62927945258E+03  0.36727445429E+04  0.38734416258E+04  0.00000000000E+00 0. -1.
<mgrwt>
<rscale>  0 0.48738128E+04</rscale>
<asrwt>0</asrwt>
<pdfrwt beam="1">  1        2 0.62338133E+00 0.48738128E+04</pdfrwt>
<pdfrwt beam="2">  1       -2 0.22547437E+00 0.48738128E+04</pdfrwt>
<totfact> 0.20720286E-02</totfact>
</mgrwt>
</event>
<event>
 6    1  0.1885829E-005  0.1391903E+04  0.7818608E-02  0.8959700E-01
         -2   -1    0    0    0  501 -0.00000000000E+00  0.00000000000E+00  0.23572174039E+03  0.23572174039E+03  0.00000000000E+00 0. -1.
          2   -1    0    0  501    0  0.00000000000E+00 -0.00000000000E+00 -0.20547479944E+04  0.20547479944E+04  0.00000000000E+00 0.  1.
         23    2    1    2    0    0  0.31720025105E+02  0.81393759975E+02 -0.20444324757E+04  0.20487279947E+04  0.99755423366E+02 0.  0.
         11    1    3    3    0    0  0.13868153585E+02  0.40308909378E+01 -0.12988102136E+04  0.12988905052E+04  0.00000000000E+00 0. -1.
        -11    1    3    3    0    0  0.17851871520E+02  0.77362869037E+02 -0.74562226214E+03  0.74983748947E+03  0.00000000000E+00 0.  1.
         22    1    1    2    0    0 -0.31720025105E+02 -0.81393759975E+02  0.22540622164E+03  0.24174174011E+03  0.00000000000E+00 0. -1.
<mgrwt>
<rscale>  0 0.13919034E+04</rscale>
<asrwt>0</asrwt>
<pdfrwt beam="1">  1        2 0.31611508E+00 0.13919034E+04</pdfrwt>
<pdfrwt beam="2">  1       -2 0.36264883E-01 0.13919034E+04</pdfrwt>
<totfact> 0.43438062E+01</totfact>
</mgrwt>
</event>
<event>
 6    1  0.1885829E-005  0.1220557E+04  0.7818608E-02  0.9095051E-01
          2   -1    0    0  501    0  0.00000000000E+00  0.00000000000E+00  0.20337848888E+04  0.20337848888E+04  0.00000000000E+00 0. -1.
         -2   -1    0    0    0  501 -0.00000000000E+00 -0.00000000000E+00 -0.18312658358E+03  0.18312658358E+03  0.00000000000E+00 0.  1.
         23    2    1    2    0    0  0.76614304030E+02 -0.53312355333E+03  0.14393381849E+04  0.15392133714E+04  0.85982076316E+02 0.  0.
         11    1    3    3    0    0  0.21200090692E+02 -0.38096534887E+02  0.17350164479E+03  0.17889552974E+03  0.00000000000E+00 0.  1.
        -11    1    3    3    0    0  0.55414213338E+02 -0.49502701844E+03  0.12658365401E+04  0.13603178417E+04  0.00000000000E+00 0. -1.
         22    1    1    2    0    0 -0.76614304030E+02  0.53312355333E+03  0.41132012026E+03  0.67769810095E+03  0.00000000000E+00 0.  1.
<mgrwt>
<rscale>  0 0.12205574E+04</rscale>
<asrwt>0</asrwt>
<pdfrwt beam="1">  1        2 0.31288997E+00 0.12205574E+04</pdfrwt>
<pdfrwt beam="2">  1       -2 0.28173322E-01 0.12205574E+04</pdfrwt>
<totfact> 0.72766232E+01</totfact>
</mgrwt>
</event>
<event>
 6    1  0.1885829E-005  0.1245804E+04  0.7818608E-02  0.9073682E-01
         -2   -1    0    0    0  501 -0.00000000000E+00  0.00000000000E+00  0.45826931880E+03  0.45826931880E+03  0.00000000000E+00 0.  1.
          2   -1    0    0  501    0  0.00000000000E+00 -0.00000000000E+00 -0.84667942759E+03  0.84667942759E+03  0.00000000000E+00 0. -1.
         23    2    1    2    0    0  0.48061092172E+03 -0.10417411288E+03  0.19971289543E+03  0.53831469290E+03  0.89768391564E+02 0.  0.
         13    1    3    3    0    0  0.40033696630E+03 -0.11936999394E+03  0.15853532906E+03  0.44682472246E+03  0.00000000000E+00 0.  1.
        -13    1    3    3    0    0  0.80273955415E+02  0.15195881061E+02  0.41177566367E+02  0.91489970440E+02  0.00000000000E+00 0. -1.
         22    1    1    2    0    0 -0.48061092172E+03  0.10417411288E+03 -0.58812300423E+03  0.76663405349E+03  0.00000000000E+00 0. -1.
<mgrwt>
<rscale>  0 0.12458045E+04</rscale>
<asrwt>0</asrwt>
<pdfrwt beam="1">  1        2 0.13025837E+00 0.12458045E+04</pdfrwt>
<pdfrwt beam="2">  1       -2 0.70502973E-01 0.12458045E+04</pdfrwt>
<totfact> 0.57469347E+01</totfact>
</mgrwt>
</event>
<event>
 6    1  0.1885829E-005  0.1011550E+04  0.7818608E-02  0.9295967E-01
         -2   -1    0    0    0  501 -0.00000000000E+00  0.00000000000E+00  0.14261970329E+03  0.14261970329E+03  0.00000000000E+00 0. -1.
          2   -1    0    0  501    0  0.00000000000E+00 -0.00000000000E+00 -0.17936396448E+04  0.17936396448E+04  0.00000000000E+00 0.  1.
         23    2    1    2    0    0  0.11168617299E+03  0.10017299495E+03 -0.17484979684E+04  0.17573448549E+04  0.92235370893E+02 0.  0.
         13    1    3    3    0    0  0.47287853532E+02  0.67323145076E+02 -0.49723468233E+03  0.50399491690E+03  0.00000000000E+00 0.  1.
        -13    1    3    3    0    0  0.64398319454E+02  0.32849849875E+02 -0.12512632860E+04  0.12533499380E+04  0.00000000000E+00 0. -1.
         22    1    1    2    0    0 -0.11168617299E+03 -0.10017299495E+03  0.97478026829E+02  0.17891449318E+03  0.00000000000E+00 0. -1.
<mgrwt>
<rscale>  0 0.10115500E+04</rscale>
<asrwt>0</asrwt>
<pdfrwt beam="1">  1        2 0.27594455E+00 0.10115500E+04</pdfrwt>
<pdfrwt beam="2">  1       -2 0.21941494E-01 0.10115500E+04</pdfrwt>
<totfact> 0.15765026E+02</totfact>
</mgrwt>
</event>
<event>
 6    1  0.1885829E-005  0.2263045E+04  0.7818608E-02  0.8492636E-01
         -2   -1    0    0    0  501 -0.00000000000E+00  0.00000000000E+00  0.84751236194E+03  0.84751236194E+03  0.00000000000E+00 0.  1.
          2   -1    0    0  501    0  0.00000000000E+00 -0.00000000000E+00 -0.15107070931E+04  0.15107070931E+04  0.00000000000E+00 0. -1.
         23    2    1    2    0    0  0.35422903320E+03 -0.63832894167E+02  0.78348348546E+03  0.86743754317E+03  0.95124513040E+02 0.  0.
         13    1    3    3    0    0  0.24580395598E+03 -0.71007870664E+02  0.46239651989E+03  0.52846215009E+03  0.00000000000E+00 0. -1.
        -13    1    3    3    0    0  0.10842507722E+03  0.71749764968E+01  0.32108696556E+03  0.33897539308E+03  0.00000000000E+00 0.  1.
         22    1    1    2    0    0 -0.35422903320E+03  0.63832894167E+02 -0.14466782166E+04  0.14907819119E+04  0.00000000000E+00 0. -1.
<mgrwt>
<rscale>  0 0.22630448E+04</rscale>
<asrwt>0</asrwt>
<pdfrwt beam="1">  1        2 0.23241647E+00 0.22630448E+04</pdfrwt>
<pdfrwt beam="2">  1       -2 0.13038652E+00 0.22630448E+04</pdfrwt>
<totfact> 0.49076351E+00</totfact>
</mgrwt>
</event>
<event>
 6    1  0.1885829E-005  0.1117551E+04  0.7818608E-02  0.9188252E-01
         -2   -1    0    0    0  501 -0.00000000000E+00  0.00000000000E+00  0.80396405087E+03  0.80396405087E+03  0.00000000000E+00 0.  1.
          2   -1    0    0  501    0  0.00000000000E+00 -0.00000000000E+00 -0.38836353095E+03  0.38836353095E+03  0.00000000000E+00 0. -1.
         23    2    1    2    0    0  0.34096578928E+03  0.19359713879E+03  0.62834042721E+03  0.74623814039E+03  0.91225808306E+02 0.  0.
         13    1    3    3    0    0  0.33239128175E+02  0.17935371971E+02  0.21328787520E+02  0.43375504454E+02  0.00000000000E+00 0. -1.
        -13    1    3    3    0    0  0.30772666110E+03  0.17566176682E+03  0.60701163969E+03  0.70286263594E+03  0.00000000000E+00 0.  1.
         22    1    1    2    0    0 -0.34096578928E+03 -0.19359713879E+03 -0.21273990728E+03  0.44608944143E+03  0.00000000000E+00 0. -1.
<mgrwt>
<rscale>  0 0.11175515E+04</rscale>
<asrwt>0</asrwt>
<pdfrwt beam="1">  1        2 0.59748236E-01 0.11175515E+04</pdfrwt>
<pdfrwt beam="2">  1       -2 0.12368678E+00 0.11175515E+04</pdfrwt>
<totfact> 0.40127710E+01</totfact>
</mgrwt>
</event>
<event>
 6    1  0.1885829E-005  0.2382555E+04  0.7818608E-02  0.8446064E-01
         -2   -1    0    0    0  501 -0.00000000000E+00  0.00000000000E+00  0.15750878223E+04  0.15750878223E+04  0.00000000000E+00 0. -1.
          2   -1    0    0  501    0  0.00000000000E+00 -0.00000000000E+00 -0.90099265202E+03  0.90099265202E+03  0.00000000000E+00 0.  1.
         23    2    1    2    0    0  0.80791519052E+02  0.64656554769E+03  0.13718748042E+04  0.15213707308E+04  0.89186013298E+02 0.  0.
         11    1    3    3    0    0  0.56202008699E+02  0.45579468486E+03  0.10560000850E+04  0.11515396823E+04  0.00000000000E+00 0. -1.
        -11    1    3    3    0    0  0.24589510353E+02  0.19077086283E+03  0.31587471924E+03  0.36983104843E+03  0.00000000000E+00 0.  1.
         22    1    1    2    0    0 -0.80791519052E+02 -0.64656554769E+03 -0.69777963390E+03  0.95470974359E+03  0.00000000000E+00 0.  1.
<mgrwt>
<rscale>  0 0.23825554E+04</rscale>
<asrwt>0</asrwt>
<pdfrwt beam="1">  1        2 0.13861425E+00 0.23825554E+04</pdfrwt>
<pdfrwt beam="2">  1       -2 0.24232120E+00 0.23825554E+04</pdfrwt>
<totfact> 0.18889986E+00</totfact>
</mgrwt>
</event>
<event>
 6    1  0.1885829E-005  0.3311495E+04  0.7818608E-02  0.8159977E-01
         -2   -1    0    0    0  501 -0.00000000000E+00  0.00000000000E+00  0.83073473235E+03  0.83073473235E+03  0.00000000000E+00 0.  1.
          2   -1    0    0  501    0  0.00000000000E+00 -0.00000000000E+00 -0.33000900804E+04  0.33000900804E+04  0.00000000000E+00 0. -1.
         23    2    1    2    0    0  0.50844039501E+03 -0.13362811622E+04 -0.19694120104E+03  0.14460482792E+04  0.90060031567E+02 0.  0.
         13    1    3    3    0    0  0.20497621057E+03 -0.60325221983E+03 -0.48955492746E+02  0.63900322995E+03  0.00000000000E+00 0. -1.
        -13    1    3    3    0    0  0.30346418444E+03 -0.73302894237E+03 -0.14798570829E+03  0.80704504921E+03  0.00000000000E+00 0.  1.
         22    1    1    2    0    0 -0.50844039501E+03  0.13362811622E+04 -0.22724141470E+04  0.26847765336E+04  0.00000000000E+00 0. -1.
<mgrwt>
<rscale>  0 0.33114948E+04</rscale>
<asrwt>0</asrwt>
<pdfrwt beam="1">  1        2 0.50770617E+00 0.33114948E+04</pdfrwt>
<pdfrwt beam="2">  1       -2 0.12780534E+00 0.33114948E+04</pdfrwt>
<totfact> 0.42087554E-01</totfact>
</mgrwt>
</event>
<event>
 6    1  0.1885829E-005  0.3039427E+04  0.7818608E-02  0.8232561E-01
         -1   -1    0    0    0  501 -0.00000000000E+00  0.00000000000E+00  0.12484469799E+04  0.12484469799E+04  0.00000000000E+00 0.  1.
          1   -1    0    0  501    0  0.00000000000E+00 -0.00000000000E+00 -0.18499213417E+04  0.18499213417E+04  0.00000000000E+00 0. -1.
         23    2    1    2    0    0 -0.11153300102E+04  0.10238623605E+04 -0.18510719627E+03  0.15281400639E+04  0.93232054545E+02 0.  0.
         13    1    3    3    0    0 -0.33967675662E+03  0.37091579745E+03 -0.66931539783E+02  0.50738413337E+03  0.00000000000E+00 0. -1.
        -13    1    3    3    0    0 -0.77565325354E+03  0.65294656307E+03 -0.11817565649E+03  0.10207559305E+04  0.00000000000E+00 0.  1.
         22    1    1    2    0    0  0.11153300102E+04 -0.10238623605E+04 -0.41636716554E+03  0.15702282577E+04  0.00000000000E+00 0. -1.
<mgrwt>
<rscale>  0 0.30394267E+04</rscale>
<asrwt>0</asrwt>
<pdfrwt beam="1">  1        1 0.28460328E+00 0.30394267E+04</pdfrwt>
<pdfrwt beam="2">  1       -1 0.19206877E+00 0.30394267E+04</pdfrwt>
<totfact> 0.54618424E-01</totfact>
</mgrwt>
</event>
<event>
 6    1  0.1885829E-005  0.6383326E+04  0.7818608E-02  0.7644609E-01
          2   -1    0    0  501    0  0.00000000000E+00  0.00000000000E+00  0.39758233207E+04  0.39758233207E+04  0.00000000000E+00 0. -1.
         -2   -1    0    0    0  501 -0.00000000000E+00 -0.00000000000E+00 -0.25621640821E+04  0.25621640821E+04  0.00000000000E+00 0.  1.
         23    2    1    2    0    0 -0.28523790307E+03 -0.10009037605E+04  0.37965821860E+04  0.39377007316E+04  0.91004159707E+02 0.  0.
         13    1    3    3    0    0 -0.13955506340E+03 -0.58507967451E+03  0.20520286894E+04  0.21383675043E+04  0.00000000000E+00 0.  1.
        -13    1    3    3    0    0 -0.14568283966E+03 -0.41582408600E+03  0.17445534966E+04  0.17993332273E+04  0.00000000000E+00 0. -1.
         22    1    1    2    0    0  0.28523790307E+03  0.10009037605E+04 -0.23829229474E+04  0.26002866712E+04  0.00000000000E+00 0.  1.
<mgrwt>
<rscale>  0 0.63833257E+04</rscale>
<asrwt>0</asrwt>
<pdfrwt beam="1">  1        2 0.61166513E+00 0.63833257E+04</pdfrwt>
<pdfrwt beam="2">  1       -2 0.39417909E+00 0.63833257E+04</pdfrwt>
<totfact> 0.18867344E-03</totfact>
</mgrwt>
</event>
<event>
 6    1  0.1885829E-005  0.1323262E+04  0.7818608E-02  0.9011319E-01
         -2   -1    0    0    0  501 -0.00000000000E+00  0.00000000000E+00  0.15759959093E+03  0.15759959093E+03  0.00000000000E+00 0.  1.
          2   -1    0    0  501    0  0.00000000000E+00 -0.00000000000E+00 -0.27776440855E+04  0.27776440855E+04  0.00000000000E+00 0. -1.
         23    2    1    2    0    0 -0.25391679906E+03 -0.44095866069E+03 -0.22434148624E+04  0.23021811510E+04  0.90606433239E+02 0.  0.
         11    1    3    3    0    0 -0.14384105759E+03 -0.33218498538E+03 -0.15505473960E+04  0.15922419231E+04  0.00000000000E+00 0.  1.
        -11    1    3    3    0    0 -0.11007574147E+03 -0.10877367531E+03 -0.69286746639E+03  0.70993922788E+03  0.00000000000E+00 0. -1.
         22    1    1    2    0    0  0.25391679906E+03  0.44095866069E+03 -0.37662963213E+03  0.63306252541E+03  0.00000000000E+00 0.  1.
<mgrwt>
<rscale>  0 0.13232620E+04</rscale>
<asrwt>0</asrwt>
<pdfrwt beam="1">  1        2 0.42732983E+00 0.13232620E+04</pdfrwt>
<pdfrwt beam="2">  1       -2 0.24246092E-01 0.13232620E+04</pdfrwt>
<totfact> 0.35674084E+01</totfact>
</mgrwt>
</event>
<event>
 6    1  0.1885829E-005  0.1009091E+04  0.7818608E-02  0.9298630E-01
         -2   -1    0    0    0  501 -0.00000000000E+00  0.00000000000E+00  0.11069926238E+03  0.11069926238E+03  0.00000000000E+00 0. -1.
          2   -1    0    0  501    0  0.00000000000E+00 -0.00000000000E+00 -0.22996195761E+04  0.22996195761E+04  0.00000000000E+00 0.  1.
         23    2    1    2    0    0 -0.40725458330E+02 -0.49867461028E+03 -0.10851177627E+04  0.11984133134E+04  0.91536774585E+02 0.  0.
         11    1    3    3    0    0  0.13177727312E+02 -0.10594126442E+02 -0.26241107438E+02  0.31216721989E+02  0.00000000000E+00 0. -1.
        -11    1    3    3    0    0 -0.53903185641E+02 -0.48808048384E+03 -0.10588766552E+04  0.11671965914E+04  0.00000000000E+00 0.  1.
         22    1    1    2    0    0  0.40725458330E+02  0.49867461028E+03 -0.11038025511E+04  0.12119055251E+04  0.00000000000E+00 0.  1.
<mgrwt>
<rscale>  0 0.10090911E+04</rscale>
<asrwt>0</asrwt>
<pdfrwt beam="1">  1        2 0.35378761E+00 0.10090911E+04</pdfrwt>
<pdfrwt beam="2">  1       -2 0.17030657E-01 0.10090911E+04</pdfrwt>
<totfact> 0.12900813E+02</totfact>
</mgrwt>
</event>
<event>
 6    1  0.1885829E-005  0.1924034E+04  0.7818608E-02  0.8642985E-01
          2   -1    0    0  501    0  0.00000000000E+00  0.00000000000E+00  0.24621033767E+04  0.24621033767E+04  0.00000000000E+00 0. -1.
         -2   -1    0    0    0  501 -0.00000000000E+00 -0.00000000000E+00 -0.37588853677E+03  0.37588853677E+03  0.00000000000E+00 0.  1.
         23    2    1    2    0    0 -0.71705556781E+03  0.62579689030E+03  0.86163872821E+03  0.12870640981E+04  0.91226417909E+02 0.  0.
         13    1    3    3    0    0 -0.29778830913E+03  0.21440068713E+03  0.29371400265E+03  0.47001430516E+03  0.00000000000E+00 0. -1.
        -13    1    3    3    0    0 -0.41926725867E+03  0.41139620316E+03  0.56792472556E+03  0.81704979289E+03  0.00000000000E+00 0.  1.
         22    1    1    2    0    0  0.71705556781E+03 -0.62579689030E+03  0.12245761117E+04  0.15509278154E+04  0.00000000000E+00 0. -1.
<mgrwt>
<rscale>  0 0.19240337E+04</rscale>
<asrwt>0</asrwt>
<pdfrwt beam="1">  1        2 0.37878512E+00 0.19240337E+04</pdfrwt>
<pdfrwt beam="2">  1       -2 0.57829007E-01 0.19240337E+04</pdfrwt>
<totfact> 0.95871173E+00</totfact>
</mgrwt>
</event>
<event>
 6    1  0.1885829E-005  0.1540157E+04  0.7818608E-02  0.8858180E-01
          2   -1    0    0  501    0  0.00000000000E+00  0.00000000000E+00  0.70774333714E+03  0.70774333714E+03  0.00000000000E+00 0. -1.
         -2   -1    0    0    0  501 -0.00000000000E+00 -0.00000000000E+00 -0.83790369977E+03  0.83790369977E+03  0.00000000000E+00 0.  1.
         23    2    1    2    0    0 -0.71932101125E+03 -0.11913005000E+03 -0.30528582494E+03  0.79579130839E+03  0.92030894644E+02 0.  0.
         11    1    3    3    0    0 -0.52973056930E+03 -0.10968555947E+03 -0.18824563336E+03  0.57278426697E+03  0.00000000000E+00 0. -1.
        -11    1    3    3    0    0 -0.18959044195E+03 -0.94444905236E+01 -0.11704019158E+03  0.22300704143E+03  0.00000000000E+00 0.  1.
         22    1    1    2    0    0  0.71932101125E+03  0.11913005000E+03  0.17512546231E+03  0.74985572851E+03  0.00000000000E+00 0. -1.
<mgrwt>
<rscale>  0 0.15401568E+04</rscale>
<asrwt>0</asrwt>
<pdfrwt beam="1">  1        2 0.10888359E+00 0.15401568E+04</pdfrwt>
<pdfrwt beam="2">  1       -2 0.12890826E+00 0.15401568E+04</pdfrwt>
<totfact> 0.17263610E+01</totfact>
</mgrwt>
</event>
<event>
 6    1  0.1885829E-005  0.1467345E+04  0.7818608E-02  0.8906463E-01
          1   -1    0    0  501    0  0.00000000000E+00  0.00000000000E+00  0.77997882390E+03  0.77997882390E+03  0.00000000000E+00 0. -1.
         -1   -1    0    0    0  501 -0.00000000000E+00 -0.00000000000E+00 -0.69011520930E+03  0.69011520930E+03  0.00000000000E+00 0.  1.
         23    2    1    2    0    0 -0.45137007297E+02  0.16279983761E+03  0.75750639837E+03  0.78140831150E+03  0.90784740732E+02 0.  0.
         13    1    3    3    0    0 -0.32003735204E+01  0.85622406776E+02  0.54132898224E+03  0.54806797566E+03  0.00000000000E+00 0.  1.
        -13    1    3    3    0    0 -0.41936633777E+02  0.77177430836E+02  0.21617741614E+03  0.23334033584E+03  0.00000000000E+00 0. -1.
         22    1    1    2    0    0  0.45137007297E+02 -0.16279983761E+03 -0.66764278378E+03  0.68868572171E+03  0.00000000000E+00 0.  1.
<mgrwt>
<rscale>  0 0.14673449E+04</rscale>
<asrwt>0</asrwt>
<pdfrwt beam="1">  1        1 0.11999674E+00 0.14673449E+04</pdfrwt>
<pdfrwt beam="2">  1       -1 0.10617157E+00 0.14673449E+04</pdfrwt>
<totfact> 0.18532313E+01</totfact>
</mgrwt>
</event>
<event>
 6    1  0.1885829E-005  0.6363956E+04  0.7818608E-02  0.7646844E-01
          1   -1    0    0  501    0  0.00000000000E+00  0.00000000000E+00  0.31586068636E+04  0.31586068636E+04  0.00000000000E+00 0. -1.
         -1   -1    0    0    0  501 -0.00000000000E+00 -0.00000000000E+00 -0.32055221435E+04  0.32055221435E+04  0.00000000000E+00 0.  1.
         23    2    1    2    0    0  0.18777167600E+04  0.88300026673E+03 -0.24350628805E+04  0.32004667836E+04  0.89144258629E+02 0.  0.
         11    1    3    3    0    0  0.11891596705E+04  0.58519309956E+03 -0.16096410158E+04  0.20850649596E+04  0.00000000000E+00 0.  1.
        -11    1    3    3    0    0  0.68855708952E+03  0.29780716716E+03 -0.82542186466E+03  0.11154018240E+04  0.00000000000E+00 0. -1.
         22    1    1    2    0    0 -0.18777167600E+04 -0.88300026673E+03  0.23881476006E+04  0.31636622235E+04  0.00000000000E+00 0. -1.
<mgrwt>
<rscale>  0 0.63639561E+04</rscale>
<asrwt>0</asrwt>
<pdfrwt beam="1">  1        1 0.48593951E+00 0.63639561E+04</pdfrwt>
<pdfrwt beam="2">  1       -1 0.49315726E+00 0.63639561E+04</pdfrwt>
<totfact> 0.49483165E-04</totfact>
</mgrwt>
</event>
<event>
 6    1  0.1885829E-005  0.1522695E+04  0.7818608E-02  0.8869500E-01
         -2   -1    0    0    0  501 -0.00000000000E+00  0.00000000000E+00  0.37802786118E+03  0.37802786118E+03  0.00000000000E+00 0. -1.
          2   -1    0    0  501    0  0.00000000000E+00 -0.00000000000E+00 -0.15333517603E+04  0.15333517603E+04  0.00000000000E+00 0.  1.
         23    2    1    2    0    0  0.88432469709E+02 -0.43878427016E+03  0.18915169876E+03  0.49435225029E+03  0.90850673039E+02 0.  0.
         13    1    3    3    0    0  0.74518533233E+02 -0.38764865498E+03  0.19632898678E+03  0.44087363559E+03  0.00000000000E+00 0. -1.
        -13    1    3    3    0    0  0.13913936475E+02 -0.51135615170E+02 -0.71772880255E+01  0.53478614703E+02  0.00000000000E+00 0.  1.
         22    1    1    2    0    0 -0.88432469709E+02  0.43878427016E+03 -0.13444755979E+04  0.14170273712E+04  0.00000000000E+00 0.  1.
<mgrwt>
<rscale>  0 0.15226946E+04</rscale>
<asrwt>0</asrwt>
<pdfrwt beam="1">  1        2 0.23590027E+00 0.15226946E+04</pdfrwt>
<pdfrwt beam="2">  1       -2 0.58158132E-01 0.15226946E+04</pdfrwt>
<totfact> 0.32426630E+01</totfact>
</mgrwt>
</event>
<event>
 6    1  0.1885829E-005  0.4180972E+04  0.7818608E-02  0.7969002E-01
          2   -1    0    0  501    0  0.00000000000E+00  0.00000000000E+00  0.39357161938E+04  0.39357161938E+04  0.00000000000E+00 0. -1.
         -2   -1    0    0    0  501 -0.00000000000E+00 -0.00000000000E+00 -0.11103779443E+04  0.11103779443E+04  0.00000000000E+00 0.  1.
         23    2    1    2    0    0  0.18333276719E+04 -0.13086358325E+03  0.21358271874E+03  0.18524312594E+04  0.87569189114E+02 0.  0.
         11    1    3    3    0    0  0.15532531259E+04 -0.93115008856E+02  0.15429973914E+03  0.15636732675E+04  0.00000000000E+00 0. -1.
        -11    1    3    3    0    0  0.28007454607E+03 -0.37748574398E+02  0.59282979601E+02  0.28875799192E+03  0.00000000000E+00 0.  1.
         22    1    1    2    0    0 -0.18333276719E+04  0.13086358325E+03  0.26117555308E+04  0.31936628787E+04  0.00000000000E+00 0. -1.
<mgrwt>
<rscale>  0 0.41809724E+04</rscale>
<asrwt>0</asrwt>
<pdfrwt beam="1">  1        2 0.60549479E+00 0.41809724E+04</pdfrwt>
<pdfrwt beam="2">  1       -2 0.17082738E+00 0.41809724E+04</pdfrwt>
<totfact> 0.62752004E-02</totfact>
</mgrwt>
</event>
<event>
 6    1  0.1885829E-005  0.4391874E+04  0.7818608E-02  0.7929845E-01
          2   -1    0    0  501    0  0.00000000000E+00  0.00000000000E+00  0.30167082080E+04  0.30167082080E+04  0.00000000000E+00 0. -1.
         -2   -1    0    0    0  501 -0.00000000000E+00 -0.00000000000E+00 -0.15984774230E+04  0.15984774230E+04  0.00000000000E+00 0.  1.
         23    2    1    2    0    0 -0.17871611117E+04 -0.89452175117E+03 -0.24435179345E+03  0.20155135685E+04  0.92049678684E+02 0.  0.
         11    1    3    3    0    0 -0.56375812905E+03 -0.23512485727E+03 -0.69451373702E+02  0.61476045733E+03  0.00000000000E+00 0. -1.
        -11    1    3    3    0    0 -0.12234029826E+04 -0.65939689389E+03 -0.17490041974E+03  0.14007531111E+04  0.00000000000E+00 0.  1.
         22    1    1    2    0    0  0.17871611117E+04  0.89452175117E+03  0.16625825784E+04  0.25996720625E+04  0.00000000000E+00 0. -1.
<mgrwt>
<rscale>  0 0.43918743E+04</rscale>
<asrwt>0</asrwt>
<pdfrwt beam="1">  1        2 0.46410896E+00 0.43918743E+04</pdfrwt>
<pdfrwt beam="2">  1       -2 0.24591960E+00 0.43918743E+04</pdfrwt>
<totfact> 0.88404352E-02</totfact>
</mgrwt>
</event>
<event>
 6    1  0.1885829E-005  0.7691497E+03  0.7818608E-02  0.9605777E-01
          2   -1    0    0  501    0  0.00000000000E+00  0.00000000000E+00  0.60176358155E+03  0.60176358155E+03  0.00000000000E+00 0. -1.
         -2   -1    0    0    0  501 -0.00000000000E+00 -0.00000000000E+00 -0.24577394590E+03  0.24577394590E+03  0.00000000000E+00 0.  1.
         23    2    1    2    0    0  0.24792097537E+02  0.94830591450E+02 -0.22343297688E+03  0.25988282179E+03  0.89494674296E+02 0.  0.
         11    1    3    3    0    0  0.17248598921E+02  0.52830871551E+02 -0.32800545218E+02  0.64532866976E+02  0.00000000000E+00 0. -1.
        -11    1    3    3    0    0  0.75434986162E+01  0.41999719899E+02 -0.19063243166E+03  0.19534995481E+03  0.00000000000E+00 0.  1.
         22    1    1    2    0    0 -0.24792097537E+02 -0.94830591450E+02  0.57942261253E+03  0.58765470566E+03  0.00000000000E+00 0. -1.
<mgrwt>
<rscale>  0 0.76914969E+03</rscale>
<asrwt>0</asrwt>
<pdfrwt beam="1">  1        2 0.92579012E-01 0.76914969E+03</pdfrwt>
<pdfrwt beam="2">  1       -2 0.37811376E-01 0.76914969E+03</pdfrwt>
<totfact> 0.32828335E+02</totfact>
</mgrwt>
</event>
<event>
 6    1  0.1885829E-005  0.1531427E+04  0.7818608E-02  0.8863819E-01
         -2   -1    0    0    0  501 -0.00000000000E+00  0.00000000000E+00  0.38009733638E+03  0.38009733638E+03  0.00000000000E+00 0.  1.
          2   -1    0    0  501    0  0.00000000000E+00 -0.00000000000E+00 -0.15425457308E+04  0.15425457308E+04  0.00000000000E+00 0. -1.
         23    2    1    2    0    0 -0.10938943816E+02  0.56490577229E+03  0.60531977052E+02  0.57545370371E+03  0.90800070575E+02 0.  0.
         13    1    3    3    0    0 -0.68794624409E+01  0.27807586839E+03  0.75435099075E+02  0.28820820557E+03  0.00000000000E+00 0. -1.
        -13    1    3    3    0    0 -0.40594813747E+01  0.28682990390E+03 -0.14903122023E+02  0.28724549815E+03  0.00000000000E+00 0.  1.
         22    1    1    2    0    0  0.10938943816E+02 -0.56490577229E+03 -0.12229803715E+04  0.13471893635E+04  0.00000000000E+00 0. -1.
<mgrwt>
<rscale>  0 0.15314275E+04</rscale>
<asrwt>0</asrwt>
<pdfrwt beam="1">  1        2 0.23731472E+00 0.15314275E+04</pdfrwt>
<pdfrwt beam="2">  1       -2 0.58476515E-01 0.15314275E+04</pdfrwt>
<totfact> 0.31655634E+01</totfact>
</mgrwt>
</event>
<event>
 6    1  0.1885829E-005  0.1353632E+04  0.7818608E-02  0.8988083E-01
          2   -1    0    0  501    0  0.00000000000E+00  0.00000000000E+00  0.79271255940E+03  0.79271255940E+03  0.00000000000E+00 0.  1.
         -2   -1    0    0    0  501 -0.00000000000E+00 -0.00000000000E+00 -0.57786414169E+03  0.57786414169E+03  0.00000000000E+00 0. -1.
         23    2    1    2    0    0 -0.10434027655E+01  0.58777245396E+03 -0.22557691464E+03  0.63610272627E+03  0.90907577339E+02 0.  0.
         13    1    3    3    0    0 -0.39665505731E+02  0.34611244883E+03 -0.10902707711E+03  0.36503983771E+03  0.00000000000E+00 0. -1.
        -13    1    3    3    0    0  0.38622102965E+02  0.24166000514E+03 -0.11654983753E+03  0.27106288855E+03  0.00000000000E+00 0.  1.
         22    1    1    2    0    0  0.10434027655E+01 -0.58777245396E+03  0.44042533234E+03  0.73447397483E+03  0.00000000000E+00 0.  1.
<mgrwt>
<rscale>  0 0.13536324E+04</rscale>
<asrwt>0</asrwt>
<pdfrwt beam="1">  1        2 0.12195578E+00 0.13536324E+04</pdfrwt>
<pdfrwt beam="2">  1       -2 0.88902176E-01 0.13536324E+04</pdfrwt>
<totfact> 0.37030264E+01</totfact>
</mgrwt>
</event>
<event>
 6    1  0.1885829E-005  0.2508659E+04  0.7818608E-02  0.8399907E-01
         -1   -1    0    0    0  501 -0.00000000000E+00  0.00000000000E+00  0.10839658329E+04  0.10839658329E+04  0.00000000000E+00 0.  1.
          1   -1    0    0  501    0  0.00000000000E+00 -0.00000000000E+00 -0.14514687187E+04  0.14514687187E+04  0.00000000000E+00 0. -1.
         23    2    1    2    0    0  0.24298919912E+03  0.52837167577E+01 -0.14259944085E+04  0.14493977325E+04  0.90675605535E+02 0.  0.
         11    1    3    3    0    0  0.13065973118E+03  0.39078427200E+02 -0.61321714736E+03  0.62819929851E+03  0.00000000000E+00 0. -1.
        -11    1    3    3    0    0  0.11232946794E+03 -0.33794710442E+02 -0.81277726114E+03  0.82119843402E+03  0.00000000000E+00 0.  1.
         22    1    1    2    0    0 -0.24298919912E+03 -0.52837167577E+01  0.10584915227E+04  0.10860368190E+04  0.00000000000E+00 0.  1.
<mgrwt>
<rscale>  0 0.25086590E+04</rscale>
<asrwt>0</asrwt>
<pdfrwt beam="1">  1        1 0.22330288E+00 0.25086590E+04</pdfrwt>
<pdfrwt beam="2">  1       -1 0.16676397E+00 0.25086590E+04</pdfrwt>
<totfact> 0.16321057E+00</totfact>
</mgrwt>
</event>
<event>
 6    1  0.1885829E-005  0.2720423E+04  0.7818608E-02  0.8328409E-01
          2   -1    0    0  501    0  0.00000000000E+00  0.00000000000E+00  0.18114037918E+04  0.18114037918E+04  0.00000000000E+00 0. -1.
         -2   -1    0    0    0  501 -0.00000000000E+00 -0.00000000000E+00 -0.10214043518E+04  0.10214043518E+04  0.00000000000E+00 0.  1.
         23    2    1    2    0    0 -0.73179225451E+03  0.10171242861E+04 -0.15139809300E+03  0.12655522511E+04  0.92948375265E+02 0.  0.
         11    1    3    3    0    0 -0.24721173265E+03  0.28500265899E+03 -0.19993782628E+02  0.37780935369E+03  0.00000000000E+00 0.  1.
        -11    1    3    3    0    0 -0.48458052187E+03  0.73212162715E+03 -0.13140431037E+03  0.88774289741E+03  0.00000000000E+00 0. -1.
         22    1    1    2    0    0  0.73179225451E+03 -0.10171242861E+04  0.94139753302E+03  0.15672558924E+04  0.00000000000E+00 0. -1.
<mgrwt>
<rscale>  0 0.27204233E+04</rscale>
<asrwt>0</asrwt>
<pdfrwt beam="1">  1        2 0.27867751E+00 0.27204233E+04</pdfrwt>
<pdfrwt beam="2">  1       -2 0.15713913E+00 0.27204233E+04</pdfrwt>
<totfact> 0.19706364E+00</totfact>
</mgrwt>
</event>
<event>
 6    1  0.1885829E-005  0.5039216E+04  0.7818608E-02  0.7822486E-01
          2   -1    0    0  501    0  0.00000000000E+00  0.00000000000E+00  0.39307772922E+04  0.39307772922E+04  0.00000000000E+00 0. -1.
         -2   -1    0    0    0  501 -0.00000000000E+00 -0.00000000000E+00 -0.16150558093E+04  0.16150558093E+04  0.00000000000E+00 0.  1.
         23    2    1    2    0    0  0.14967473842E+04 -0.18265061300E+04  0.19392888878E+03  0.23711864775E+04  0.92409536440E+02 0.  0.
         11    1    3    3    0    0  0.10087637856E+04 -0.12455765772E+04  0.89275434572E+02  0.16053147629E+04  0.00000000000E+00 0.  1.
        -11    1    3    3    0    0  0.48798359858E+03 -0.58092955275E+03  0.10465345420E+03  0.76587171459E+03  0.00000000000E+00 0. -1.
         22    1    1    2    0    0 -0.14967473842E+04  0.18265061300E+04  0.21217925941E+04  0.31746466240E+04  0.00000000000E+00 0. -1.
<mgrwt>
<rscale>  0 0.50392161E+04</rscale>
<asrwt>0</asrwt>
<pdfrwt beam="1">  1        2 0.60473496E+00 0.50392161E+04</pdfrwt>
<pdfrwt beam="2">  1       -2 0.24847013E+00 0.50392161E+04</pdfrwt>
<totfact> 0.18449594E-02</totfact>
</mgrwt>
</event>
<event>
 6    1  0.1885829E-005  0.9952660E+03  0.7818608E-02  0.9313752E-01
         -2   -1    0    0    0  501 -0.00000000000E+00  0.00000000000E+00  0.11287670685E+03  0.11287670685E+03  0.00000000000E+00 0.  1.
          2   -1    0    0  501    0  0.00000000000E+00 -0.00000000000E+00 -0.21938858808E+04  0.21938858808E+04  0.00000000000E+00 0. -1.
         23    2    1    2    0    0 -0.19244709175E+03 -0.26960788392E+03 -0.18967834955E+04  0.19277330442E+04  0.92966481656E+02 0.  0.
         13    1    3    3    0    0 -0.62581246782E+02 -0.33760642649E+02 -0.52335895740E+03  0.52816738988E+03  0.00000000000E+00 0. -1.
        -13    1    3    3    0    0 -0.12986584496E+03 -0.23584724127E+03 -0.13734245381E+04  0.13995656543E+04  0.00000000000E+00 0.  1.
         22    1    1    2    0    0  0.19244709175E+03  0.26960788392E+03 -0.18422567843E+03  0.37902954342E+03  0.00000000000E+00 0. -1.
<mgrwt>
<rscale>  0 0.99526602E+03</rscale>
<asrwt>0</asrwt>
<pdfrwt beam="1">  1        2 0.33752091E+00 0.99526602E+03</pdfrwt>
<pdfrwt beam="2">  1       -2 0.17365647E-01 0.99526602E+03</pdfrwt>
<totfact> 0.14305386E+02</totfact>
</mgrwt>
</event>
<event>
 6    1  0.1885829E-005  0.5565388E+04  0.7818608E-02  0.7746755E-01
         -2   -1    0    0    0  501 -0.00000000000E+00  0.00000000000E+00  0.19015610824E+04  0.19015610824E+04  0.00000000000E+00 0. -1.
          2   -1    0    0  501    0  0.00000000000E+00 -0.00000000000E+00 -0.40721209073E+04  0.40721209073E+04  0.00000000000E+00 0.  1.
         23    2    1    2    0    0  0.24544519032E+04  0.62131277282E+03 -0.23233594763E+04  0.34372058041E+04  0.77593663649E+02 0.  0.
         13    1    3    3    0    0  0.18000195373E+04  0.47199540477E+03 -0.16658434114E+04  0.24975756781E+04  0.00000000000E+00 0.  1.
        -13    1    3    3    0    0  0.65443236594E+03  0.14931736805E+03 -0.65751606488E+03  0.93963012593E+03  0.00000000000E+00 0. -1.
         22    1    1    2    0    0 -0.24544519032E+04 -0.62131277282E+03  0.15279965131E+03  0.25364761856E+04  0.00000000000E+00 0. -1.
<mgrwt>
<rscale>  0 0.55653883E+04</rscale>
<asrwt>0</asrwt>
<pdfrwt beam="1">  1        2 0.62648014E+00 0.55653883E+04</pdfrwt>
<pdfrwt beam="2">  1       -2 0.29254786E+00 0.55653883E+04</pdfrwt>
<totfact> 0.72954233E-03</totfact>
</mgrwt>
</event>
<event>
 6    1  0.1885829E-005  0.6274296E+03  0.7818608E-02  0.9850078E-01
         -2   -1    0    0    0  501 -0.00000000000E+00  0.00000000000E+00  0.12450803621E+03  0.12450803621E+03  0.00000000000E+00 0.  1.
          2   -1    0    0  501    0  0.00000000000E+00 -0.00000000000E+00 -0.79044676163E+03  0.79044676163E+03  0.00000000000E+00 0. -1.
         23    2    1    2    0    0  0.59085976940E+02 -0.14087404965E+03 -0.72828146746E+03  0.74996004634E+03  0.93324834451E+02 0.  0.
         13    1    3    3    0    0  0.20481151981E+02 -0.12926505289E+03 -0.63489275300E+03  0.64824203759E+03  0.00000000000E+00 0. -1.
        -13    1    3    3    0    0  0.38604824960E+02 -0.11608996763E+02 -0.93388714459E+02  0.10171800875E+03  0.00000000000E+00 0.  1.
         22    1    1    2    0    0 -0.59085976940E+02  0.14087404965E+03  0.62342742044E+02  0.16499475150E+03  0.00000000000E+00 0. -1.
<mgrwt>
<rscale>  0 0.62742959E+03</rscale>
<asrwt>0</asrwt>
<pdfrwt beam="1">  1        2 0.12160719E+00 0.62742959E+03</pdfrwt>
<pdfrwt beam="2">  1       -2 0.19155083E-01 0.62742959E+03</pdfrwt>
<totfact> 0.81013301E+02</totfact>
</mgrwt>
</event>
<event>
 6    1  0.1885829E-005  0.1624103E+04  0.7818608E-02  0.8805876E-01
          2   -1    0    0  501    0  0.00000000000E+00  0.00000000000E+00  0.97571792850E+03  0.97571792850E+03  0.00000000000E+00 0. -1.
         -2   -1    0    0    0  501 -0.00000000000E+00 -0.00000000000E+00 -0.67583875298E+03  0.67583875298E+03  0.00000000000E+00 0.  1.
         23    2    1    2    0    0  0.25166046564E+03 -0.71896524697E+03  0.42880476200E+03  0.87898576359E+03  0.92186942488E+02 0.  0.
         11    1    3    3    0    0  0.24832714193E+03 -0.68862392493E+03  0.38944864431E+03  0.82918003230E+03  0.00000000000E+00 0. -1.
        -11    1    3    3    0    0  0.33333237036E+01 -0.30341322043E+02  0.39356117689E+02  0.49805731294E+02  0.00000000000E+00 0.  1.
         22    1    1    2    0    0 -0.25166046564E+03  0.71896524697E+03 -0.12892558648E+03  0.77257091789E+03  0.00000000000E+00 0.  1.
<mgrwt>
<rscale>  0 0.16241034E+04</rscale>
<asrwt>0</asrwt>
<pdfrwt beam="1">  1        2 0.15011045E+00 0.16241034E+04</pdfrwt>
<pdfrwt beam="2">  1       -2 0.10397519E+00 0.16241034E+04</pdfrwt>
<totfact> 0.18816539E+01</totfact>
</mgrwt>
</event>
<event>
 6    1  0.1885829E-005  0.4745997E+04  0.7818608E-02  0.7868931E-01
         -2   -1    0    0    0  501 -0.00000000000E+00  0.00000000000E+00  0.20121888827E+04  0.20121888827E+04  0.00000000000E+00 0.  1.
          2   -1    0    0  501    0  0.00000000000E+00 -0.00000000000E+00 -0.27985054778E+04  0.27985054778E+04  0.00000000000E+00 0. -1.
         23    2    1    2    0    0 -0.88096658814E+03 -0.79933133995E+03  0.16870592196E+04  0.20661323478E+04  0.87757324070E+02 0.  0.
         11    1    3    3    0    0 -0.54479881912E+03 -0.46738912308E+03  0.95082064103E+03  0.11913514331E+04  0.00000000000E+00 0. -1.
        -11    1    3    3    0    0 -0.33616776903E+03 -0.33194221687E+03  0.73623857852E+03  0.87478091473E+03  0.00000000000E+00 0.  1.
         22    1    1    2    0    0  0.88096658814E+03  0.79933133995E+03 -0.24733758147E+04  0.27445620126E+04  0.00000000000E+00 0. -1.
<mgrwt>
<rscale>  0 0.47459969E+04</rscale>
<asrwt>0</asrwt>
<pdfrwt beam="1">  1        2 0.43053931E+00 0.47459969E+04</pdfrwt>
<pdfrwt beam="2">  1       -2 0.30956752E+00 0.47459969E+04</pdfrwt>
<totfact> 0.47783012E-02</totfact>
</mgrwt>
</event>
<event>
 6    1  0.1885829E-005  0.2408435E+04  0.7818608E-02  0.8436353E-01
          1   -1    0    0  501    0  0.00000000000E+00  0.00000000000E+00  0.17028341955E+04  0.17028341955E+04  0.00000000000E+00 0. -1.
         -1   -1    0    0    0  501 -0.00000000000E+00 -0.00000000000E+00 -0.85160335576E+03  0.85160335576E+03  0.00000000000E+00 0.  1.
         23    2    1    2    0    0  0.11046533813E+04 -0.11992740895E+03 -0.61809657245E+02  0.11162843517E+04  0.87342108325E+02 0.  0.
         11    1    3    3    0    0  0.96463213167E+03 -0.85868801529E+02 -0.76334724145E+02  0.97145025124E+03  0.00000000000E+00 0. -1.
        -11    1    3    3    0    0  0.14002124964E+03 -0.34058607419E+02  0.14525066901E+02  0.14483410047E+03  0.00000000000E+00 0.  1.
         22    1    1    2    0    0 -0.11046533813E+04  0.11992740895E+03  0.91304049701E+03  0.14381531996E+04  0.00000000000E+00 0. -1.
<mgrwt>
<rscale>  0 0.24084346E+04</rscale>
<asrwt>0</asrwt>
<pdfrwt beam="1">  1        1 0.26197449E+00 0.24084346E+04</pdfrwt>
<pdfrwt beam="2">  1       -1 0.13101590E+00 0.24084346E+04</pdfrwt>
<totfact> 0.21125847E+00</totfact>
</mgrwt>
</event>
<event>
 6    1  0.1885829E-005  0.2076660E+04  0.7818608E-02  0.8571595E-01
         -2   -1    0    0    0  501 -0.00000000000E+00  0.00000000000E+00  0.74417227602E+03  0.74417227602E+03  0.00000000000E+00 0.  1.
          2   -1    0    0  501    0  0.00000000000E+00 -0.00000000000E+00 -0.14487628686E+04  0.14487628686E+04  0.00000000000E+00 0. -1.
         23    2    1    2    0    0 -0.33746226386E+03  0.83289905486E+03  0.19209742825E+03  0.92342696355E+03  0.90632885611E+02 0.  0.
         13    1    3    3    0    0 -0.11976004613E+03  0.31208921790E+03  0.27341040312E+02  0.33539481371E+03  0.00000000000E+00 0. -1.
        -13    1    3    3    0    0 -0.21770221773E+03  0.52080983696E+03  0.16475638793E+03  0.58803214984E+03  0.00000000000E+00 0.  1.
         22    1    1    2    0    0  0.33746226386E+03 -0.83289905486E+03 -0.89668802079E+03  0.12695081810E+04  0.00000000000E+00 0. -1.
<mgrwt>
<rscale>  0 0.20766600E+04</rscale>
<asrwt>0</asrwt>
<pdfrwt beam="1">  1        2 0.22288660E+00 0.20766600E+04</pdfrwt>
<pdfrwt beam="2">  1       -2 0.11448804E+00 0.20766600E+04</pdfrwt>
<totfact> 0.74711798E+00</totfact>
</mgrwt>
</event>
<event>
 6    1  0.2298295E-005  0.4522430E+04  0.7818608E-02  0.7906722E-01
          2   -1    0    0  501    0  0.00000000000E+00  0.00000000000E+00  0.30663426224E+04  0.30663426224E+04  0.00000000000E+00 0. -1.
         -2   -1    0    0    0  501 -0.00000000000E+00 -0.00000000000E+00 -0.16674895012E+04  0.16674895012E+04  0.00000000000E+00 0.  1.
         23    2    1    2    0    0 -0.10183782980E+03  0.13250132692E+04 -0.12141182230E+04  0.18023392698E+04  0.91173883700E+02 0.  0.
         11    1    3    3    0    0 -0.10651686263E+03  0.82435583288E+03 -0.77106429491E+03  0.11337762249E+04  0.00000000000E+00 0. -1.
        -11    1    3    3    0    0  0.46790328299E+01  0.50065743629E+03 -0.44305392804E+03  0.66856304491E+03  0.00000000000E+00 0.  1.
         22    1    1    2    0    0  0.10183782980E+03 -0.13250132692E+04  0.26129713441E+04  0.29314928539E+04  0.00000000000E+00 0. -1.
<mgrwt>
<rscale>  0 0.45224304E+04</rscale>
<asrwt>0</asrwt>
<pdfrwt beam="1">  1        2 0.47174502E+00 0.45224304E+04</pdfrwt>
<pdfrwt beam="2">  1       -2 0.25653685E+00 0.45224304E+04</pdfrwt>
<totfact> 0.70012039E-02</totfact>
</mgrwt>
</event>
<event>
 6    1  0.1885829E-005  0.8253437E+03  0.7818608E-02  0.9524041E-01
         -2   -1    0    0    0  501 -0.00000000000E+00  0.00000000000E+00  0.99730949347E+02  0.99730949347E+02  0.00000000000E+00 0.  1.
          2   -1    0    0  501    0  0.00000000000E+00 -0.00000000000E+00 -0.17075747880E+04  0.17075747880E+04  0.00000000000E+00 0. -1.
         23    2    1    2    0    0 -0.87667952174E+02 -0.34899967657E+03 -0.12307777020E+04  0.12860905079E+04  0.98633657981E+02 0.  0.
         11    1    3    3    0    0 -0.22835845695E+01 -0.11335772610E+03 -0.52579109849E+03  0.53787681496E+03  0.00000000000E+00 0. -1.
        -11    1    3    3    0    0 -0.85384367604E+02 -0.23564195047E+03 -0.70498660354E+03  0.74821369289E+03  0.00000000000E+00 0.  1.
         22    1    1    2    0    0  0.87667952174E+02  0.34899967657E+03 -0.37706613667E+03  0.52121522954E+03  0.00000000000E+00 0. -1.
<mgrwt>
<rscale>  0 0.82534370E+03</rscale>
<asrwt>0</asrwt>
<pdfrwt beam="1">  1        2 0.26270383E+00 0.82534370E+03</pdfrwt>
<pdfrwt beam="2">  1       -2 0.15343222E-01 0.82534370E+03</pdfrwt>
<totfact> 0.33130922E+02</totfact>
</mgrwt>
</event>
<event>
 6    1  0.1885829E-005  0.3300118E+03  0.7818608E-02  0.1071132E+00
          2   -1    0    0  501    0  0.00000000000E+00  0.00000000000E+00  0.11509676955E+04  0.11509676955E+04  0.00000000000E+00 0. -1.
         -2   -1    0    0    0  501 -0.00000000000E+00 -0.00000000000E+00 -0.23655697866E+02  0.23655697866E+02  0.00000000000E+00 0.  1.
         23    2    1    2    0    0 -0.11456641626E+03 -0.89146739891E+02  0.43626695542E+03  0.46849602856E+03  0.89928123581E+02 0.  0.
         11    1    3    3    0    0 -0.52755768544E+02 -0.32716586365E+02  0.31558191389E+03  0.32162943042E+03  0.00000000000E+00 0. -1.
        -11    1    3    3    0    0 -0.61810647721E+02 -0.56430153526E+02  0.12068504154E+03  0.14686659814E+03  0.00000000000E+00 0.  1.
         22    1    1    2    0    0  0.11456641626E+03  0.89146739891E+02  0.69104504224E+03  0.70612736484E+03  0.00000000000E+00 0. -1.
<mgrwt>
<rscale>  0 0.33001178E+03</rscale>
<asrwt>0</asrwt>
<pdfrwt beam="1">  1        2 0.17707191E+00 0.33001178E+03</pdfrwt>
<pdfrwt beam="2">  1       -2 0.36393390E-02 0.33001178E+03</pdfrwt>
<totfact> 0.67818066E+03</totfact>
</mgrwt>
</event>
<event>
 6    1  0.1885829E-005  0.1569154E+04  0.7818608E-02  0.8839726E-01
         -4   -1    0    0    0  501 -0.00000000000E+00  0.00000000000E+00  0.55280012421E+03  0.55280012421E+03  0.00000000000E+00 0. -1.
          4   -1    0    0  501    0  0.00000000000E+00 -0.00000000000E+00 -0.11135320961E+04  0.11135320961E+04  0.00000000000E+00 0.  1.
         23    2    1    2    0    0  0.38192678636E+03 -0.72743406655E+02 -0.10017353497E+04  0.10784175559E+04  0.91384028725E+02 0.  0.
         13    1    3    3    0    0  0.32041755009E+03 -0.33219909532E+02 -0.87046753125E+03  0.92816199650E+03  0.00000000000E+00 0. -1.
        -13    1    3    3    0    0  0.61509236270E+02 -0.39523497123E+02 -0.13126781843E+03  0.15025555939E+03  0.00000000000E+00 0.  1.
         22    1    1    2    0    0 -0.38192678636E+03  0.72743406655E+02  0.44100337782E+03  0.58791466438E+03  0.00000000000E+00 0. -1.
<mgrwt>
<rscale>  0 0.15691535E+04</rscale>
<asrwt>0</asrwt>
<pdfrwt beam="1">  1        4 0.17131263E+00 0.15691535E+04</pdfrwt>
<pdfrwt beam="2">  1       -4 0.85046173E-01 0.15691535E+04</pdfrwt>
<totfact> 0.48003305E-01</totfact>
</mgrwt>
</event>
<event>
 6    1  0.1885829E-005  0.2372397E+04  0.7818608E-02  0.8449910E-01
         -2   -1    0    0    0  501 -0.00000000000E+00  0.00000000000E+00  0.68272248395E+03  0.68272248395E+03  0.00000000000E+00 0. -1.
          2   -1    0    0  501    0  0.00000000000E+00 -0.00000000000E+00 -0.20609649854E+04  0.20609649854E+04  0.00000000000E+00 0.  1.
         23    2    1    2    0    0 -0.11357542794E+03 -0.10645751265E+04 -0.12759888140E+04  0.16681990247E+04  0.92309017989E+02 0.  0.
         13    1    3    3    0    0  0.49961835658E-02 -0.83870812954E+01 -0.66335117765E+00  0.84132747727E+01  0.00000000000E+00 0. -1.
        -13    1    3    3    0    0 -0.11358042412E+03 -0.10561880452E+04 -0.12753254629E+04  0.16597857500E+04  0.00000000000E+00 0.  1.
         22    1    1    2    0    0  0.11357542794E+03  0.10645751265E+04 -0.10225368738E+03  0.10754884446E+04  0.00000000000E+00 0. -1.
<mgrwt>
<rscale>  0 0.23723972E+04</rscale>
<asrwt>0</asrwt>
<pdfrwt beam="1">  1        2 0.31707153E+00 0.23723972E+04</pdfrwt>
<pdfrwt beam="2">  1       -2 0.10503423E+00 0.23723972E+04</pdfrwt>
<totfact> 0.40897420E+00</totfact>
</mgrwt>
</event>
<event>
 6    1  0.1885829E-005  0.1508789E+04  0.7818608E-02  0.8878629E-01
         -1   -1    0    0    0  501 -0.00000000000E+00  0.00000000000E+00  0.62766501991E+03  0.62766501991E+03  0.00000000000E+00 0.  1.
          1   -1    0    0  501    0  0.00000000000E+00 -0.00000000000E+00 -0.90671195231E+03  0.90671195231E+03  0.00000000000E+00 0. -1.
         23    2    1    2    0    0  0.55218212959E+03  0.12464319599E+03  0.36300262013E+03  0.67841630815E+03  0.89647947001E+02 0.  0.
         11    1    3    3    0    0  0.33893311956E+03  0.10691438124E+03  0.18845353768E+03  0.40226990978E+03  0.00000000000E+00 0.  1.
        -11    1    3    3    0    0  0.21324901003E+03  0.17728814755E+02  0.17454908244E+03  0.27614639837E+03  0.00000000000E+00 0. -1.
         22    1    1    2    0    0 -0.55218212959E+03 -0.12464319599E+03 -0.64204955252E+03  0.85596066407E+03  0.00000000000E+00 0. -1.
<mgrwt>
<rscale>  0 0.15087894E+04</rscale>
<asrwt>0</asrwt>
<pdfrwt beam="1">  1        1 0.13949415E+00 0.15087894E+04</pdfrwt>
<pdfrwt beam="2">  1       -1 0.96563849E-01 0.15087894E+04</pdfrwt>
<totfact> 0.17930707E+01</totfact>
</mgrwt>
</event>
<event>
 6    1  0.1885829E-005  0.1834117E+04  0.7818608E-02  0.8688364E-01
         -2   -1    0    0    0  501 -0.00000000000E+00  0.00000000000E+00  0.69146463486E+03  0.69146463486E+03  0.00000000000E+00 0.  1.
          2   -1    0    0  501    0  0.00000000000E+00 -0.00000000000E+00 -0.12162534326E+04  0.12162534326E+04  0.00000000000E+00 0. -1.
         23    2    1    2    0    0 -0.15051748453E+03  0.81464964114E+03  0.14055275666E+03  0.84517915760E+03  0.90902035608E+02 0.  0.
         13    1    3    3    0    0 -0.25907784464E+02  0.25823253701E+03  0.81013693166E+02  0.27187952285E+03  0.00000000000E+00 0. -1.
        -13    1    3    3    0    0 -0.12460970007E+03  0.55641710413E+03  0.59539063494E+02  0.57329963475E+03  0.00000000000E+00 0.  1.
         22    1    1    2    0    0  0.15051748453E+03 -0.81464964114E+03 -0.66534155441E+03  0.10625389099E+04  0.00000000000E+00 0.  1.
<mgrwt>
<rscale>  0 0.18341169E+04</rscale>
<asrwt>0</asrwt>
<pdfrwt beam="1">  1        2 0.18711591E+00 0.18341169E+04</pdfrwt>
<pdfrwt beam="2">  1       -2 0.10637918E+00 0.18341169E+04</pdfrwt>
<totfact> 0.12424874E+01</totfact>
</mgrwt>
</event>
<event>
 6    1  0.1885829E-005  0.2119047E+04  0.7818608E-02  0.8552899E-01
         -1   -1    0    0    0  501 -0.00000000000E+00  0.00000000000E+00  0.52874744940E+03  0.52874744940E+03  0.00000000000E+00 0.  1.
          1   -1    0    0  501    0  0.00000000000E+00 -0.00000000000E+00 -0.21231117183E+04  0.21231117183E+04  0.00000000000E+00 0. -1.
         23    2    1    2    0    0 -0.46129872346E+02  0.42044647702E+03 -0.20117159534E+04  0.20576490756E+04  0.89528966903E+02 0.  0.
         11    1    3    3    0    0 -0.10191947986E+02  0.28661768690E+03 -0.15180217235E+04  0.15448765411E+04  0.00000000000E+00 0.  1.
        -11    1    3    3    0    0 -0.35937924360E+02  0.13382879013E+03 -0.49369422985E+03  0.51277253442E+03  0.00000000000E+00 0. -1.
         22    1    1    2    0    0  0.46129872346E+02 -0.42044647702E+03  0.41735168442E+03  0.59421009219E+03  0.00000000000E+00 0.  1.
<mgrwt>
<rscale>  0 0.21190469E+04</rscale>
<asrwt>0</asrwt>
<pdfrwt beam="1">  1        1 0.32663257E+00 0.21190469E+04</pdfrwt>
<pdfrwt beam="2">  1       -1 0.81345763E-01 0.21190469E+04</pdfrwt>
<totfact> 0.33964973E+00</totfact>
</mgrwt>
</event>
<event>
 6    1  0.1885829E-005  0.4845063E+04  0.7818608E-02  0.7852862E-01
         -2   -1    0    0    0  501 -0.00000000000E+00  0.00000000000E+00  0.19893015367E+04  0.19893015367E+04  0.00000000000E+00 0.  1.
          2   -1    0    0  501    0  0.00000000000E+00 -0.00000000000E+00 -0.29501103920E+04  0.29501103920E+04  0.00000000000E+00 0. -1.
         23    2    1    2    0    0 -0.22876700440E+04  0.79255393300E+03 -0.53574147485E+03  0.24813113927E+04  0.91166509077E+02 0.  0.
         11    1    3    3    0    0 -0.45598805655E+03  0.19655904021E+03 -0.10477374994E+03  0.50748212055E+03  0.00000000000E+00 0. -1.
        -11    1    3    3    0    0 -0.18316819875E+04  0.59599489279E+03 -0.43096772491E+03  0.19738292721E+04  0.00000000000E+00 0.  1.
         22    1    1    2    0    0  0.22876700440E+04 -0.79255393300E+03 -0.42506738042E+03  0.24581005360E+04  0.00000000000E+00 0.  1.
<mgrwt>
<rscale>  0 0.48450631E+04</rscale>
<asrwt>0</asrwt>
<pdfrwt beam="1">  1        2 0.45386314E+00 0.48450631E+04</pdfrwt>
<pdfrwt beam="2">  1       -2 0.30604639E+00 0.48450631E+04</pdfrwt>
<totfact> 0.40217888E-02</totfact>
</mgrwt>
</event>
<event>
 6    1  0.1885829E-005  0.1971637E+04  0.7818608E-02  0.8619998E-01
         -2   -1    0    0    0  501 -0.00000000000E+00  0.00000000000E+00  0.50066655920E+03  0.50066655920E+03  0.00000000000E+00 0.  1.
          2   -1    0    0  501    0  0.00000000000E+00 -0.00000000000E+00 -0.19410875606E+04  0.19410875606E+04  0.00000000000E+00 0. -1.
         23    2    1    2    0    0 -0.36650053886E+02 -0.61019313775E+03 -0.16762778242E+04  0.17865386341E+04  0.90188997789E+02 0.  0.
         11    1    3    3    0    0  0.30000201051E+02 -0.22525241307E+03 -0.61762443781E+03  0.65810227764E+03  0.00000000000E+00 0.  1.
        -11    1    3    3    0    0 -0.66650254936E+02 -0.38494072468E+03 -0.10586533864E+04  0.11284363565E+04  0.00000000000E+00 0. -1.
         22    1    1    2    0    0  0.36650053886E+02  0.61019313775E+03  0.23585682284E+03  0.65521548569E+03  0.00000000000E+00 0.  1.
<mgrwt>
<rscale>  0 0.19716365E+04</rscale>
<asrwt>0</asrwt>
<pdfrwt beam="1">  1        2 0.29862885E+00 0.19716365E+04</pdfrwt>
<pdfrwt beam="2">  1       -2 0.77025626E-01 0.19716365E+04</pdfrwt>
<totfact> 0.10095019E+01</totfact>
</mgrwt>
</event>
<event>
 6    1  0.1885829E-005  0.1989389E+04  0.7818608E-02  0.8611598E-01
          2   -1    0    0  501    0  0.00000000000E+00  0.00000000000E+00  0.27382558827E+04  0.27382558827E+04  0.00000000000E+00 0. -1.
         -2   -1    0    0    0  501 -0.00000000000E+00 -0.00000000000E+00 -0.36133131500E+03  0.36133131500E+03  0.00000000000E+00 0.  1.
         23    2    1    2    0    0 -0.28699236484E+03 -0.74257774240E+03  0.26726308695E+03  0.84471294748E+03  0.91236423694E+02 0.  0.
         11    1    3    3    0    0 -0.48032023283E+02 -0.23421639383E+03  0.66156677237E+02  0.24807478780E+03  0.00000000000E+00 0. -1.
        -11    1    3    3    0    0 -0.23896034155E+03 -0.50836134857E+03  0.20110640972E+03  0.59663815968E+03  0.00000000000E+00 0.  1.
         22    1    1    2    0    0  0.28699236484E+03  0.74257774240E+03  0.21096614807E+04  0.22548742502E+04  0.00000000000E+00 0. -1.
<mgrwt>
<rscale>  0 0.19893895E+04</rscale>
<asrwt>0</asrwt>
<pdfrwt beam="1">  1        2 0.42127012E+00 0.19893895E+04</pdfrwt>
<pdfrwt beam="2">  1       -2 0.55589435E-01 0.19893895E+04</pdfrwt>
<totfact> 0.71323553E+00</totfact>
</mgrwt>
</event>
<event>
 6    1  0.1885829E-005  0.7011744E+04  0.7818608E-02  0.7576225E-01
          2   -1    0    0  501    0  0.00000000000E+00  0.00000000000E+00  0.26201387498E+04  0.26201387498E+04  0.00000000000E+00 0. -1.
         -2   -1    0    0    0  501 -0.00000000000E+00 -0.00000000000E+00 -0.46910263151E+04  0.46910263151E+04  0.00000000000E+00 0.  1.
         23    2    1    2    0    0  0.25702041340E+04 -0.23030123174E+04 -0.16760227849E+04  0.38375886343E+04  0.90659392965E+02 0.  0.
         13    1    3    3    0    0  0.12633236569E+04 -0.11081836217E+04 -0.76975309297E+03  0.18483986111E+04  0.00000000000E+00 0. -1.
        -13    1    3    3    0    0  0.13068804771E+04 -0.11948286957E+04 -0.90626969191E+03  0.19891900231E+04  0.00000000000E+00 0.  1.
         22    1    1    2    0    0 -0.25702041340E+04  0.23030123174E+04 -0.39486478041E+03  0.34735764307E+04  0.00000000000E+00 0.  1.
<mgrwt>
<rscale>  0 0.70117444E+04</rscale>
<asrwt>0</asrwt>
<pdfrwt beam="1">  1        2 0.40309827E+00 0.70117444E+04</pdfrwt>
<pdfrwt beam="2">  1       -2 0.72169636E+00 0.70117444E+04</pdfrwt>
<totfact> 0.35631717E-04</totfact>
</mgrwt>
</event>
<event>
 6    1  0.1885829E-005  0.2929246E+04  0.7818608E-02  0.8264229E-01
         -2   -1    0    0    0  501 -0.00000000000E+00  0.00000000000E+00  0.69098119324E+03  0.69098119324E+03  0.00000000000E+00 0.  1.
          2   -1    0    0  501    0  0.00000000000E+00 -0.00000000000E+00 -0.31044548297E+04  0.31044548297E+04  0.00000000000E+00 0. -1.
         23    2    1    2    0    0 -0.92132706515E+03  0.53707392622E+03 -0.25060023931E+04  0.27249905391E+04  0.90738528279E+02 0.  0.
         13    1    3    3    0    0 -0.72950440798E+03  0.40685206813E+03 -0.18710125183E+04  0.20489980796E+04  0.00000000000E+00 0. -1.
        -13    1    3    3    0    0 -0.19182265717E+03  0.13022185809E+03 -0.63498987488E+03  0.67599245952E+03  0.00000000000E+00 0.  1.
         22    1    1    2    0    0  0.92132706515E+03 -0.53707392622E+03  0.92528756635E+02  0.10704454839E+04  0.00000000000E+00 0.  1.
<mgrwt>
<rscale>  0 0.29292456E+04</rscale>
<asrwt>0</asrwt>
<pdfrwt beam="1">  1        2 0.47760845E+00 0.29292456E+04</pdfrwt>
<pdfrwt beam="2">  1       -2 0.10630480E+00 0.29292456E+04</pdfrwt>
<totfact> 0.91795660E-01</totfact>
</mgrwt>
</event>
<event>
 6    1  0.1885829E-005  0.2634820E+04  0.7818608E-02  0.8356469E-01
          2   -1    0    0  501    0  0.00000000000E+00  0.00000000000E+00  0.24092501931E+04  0.24092501931E+04  0.00000000000E+00 0.  1.
         -2   -1    0    0    0  501 -0.00000000000E+00 -0.00000000000E+00 -0.72037723522E+03  0.72037723522E+03  0.00000000000E+00 0. -1.
         23    2    1    2    0    0  0.12902398826E+04  0.92328776081E+02  0.55879549682E+03  0.14119782716E+04  0.90480245687E+02 0.  0.
         13    1    3    3    0    0  0.99856612215E+03  0.48351051733E+02  0.46386405571E+03  0.11021079742E+04  0.00000000000E+00 0. -1.
        -13    1    3    3    0    0  0.29167376041E+03  0.43977724348E+02  0.94931441111E+02  0.30987029748E+03  0.00000000000E+00 0.  1.
         22    1    1    2    0    0 -0.12902398826E+04 -0.92328776081E+02  0.11300774610E+04  0.17176491567E+04  0.00000000000E+00 0.  1.
<mgrwt>
<rscale>  0 0.26348199E+04</rscale>
<asrwt>0</asrwt>
<pdfrwt beam="1">  1        2 0.37065387E+00 0.26348199E+04</pdfrwt>
<pdfrwt beam="2">  1       -2 0.11082727E+00 0.26348199E+04</pdfrwt>
<totfact> 0.22344006E+00</totfact>
</mgrwt>
</event>
<event>
 6    1  0.1885829E-005  0.1994219E+04  0.7818608E-02  0.8609328E-01
          2   -1    0    0  501    0  0.00000000000E+00  0.00000000000E+00  0.16297445367E+04  0.16297445367E+04  0.00000000000E+00 0. -1.
         -2   -1    0    0    0  501 -0.00000000000E+00 -0.00000000000E+00 -0.61005085972E+03  0.61005085972E+03  0.00000000000E+00 0.  1.
         23    2    1    2    0    0  0.52102800814E+03 -0.73729766358E+03  0.41182236187E+02  0.90841916494E+03  0.91931347568E+02 0.  0.
         11    1    3    3    0    0  0.18252955630E+03 -0.25735938524E+03  0.58353599429E+02  0.32086762794E+03  0.00000000000E+00 0. -1.
        -11    1    3    3    0    0  0.33849845184E+03 -0.47993827834E+03 -0.17171363242E+02  0.58755153700E+03  0.00000000000E+00 0.  1.
         22    1    1    2    0    0 -0.52102800814E+03  0.73729766358E+03  0.97851144081E+03  0.13313762315E+04  0.00000000000E+00 0.  1.
<mgrwt>
<rscale>  0 0.19942187E+04</rscale>
<asrwt>0</asrwt>
<pdfrwt beam="1">  1        2 0.25072993E+00 0.19942187E+04</pdfrwt>
<pdfrwt beam="2">  1       -2 0.93853979E-01 0.19942187E+04</pdfrwt>
<totfact> 0.95654492E+00</totfact>
</mgrwt>
</event>
<event>
 6    1  0.1885829E-005  0.4013418E+04  0.7818608E-02  0.8001845E-01
          2   -1    0    0  501    0  0.00000000000E+00  0.00000000000E+00  0.25281526462E+04  0.25281526462E+04  0.00000000000E+00 0. -1.
         -2   -1    0    0    0  501 -0.00000000000E+00 -0.00000000000E+00 -0.15928159993E+04  0.15928159993E+04  0.00000000000E+00 0.  1.
         23    2    1    2    0    0  0.98397476918E+03 -0.11693795202E+04  0.18012697062E+04  0.23644109688E+04  0.10105377822E+03 0.  0.
         13    1    3    3    0    0  0.13708467475E+03 -0.21353787424E+03  0.32800004448E+03  0.41469827702E+03  0.00000000000E+00 0.  1.
        -13    1    3    3    0    0  0.84689009443E+03 -0.95584164591E+03  0.14732696618E+04  0.19497126917E+04  0.00000000000E+00 0. -1.
         22    1    1    2    0    0 -0.98397476918E+03  0.11693795202E+04 -0.86593305927E+03  0.17565576767E+04  0.00000000000E+00 0.  1.
<mgrwt>
<rscale>  0 0.40134185E+04</rscale>
<asrwt>0</asrwt>
<pdfrwt beam="1">  1        2 0.38894656E+00 0.40134185E+04</pdfrwt>
<pdfrwt beam="2">  1       -2 0.24504861E+00 0.40134185E+04</pdfrwt>
<totfact> 0.18212129E-01</totfact>
</mgrwt>
</event>
<event>
 6    1  0.1885829E-005  0.2334855E+04  0.7818608E-02  0.8464304E-01
         -2   -1    0    0    0  501 -0.00000000000E+00  0.00000000000E+00  0.10400877690E+04  0.10400877690E+04  0.00000000000E+00 0.  1.
          2   -1    0    0  501    0  0.00000000000E+00 -0.00000000000E+00 -0.13103575169E+04  0.13103575169E+04  0.00000000000E+00 0. -1.
         23    2    1    2    0    0 -0.88031537333E+03 -0.46108886784E+03  0.47804715434E+03  0.11064451707E+04  0.90187213228E+02 0.  0.
         13    1    3    3    0    0 -0.59528575698E+03 -0.35829988044E+03  0.32786129768E+03  0.76826881188E+03  0.00000000000E+00 0. -1.
        -13    1    3    3    0    0 -0.28502961635E+03 -0.10278898740E+03  0.15018585665E+03  0.33817635882E+03  0.00000000000E+00 0.  1.
         22    1    1    2    0    0  0.88031537333E+03  0.46108886784E+03 -0.74831690226E+03  0.12440001153E+04  0.00000000000E+00 0. -1.
<mgrwt>
<rscale>  0 0.23348549E+04</rscale>
<asrwt>0</asrwt>
<pdfrwt beam="1">  1        2 0.20159346E+00 0.23348549E+04</pdfrwt>
<pdfrwt beam="2">  1       -2 0.16001350E+00 0.23348549E+04</pdfrwt>
<totfact> 0.37120897E+00</totfact>
</mgrwt>
</event>
<event>
 6    1  0.1885829E-005  0.2179998E+04  0.7818608E-02  0.8526800E-01
          2   -1    0    0  501    0  0.00000000000E+00  0.00000000000E+00  0.96661499939E+03  0.96661499939E+03  0.00000000000E+00 0.  1.
         -2   -1    0    0    0  501 -0.00000000000E+00 -0.00000000000E+00 -0.12291321048E+04  0.12291321048E+04  0.00000000000E+00 0. -1.
         23    2    1    2    0    0  0.14710312512E+03  0.99588543855E+03  0.28443246727E+03  0.10500678423E+04  0.91178444606E+02 0.  0.
         11    1    3    3    0    0  0.94658758088E+02  0.39977612646E+03  0.87120969448E+02  0.41996582609E+03  0.00000000000E+00 0. -1.
        -11    1    3    3    0    0  0.52444367030E+02  0.59610931210E+03  0.19731149782E+03  0.63010201616E+03  0.00000000000E+00 0.  1.
         22    1    1    2    0    0 -0.14710312512E+03 -0.99588543855E+03 -0.54694957265E+03  0.11456792619E+04  0.00000000000E+00 0. -1.
<mgrwt>
<rscale>  0 0.21799977E+04</rscale>
<asrwt>0</asrwt>
<pdfrwt beam="1">  1        2 0.14871000E+00 0.21799977E+04</pdfrwt>
<pdfrwt beam="2">  1       -2 0.18909725E+00 0.21799977E+04</pdfrwt>
<totfact> 0.38091269E+00</totfact>
</mgrwt>
</event>
<event>
 6    1  0.1885829E-005  0.1283621E+04  0.7818608E-02  0.9042655E-01
         -2   -1    0    0    0  501 -0.00000000000E+00  0.00000000000E+00  0.18915441250E+03  0.18915441250E+03  0.00000000000E+00 0. -1.
          2   -1    0    0  501    0  0.00000000000E+00 -0.00000000000E+00 -0.21776971648E+04  0.21776971648E+04  0.00000000000E+00 0.  1.
         23    2    1    2    0    0  0.19898231328E+03  0.41206694318E+02 -0.21155191201E+04  0.21272374070E+04  0.91792621005E+02 0.  0.
         11    1    3    3    0    0  0.11638986190E+03  0.84185519992E+01 -0.77057473813E+03  0.77936057061E+03  0.00000000000E+00 0. -1.
        -11    1    3    3    0    0  0.82592451383E+02  0.32788142319E+02 -0.13449443820E+04  0.13478768363E+04  0.00000000000E+00 0.  1.
         22    1    1    2    0    0 -0.19898231328E+03 -0.41206694318E+02  0.12697636781E+03  0.23961417036E+03  0.00000000000E+00 0. -1.
<mgrwt>
<rscale>  0 0.12836215E+04</rscale>
<asrwt>0</asrwt>
<pdfrwt beam="1">  1        2 0.33503034E+00 0.12836215E+04</pdfrwt>
<pdfrwt beam="2">  1       -2 0.29100679E-01 0.12836215E+04</pdfrwt>
<totfact> 0.56721506E+01</totfact>
</mgrwt>
</event>
<event>
 6    1  0.1885829E-005  0.2598708E+04  0.7818608E-02  0.8368640E-01
         -2   -1    0    0    0  501 -0.00000000000E+00  0.00000000000E+00  0.98940111191E+03  0.98940111191E+03  0.00000000000E+00 0.  1.
          2   -1    0    0  501    0  0.00000000000E+00 -0.00000000000E+00 -0.17064067005E+04  0.17064067005E+04  0.00000000000E+00 0. -1.
         23    2    1    2    0    0  0.12772535630E+04 -0.20769770166E+03 -0.45626427406E+03  0.13757695431E+04  0.10024843295E+03 0.  0.
         13    1    3    3    0    0  0.49241113588E+03 -0.35497737868E+02 -0.19575809730E+03  0.53108384346E+03  0.00000000000E+00 0.  1.
        -13    1    3    3    0    0  0.78484242715E+03 -0.17219996379E+03 -0.26050617676E+03  0.84468569960E+03  0.00000000000E+00 0. -1.
         22    1    1    2    0    0 -0.12772535630E+04  0.20769770166E+03 -0.26074131458E+03  0.13200382694E+04  0.00000000000E+00 0. -1.
<mgrwt>
<rscale>  0 0.25987079E+04</rscale>
<asrwt>0</asrwt>
<pdfrwt beam="1">  1        2 0.26252410E+00 0.25987079E+04</pdfrwt>
<pdfrwt beam="2">  1       -2 0.15221556E+00 0.25987079E+04</pdfrwt>
<totfact> 0.24799327E+00</totfact>
</mgrwt>
</event>
<event>
 6    1  0.1885829E-005  0.1567223E+04  0.7818608E-02  0.8840941E-01
         -2   -1    0    0    0  501 -0.00000000000E+00  0.00000000000E+00  0.76065636765E+03  0.76065636765E+03  0.00000000000E+00 0.  1.
          2   -1    0    0  501    0  0.00000000000E+00 -0.00000000000E+00 -0.80725896802E+03  0.80725896802E+03  0.00000000000E+00 0. -1.
         23    2    1    2    0    0 -0.40786141651E+03  0.43419339237E+03  0.48184372378E+03  0.77159231418E+03  0.91139936933E+02 0.  0.
         11    1    3    3    0    0 -0.12361663257E+03  0.16314553034E+03  0.11836359480E+03  0.23644761892E+03  0.00000000000E+00 0. -1.
        -11    1    3    3    0    0 -0.28424478394E+03  0.27104786203E+03  0.36348012898E+03  0.53514469526E+03  0.00000000000E+00 0.  1.
         22    1    1    2    0    0  0.40786141651E+03 -0.43419339237E+03 -0.52844632415E+03  0.79632302150E+03  0.00000000000E+00 0. -1.
<mgrwt>
<rscale>  0 0.15672226E+04</rscale>
<asrwt>0</asrwt>
<pdfrwt beam="1">  1        2 0.12419369E+00 0.15672226E+04</pdfrwt>
<pdfrwt beam="2">  1       -2 0.11702406E+00 0.15672226E+04</pdfrwt>
<totfact> 0.18484544E+01</totfact>
</mgrwt>
</event>
<event>
 6    1  0.1885829E-005  0.1757321E+04  0.7818608E-02  0.8729331E-01
         -2   -1    0    0    0  501 -0.00000000000E+00  0.00000000000E+00  0.94215939766E+03  0.94215939766E+03  0.00000000000E+00 0.  1.
          2   -1    0    0  501    0  0.00000000000E+00 -0.00000000000E+00 -0.81944126612E+03  0.81944126612E+03  0.00000000000E+00 0. -1.
         23    2    1    2    0    0  0.33638175721E+03 -0.72970728273E+02 -0.74647290471E+03  0.82673678531E+03  0.88286470904E+02 0.  0.
         13    1    3    3    0    0  0.12265748498E+03 -0.69120780190E+02 -0.26970315693E+03  0.30424058528E+03  0.00000000000E+00 0. -1.
        -13    1    3    3    0    0  0.21372427223E+03 -0.38499480834E+01 -0.47676974778E+03  0.52249620002E+03  0.00000000000E+00 0.  1.
         22    1    1    2    0    0 -0.33638175721E+03  0.72970728273E+02  0.86919103625E+03  0.93486387847E+03  0.00000000000E+00 0.  1.
<mgrwt>
<rscale>  0 0.17573210E+04</rscale>
<asrwt>0</asrwt>
<pdfrwt beam="1">  1        2 0.12606789E+00 0.17573210E+04</pdfrwt>
<pdfrwt beam="2">  1       -2 0.14494760E+00 0.17573210E+04</pdfrwt>
<totfact> 0.10360114E+01</totfact>
</mgrwt>
</event>
<event>
 6    1  0.1885829E-005  0.1081214E+04  0.7818608E-02  0.9223697E-01
         -1   -1    0    0    0  501 -0.00000000000E+00  0.00000000000E+00  0.73710649761E+03  0.73710649761E+03  0.00000000000E+00 0.  1.
          1   -1    0    0  501    0  0.00000000000E+00 -0.00000000000E+00 -0.39649106553E+03  0.39649106553E+03  0.00000000000E+00 0. -1.
         23    2    1    2    0    0 -0.45923585172E+02 -0.11292904550E+03 -0.37666186144E+03  0.40603405334E+03  0.90152923501E+02 0.  0.
         11    1    3    3    0    0 -0.17638923308E+02 -0.17804024495E+02 -0.21418447896E+03  0.21564578812E+03  0.00000000000E+00 0.  1.
        -11    1    3    3    0    0 -0.28284661864E+02 -0.95125021007E+02 -0.16247738247E+03  0.19038826522E+03  0.00000000000E+00 0. -1.
         22    1    1    2    0    0  0.45923585172E+02  0.11292904550E+03  0.71727729352E+03  0.72756350980E+03  0.00000000000E+00 0.  1.
<mgrwt>
<rscale>  0 0.10812144E+04</rscale>
<asrwt>0</asrwt>
<pdfrwt beam="1">  1        1 0.60998626E-01 0.10812144E+04</pdfrwt>
<pdfrwt beam="2">  1       -1 0.11340100E+00 0.10812144E+04</pdfrwt>
<totfact> 0.43011395E+01</totfact>
</mgrwt>
</event>
<event>
 6    1  0.1885829E-005  0.3096292E+04  0.7818608E-02  0.8216756E-01
          1   -1    0    0  501    0  0.00000000000E+00  0.00000000000E+00  0.35320623490E+04  0.35320623490E+04  0.00000000000E+00 0.  1.
         -1   -1    0    0    0  501 -0.00000000000E+00 -0.00000000000E+00 -0.67857126872E+03  0.67857126872E+03  0.00000000000E+00 0. -1.
         23    2    1    2    0    0  0.55452913504E+03 -0.14186675056E+04  0.10619668447E+04  0.18591066373E+04  0.91563401393E+02 0.  0.
         13    1    3    3    0    0  0.19704164333E+03 -0.39531923066E+03  0.32269735951E+03  0.54702494383E+03  0.00000000000E+00 0.  1.
        -13    1    3    3    0    0  0.35748749171E+03 -0.10233482749E+04  0.73926948523E+03  0.13120816935E+04  0.00000000000E+00 0. -1.
         22    1    1    2    0    0 -0.55452913504E+03  0.14186675056E+04  0.17915242355E+04  0.23515269804E+04  0.00000000000E+00 0.  1.
<mgrwt>
<rscale>  0 0.30962920E+04</rscale>
<asrwt>0</asrwt>
<pdfrwt beam="1">  1        1 0.54339420E+00 0.30962920E+04</pdfrwt>
<pdfrwt beam="2">  1       -1 0.10439558E+00 0.30962920E+04</pdfrwt>
<totfact> 0.17149602E-01</totfact>
</mgrwt>
</event>
<event>
 6    1  0.1885829E-005  0.1559664E+04  0.7818608E-02  0.8845718E-01
          4   -1    0    0  501    0  0.00000000000E+00  0.00000000000E+00  0.85648149018E+03  0.85648149018E+03  0.00000000000E+00 0. -1.
         -4   -1    0    0    0  501 -0.00000000000E+00 -0.00000000000E+00 -0.71004225388E+03  0.71004225388E+03  0.00000000000E+00 0.  1.
         23    2    1    2    0    0  0.13040020445E+03 -0.20949684731E+03 -0.66668133243E+03  0.71678366518E+03  0.91769718946E+02 0.  0.
         11    1    3    3    0    0  0.92649815056E+02 -0.68504777550E+02 -0.24994266412E+03  0.27522395994E+03  0.00000000000E+00 0.  1.
        -11    1    3    3    0    0  0.37750389395E+02 -0.14099206976E+03 -0.41673866830E+03  0.44155970524E+03  0.00000000000E+00 0. -1.
         22    1    1    2    0    0 -0.13040020445E+03  0.20949684731E+03  0.81312056873E+03  0.84974007888E+03  0.00000000000E+00 0. -1.
<mgrwt>
<rscale>  0 0.15596641E+04</rscale>
<asrwt>0</asrwt>
<pdfrwt beam="1">  1        4 0.13176638E+00 0.15596641E+04</pdfrwt>
<pdfrwt beam="2">  1       -4 0.10923727E+00 0.15596641E+04</pdfrwt>
<totfact> 0.53627805E-01</totfact>
</mgrwt>
</event>
<event>
 6    1  0.1885829E-005  0.4873270E+04  0.7818608E-02  0.7848359E-01
         -2   -1    0    0    0  501 -0.00000000000E+00  0.00000000000E+00  0.26458058426E+04  0.26458058426E+04  0.00000000000E+00 0.  1.
          2   -1    0    0  501    0  0.00000000000E+00 -0.00000000000E+00 -0.22440006945E+04  0.22440006945E+04  0.00000000000E+00 0. -1.
         23    2    1    2    0    0  0.12736221158E+04  0.19791473351E+04 -0.42876558400E+03  0.23940130343E+04  0.91219593844E+02 0.  0.
         13    1    3    3    0    0  0.57053886631E+03  0.87769168943E+03 -0.14492894771E+03  0.10568167767E+04  0.00000000000E+00 0. -1.
        -13    1    3    3    0    0  0.70308324947E+03  0.11014556457E+04 -0.28383663629E+03  0.13371962575E+04  0.00000000000E+00 0.  1.
         22    1    1    2    0    0 -0.12736221158E+04 -0.19791473351E+04  0.83057073203E+03  0.24957935028E+04  0.00000000000E+00 0. -1.
<mgrwt>
<rscale>  0 0.48732700E+04</rscale>
<asrwt>0</asrwt>
<pdfrwt beam="1">  1        2 0.34523088E+00 0.48732700E+04</pdfrwt>
<pdfrwt beam="2">  1       -2 0.40704705E+00 0.48732700E+04</pdfrwt>
<totfact> 0.23951582E-02</totfact>
</mgrwt>
</event>
<event>
 6    1  0.1885829E-005  0.1492627E+04  0.7818608E-02  0.8889371E-01
         -2   -1    0    0    0  501 -0.00000000000E+00  0.00000000000E+00  0.48169126530E+03  0.48169126530E+03  0.00000000000E+00 0.  1.
          2   -1    0    0  501    0  0.00000000000E+00 -0.00000000000E+00 -0.11563089028E+04  0.11563089028E+04  0.00000000000E+00 0. -1.
         23    2    1    2    0    0 -0.51289071291E+03 -0.29927828819E+02 -0.92839248830E+03  0.10649781500E+04  0.91177241094E+02 0.  0.
         11    1    3    3    0    0 -0.26047606154E+03  0.27214351189E+02 -0.43245790450E+03  0.50557713428E+03  0.00000000000E+00 0.  1.
        -11    1    3    3    0    0 -0.25241465137E+03 -0.57142180008E+02 -0.49593458380E+03  0.55940101570E+03  0.00000000000E+00 0. -1.
         22    1    1    2    0    0  0.51289071291E+03  0.29927828819E+02  0.25377485081E+03  0.57302201810E+03  0.00000000000E+00 0.  1.
<mgrwt>
<rscale>  0 0.14926271E+04</rscale>
<asrwt>0</asrwt>
<pdfrwt beam="1">  1        2 0.17789367E+00 0.14926271E+04</pdfrwt>
<pdfrwt beam="2">  1       -2 0.74106350E-01 0.14926271E+04</pdfrwt>
<totfact> 0.31906038E+01</totfact>
</mgrwt>
</event>
<event>
 6    1  0.1885829E-005  0.1325168E+04  0.7818608E-02  0.9009842E-01
          2   -1    0    0  501    0  0.00000000000E+00  0.00000000000E+00  0.67980605331E+03  0.67980605331E+03  0.00000000000E+00 0. -1.
         -2   -1    0    0    0  501 -0.00000000000E+00 -0.00000000000E+00 -0.64579806622E+03  0.64579806622E+03  0.00000000000E+00 0.  1.
         23    2    1    2    0    0  0.19103449089E+03 -0.20060829775E+03 -0.58141632921E+03  0.65070786459E+03  0.92940364397E+02 0.  0.
         13    1    3    3    0    0  0.13309165813E+03 -0.74080794182E+02 -0.28116004990E+03  0.31976917799E+03  0.00000000000E+00 0. -1.
        -13    1    3    3    0    0  0.57942832762E+02 -0.12652750356E+03 -0.30025627931E+03  0.33093868660E+03  0.00000000000E+00 0.  1.
         22    1    1    2    0    0 -0.19103449089E+03  0.20060829775E+03  0.61542431630E+03  0.67489625494E+03  0.00000000000E+00 0. -1.
<mgrwt>
<rscale>  0 0.13251678E+04</rscale>
<asrwt>0</asrwt>
<pdfrwt beam="1">  1        2 0.10458555E+00 0.13251678E+04</pdfrwt>
<pdfrwt beam="2">  1       -2 0.99353548E-01 0.13251678E+04</pdfrwt>
<totfact> 0.34902894E+01</totfact>
</mgrwt>
</event>
<event>
 6    1  0.1885829E-005  0.9943062E+03  0.7818608E-02  0.9314812E-01
         -2   -1    0    0    0  501 -0.00000000000E+00  0.00000000000E+00  0.19081992869E+03  0.19081992869E+03  0.00000000000E+00 0. -1.
          2   -1    0    0  501    0  0.00000000000E+00 -0.00000000000E+00 -0.12952588612E+04  0.12952588612E+04  0.00000000000E+00 0.  1.
         23    2    1    2    0    0 -0.29868402724E+03 -0.37690223848E+03 -0.71876704897E+03  0.86962907802E+03  0.91439691381E+02 0.  0.
         13    1    3    3    0    0 -0.21073519849E+03 -0.19921587348E+03 -0.45723128848E+03  0.54143950659E+03  0.00000000000E+00 0. -1.
        -13    1    3    3    0    0 -0.87948828757E+02 -0.17768636499E+03 -0.26153576049E+03  0.32818957144E+03  0.00000000000E+00 0.  1.
         22    1    1    2    0    0  0.29868402724E+03  0.37690223848E+03 -0.38567188352E+03  0.61644971184E+03  0.00000000000E+00 0.  1.
<mgrwt>
<rscale>  0 0.99430620E+03</rscale>
<asrwt>0</asrwt>
<pdfrwt beam="1">  1        2 0.19927059E+00 0.99430620E+03</pdfrwt>
<pdfrwt beam="2">  1       -2 0.29356912E-01 0.99430620E+03</pdfrwt>
<totfact> 0.17715418E+02</totfact>
</mgrwt>
</event>
<event>
 6    1  0.1885829E-005  0.3455870E+04  0.7818608E-02  0.8124329E-01
         -2   -1    0    0    0  501 -0.00000000000E+00  0.00000000000E+00  0.10003201146E+04  0.10003201146E+04  0.00000000000E+00 0.  1.
          2   -1    0    0  501    0  0.00000000000E+00 -0.00000000000E+00 -0.29848030375E+04  0.29848030375E+04  0.00000000000E+00 0. -1.
         23    2    1    2    0    0  0.12036833325E+04 -0.12350888856E+04 -0.10890150932E+04  0.20418885409E+04  0.95167327155E+02 0.  0.
         13    1    3    3    0    0  0.43731301395E+03 -0.41606750105E+03 -0.42778731631E+03  0.73983567472E+03  0.00000000000E+00 0. -1.
        -13    1    3    3    0    0  0.76637031853E+03 -0.81902138452E+03 -0.66122777689E+03  0.13020528662E+04  0.00000000000E+00 0.  1.
         22    1    1    2    0    0 -0.12036833325E+04  0.12350888856E+04 -0.89546782967E+03  0.19432346112E+04  0.00000000000E+00 0.  1.
<mgrwt>
<rscale>  0 0.34558695E+04</rscale>
<asrwt>0</asrwt>
<pdfrwt beam="1">  1        2 0.45920046E+00 0.34558695E+04</pdfrwt>
<pdfrwt beam="2">  1       -2 0.15389540E+00 0.34558695E+04</pdfrwt>
<totfact> 0.41042940E-01</totfact>
</mgrwt>
</event>
<event>
 6    1  0.1885829E-005  0.3143978E+04  0.7818608E-02  0.8203771E-01
         -2   -1    0    0    0  501 -0.00000000000E+00  0.00000000000E+00  0.24395361160E+04  0.24395361160E+04  0.00000000000E+00 0.  1.
          2   -1    0    0  501    0  0.00000000000E+00 -0.00000000000E+00 -0.10129585739E+04  0.10129585739E+04  0.00000000000E+00 0. -1.
         23    2    1    2    0    0  0.32006971371E+03  0.15303579642E+04  0.54771084024E+03  0.16589376654E+04  0.87446515279E+02 0.  0.
         11    1    3    3    0    0  0.29793149237E+03  0.13878093792E+04  0.52221869205E+03  0.15124451757E+04  0.00000000000E+00 0. -1.
        -11    1    3    3    0    0  0.22138221342E+02  0.14254858503E+03  0.25492148184E+02  0.14649248976E+03  0.00000000000E+00 0.  1.
         22    1    1    2    0    0 -0.32006971371E+03 -0.15303579642E+04  0.87886670183E+03  0.17935570244E+04  0.00000000000E+00 0. -1.
<mgrwt>
<rscale>  0 0.31439778E+04</rscale>
<asrwt>0</asrwt>
<pdfrwt beam="1">  1        2 0.15583978E+00 0.31439778E+04</pdfrwt>
<pdfrwt beam="2">  1       -2 0.37531325E+00 0.31439778E+04</pdfrwt>
<totfact> 0.22423804E-01</totfact>
</mgrwt>
</event>
<event>
 6    1  0.1885829E-005  0.1920545E+04  0.7818608E-02  0.8644697E-01
         -2   -1    0    0    0  501 -0.00000000000E+00  0.00000000000E+00  0.44489517660E+03  0.44489517660E+03  0.00000000000E+00 0.  1.
          2   -1    0    0  501    0  0.00000000000E+00 -0.00000000000E+00 -0.20726763302E+04  0.20726763302E+04  0.00000000000E+00 0. -1.
         23    2    1    2    0    0  0.17503825416E+03 -0.19758234465E+03 -0.20230473722E+04  0.20422689117E+04  0.92002522343E+02 0.  0.
         11    1    3    3    0    0  0.33740837714E+02 -0.72361578367E+02 -0.37261761076E+03  0.38107548596E+03  0.00000000000E+00 0. -1.
        -11    1    3    3    0    0  0.14129741645E+03 -0.12522076629E+03 -0.16504297614E+04  0.16611934257E+04  0.00000000000E+00 0.  1.
         22    1    1    2    0    0 -0.17503825416E+03  0.19758234465E+03  0.39526621861E+03  0.47530259511E+03  0.00000000000E+00 0.  1.
<mgrwt>
<rscale>  0 0.19205454E+04</rscale>
<asrwt>0</asrwt>
<pdfrwt beam="1">  1        2 0.31887328E+00 0.19205454E+04</pdfrwt>
<pdfrwt beam="2">  1       -2 0.68445412E-01 0.19205454E+04</pdfrwt>
<totfact> 0.11109386E+01</totfact>
</mgrwt>
</event>
<event>
 6    1  0.1885829E-005  0.3497314E+04  0.7818608E-02  0.8114427E-01
          1   -1    0    0  501    0  0.00000000000E+00  0.00000000000E+00  0.31942691190E+04  0.31942691190E+04  0.00000000000E+00 0. -1.
         -1   -1    0    0    0  501 -0.00000000000E+00 -0.00000000000E+00 -0.95727748833E+03  0.95727748833E+03  0.00000000000E+00 0.  1.
         23    2    1    2    0    0 -0.88828949002E+03 -0.14920244323E+04  0.88678871446E+03  0.19519459528E+04  0.92215259207E+02 0.  0.
         11    1    3    3    0    0 -0.86324607819E+02 -0.17976153931E+03  0.76101897498E+02  0.21344237568E+03  0.00000000000E+00 0.  1.
        -11    1    3    3    0    0 -0.80196488220E+03 -0.13122628929E+04  0.81068681697E+03  0.17385035771E+04  0.00000000000E+00 0. -1.
         22    1    1    2    0    0  0.88828949002E+03  0.14920244323E+04  0.13502029162E+04  0.21996006545E+04  0.00000000000E+00 0. -1.
<mgrwt>
<rscale>  0 0.34973144E+04</rscale>
<asrwt>0</asrwt>
<pdfrwt beam="1">  1        1 0.49142601E+00 0.34973144E+04</pdfrwt>
<pdfrwt beam="2">  1       -1 0.14727346E+00 0.34973144E+04</pdfrwt>
<totfact> 0.12827465E-01</totfact>
</mgrwt>
</event>
<event>
 6    1  0.1885829E-005  0.2150595E+04  0.7818608E-02  0.8539278E-01
          2   -1    0    0  501    0  0.00000000000E+00  0.00000000000E+00  0.28936319343E+04  0.28936319343E+04  0.00000000000E+00 0. -1.
         -2   -1    0    0    0  501 -0.00000000000E+00 -0.00000000000E+00 -0.39958929237E+03  0.39958929237E+03  0.00000000000E+00 0.  1.
         23    2    1    2    0    0 -0.28296836826E+03  0.10199143873E+04  0.97626293877E+03  0.14428289218E+04  0.91485064553E+02 0.  0.
         11    1    3    3    0    0 -0.13914439183E+03  0.66252446536E+03  0.60994524791E+03  0.91122611598E+03  0.00000000000E+00 0.  1.
        -11    1    3    3    0    0 -0.14382397643E+03  0.35738992190E+03  0.36631769086E+03  0.53160280578E+03  0.00000000000E+00 0. -1.
         22    1    1    2    0    0  0.28296836826E+03 -0.10199143873E+04  0.15177797032E+04  0.18503923049E+04  0.00000000000E+00 0. -1.
<mgrwt>
<rscale>  0 0.21505946E+04</rscale>
<asrwt>0</asrwt>
<pdfrwt beam="1">  1        2 0.44517413E+00 0.21505946E+04</pdfrwt>
<pdfrwt beam="2">  1       -2 0.61475278E-01 0.21505946E+04</pdfrwt>
<totfact> 0.45817230E+00</totfact>
</mgrwt>
</event>
<event>
 6    1  0.1885829E-005  0.1180839E+04  0.7818608E-02  0.9129796E-01
         -2   -1    0    0    0  501 -0.00000000000E+00  0.00000000000E+00  0.22295687172E+03  0.22295687172E+03  0.00000000000E+00 0.  1.
          2   -1    0    0  501    0  0.00000000000E+00 -0.00000000000E+00 -0.15635083401E+04  0.15635083401E+04  0.00000000000E+00 0. -1.
         23    2    1    2    0    0 -0.11626911464E+03  0.57192975801E+03 -0.57927307582E+03  0.82721188445E+03  0.90000279364E+02 0.  0.
         13    1    3    3    0    0 -0.54171060089E+02  0.21032133139E+03 -0.27593175655E+03  0.35115224684E+03  0.00000000000E+00 0.  1.
        -13    1    3    3    0    0 -0.62098054553E+02  0.36160842662E+03 -0.30334131927E+03  0.47605963761E+03  0.00000000000E+00 0. -1.
         22    1    1    2    0    0  0.11626911464E+03 -0.57192975801E+03 -0.76127839259E+03  0.95925332740E+03  0.00000000000E+00 0.  1.
<mgrwt>
<rscale>  0 0.11808386E+04</rscale>
<asrwt>0</asrwt>
<pdfrwt beam="1">  1        2 0.24053974E+00 0.11808386E+04</pdfrwt>
<pdfrwt beam="2">  1       -2 0.34301058E-01 0.11808386E+04</pdfrwt>
<totfact> 0.91909116E+01</totfact>
</mgrwt>
</event>
<event>
 6    1  0.1885829E-005  0.7533087E+03  0.7818608E-02  0.9630174E-01
          2   -1    0    0  501    0  0.00000000000E+00  0.00000000000E+00  0.12953769583E+04  0.12953769583E+04  0.00000000000E+00 0. -1.
         -2   -1    0    0    0  501 -0.00000000000E+00 -0.00000000000E+00 -0.10951909255E+03  0.10951909255E+03  0.00000000000E+00 0.  1.
         23    2    1    2    0    0 -0.69398913098E+02  0.22893590254E+03  0.72707980402E+02  0.26633093463E+03  0.91748894927E+02 0.  0.
         11    1    3    3    0    0 -0.36912303939E+01  0.12811478085E+03  0.50376245463E+01  0.12826690889E+03  0.00000000000E+00 0.  1.
        -11    1    3    3    0    0 -0.65707682704E+02  0.10082112168E+03  0.67670355856E+02  0.13806402575E+03  0.00000000000E+00 0. -1.
         22    1    1    2    0    0  0.69398913098E+02 -0.22893590254E+03  0.11131498854E+04  0.11385651162E+04  0.00000000000E+00 0. -1.
<mgrwt>
<rscale>  0 0.75330873E+03</rscale>
<asrwt>0</asrwt>
<pdfrwt beam="1">  1        2 0.19928875E+00 0.75330873E+03</pdfrwt>
<pdfrwt beam="2">  1       -2 0.16849092E-01 0.75330873E+03</pdfrwt>
<totfact> 0.48228271E+02</totfact>
</mgrwt>
</event>
<event>
 6    1  0.1885829E-005  0.2873336E+04  0.7818608E-02  0.8280855E-01
         -2   -1    0    0    0  501 -0.00000000000E+00  0.00000000000E+00  0.52371741622E+03  0.52371741622E+03  0.00000000000E+00 0. -1.
          2   -1    0    0  501    0  0.00000000000E+00 -0.00000000000E+00 -0.39410844119E+04  0.39410844119E+04  0.00000000000E+00 0.  1.
         23    2    1    2    0    0  0.24942321589E+03  0.10126487930E+04 -0.32425245312E+04  0.34073334333E+04  0.91028960687E+02 0.  0.
         13    1    3    3    0    0  0.11417758860E+03  0.32823364266E+03 -0.11714837574E+04  0.12219443686E+04  0.00000000000E+00 0. -1.
        -13    1    3    3    0    0  0.13524562728E+03  0.68441515036E+03 -0.20710407737E+04  0.21853890647E+04  0.00000000000E+00 0.  1.
         22    1    1    2    0    0 -0.24942321589E+03 -0.10126487930E+04 -0.17484246447E+03  0.10574683948E+04  0.00000000000E+00 0. -1.
<mgrwt>
<rscale>  0 0.28733357E+04</rscale>
<asrwt>0</asrwt>
<pdfrwt beam="1">  1        2 0.60632068E+00 0.28733357E+04</pdfrwt>
<pdfrwt beam="2">  1       -2 0.80571910E-01 0.28733357E+04</pdfrwt>
<totfact> 0.44888836E-01</totfact>
</mgrwt>
</event>
<event>
 6    1  0.1885829E-005  0.1136095E+04  0.7818608E-02  0.9170708E-01
          2   -1    0    0  501    0  0.00000000000E+00  0.00000000000E+00  0.11683364357E+04  0.11683364357E+04  0.00000000000E+00 0. -1.
         -2   -1    0    0    0  501 -0.00000000000E+00 -0.00000000000E+00 -0.27618606646E+03  0.27618606646E+03  0.00000000000E+00 0.  1.
         23    2    1    2    0    0  0.22661647064E+03 -0.36420470973E+03  0.91533585561E+03  0.10149440319E+04  0.90948138990E+02 0.  0.
         11    1    3    3    0    0  0.21390358774E+03 -0.29615526973E+03  0.81398078123E+03  0.89220367677E+03  0.00000000000E+00 0. -1.
        -11    1    3    3    0    0  0.12712882896E+02 -0.68049439997E+02  0.10135507438E+03  0.12274035513E+03  0.00000000000E+00 0.  1.
         22    1    1    2    0    0 -0.22661647064E+03  0.36420470973E+03 -0.23185486349E+02  0.42957847028E+03  0.00000000000E+00 0.  1.
<mgrwt>
<rscale>  0 0.11360955E+04</rscale>
<asrwt>0</asrwt>
<pdfrwt beam="1">  1        2 0.17974406E+00 0.11360955E+04</pdfrwt>
<pdfrwt beam="2">  1       -2 0.42490165E-01 0.11360955E+04</pdfrwt>
<totfact> 0.10287655E+02</totfact>
</mgrwt>
</event>
<event>
 6    1  0.1885829E-005  0.1416711E+04  0.7818608E-02  0.8941810E-01
          2   -1    0    0  501    0  0.00000000000E+00  0.00000000000E+00  0.21549586115E+04  0.21549586115E+04  0.00000000000E+00 0. -1.
         -2   -1    0    0    0  501 -0.00000000000E+00 -0.00000000000E+00 -0.23284316085E+03  0.23284316085E+03  0.00000000000E+00 0.  1.
         23    2    1    2    0    0 -0.21129585934E+03  0.51392305258E+03  0.23175880688E+03  0.60845682903E+03  0.88004113996E+02 0.  0.
         11    1    3    3    0    0 -0.89751344032E+02  0.18293297426E+03  0.12908572772E+03  0.24121132214E+03  0.00000000000E+00 0. -1.
        -11    1    3    3    0    0 -0.12154451531E+03  0.33099007832E+03  0.10267307916E+03  0.36724550689E+03  0.00000000000E+00 0.  1.
         22    1    1    2    0    0  0.21129585934E+03 -0.51392305258E+03  0.16903566437E+04  0.17793449433E+04  0.00000000000E+00 0. -1.
<mgrwt>
<rscale>  0 0.14167108E+04</rscale>
<asrwt>0</asrwt>
<pdfrwt beam="1">  1        2 0.33153208E+00 0.14167108E+04</pdfrwt>
<pdfrwt beam="2">  1       -2 0.35822026E-01 0.14167108E+04</pdfrwt>
<totfact> 0.39036264E+01</totfact>
</mgrwt>
</event>
<event>
 6    1  0.1885829E-005  0.2829365E+04  0.7818608E-02  0.8294209E-01
         -2   -1    0    0    0  501 -0.00000000000E+00  0.00000000000E+00  0.10766074757E+04  0.10766074757E+04  0.00000000000E+00 0.  1.
          2   -1    0    0  501    0  0.00000000000E+00 -0.00000000000E+00 -0.18589190688E+04  0.18589190688E+04  0.00000000000E+00 0. -1.
         23    2    1    2    0    0  0.13128673851E+04  0.46196080371E+03 -0.64617079302E+03  0.15371121308E+04  0.90268787605E+02 0.  0.
         13    1    3    3    0    0  0.69742488934E+03  0.27307623030E+03 -0.30701667112E+03  0.80946361263E+03  0.00000000000E+00 0.  1.
        -13    1    3    3    0    0  0.61544249573E+03  0.18888457341E+03 -0.33915412190E+03  0.72764851819E+03  0.00000000000E+00 0. -1.
         22    1    1    2    0    0 -0.13128673851E+04 -0.46196080371E+03 -0.13614080007E+03  0.13984144137E+04  0.00000000000E+00 0. -1.
<mgrwt>
<rscale>  0 0.28293647E+04</rscale>
<asrwt>0</asrwt>
<pdfrwt beam="1">  1        2 0.28598755E+00 0.28293647E+04</pdfrwt>
<pdfrwt beam="2">  1       -2 0.16563192E+00 0.28293647E+04</pdfrwt>
<totfact> 0.15916952E+00</totfact>
</mgrwt>
</event>
<event>
 6    1  0.1885829E-005  0.2459586E+04  0.7818608E-02  0.8417526E-01
          2   -1    0    0  501    0  0.00000000000E+00  0.00000000000E+00  0.22324756588E+04  0.22324756588E+04  0.00000000000E+00 0. -1.
         -2   -1    0    0    0  501 -0.00000000000E+00 -0.00000000000E+00 -0.67744997497E+03  0.67744997497E+03  0.00000000000E+00 0.  1.
         23    2    1    2    0    0  0.18226470070E+03  0.99896919270E+03 -0.38401150574E+02  0.10204365638E+04  0.93039041391E+02 0.  0.
         13    1    3    3    0    0  0.12415379023E+03  0.48388806268E+03 -0.49172822249E+02  0.50197588316E+03  0.00000000000E+00 0.  1.
        -13    1    3    3    0    0  0.58110910466E+02  0.51508113002E+03  0.10771671675E+02  0.51846068060E+03  0.00000000000E+00 0. -1.
         22    1    1    2    0    0 -0.18226470070E+03 -0.99896919270E+03  0.15934268344E+04  0.18894890700E+04  0.00000000000E+00 0. -1.
<mgrwt>
<rscale>  0 0.24595858E+04</rscale>
<asrwt>0</asrwt>
<pdfrwt beam="1">  1        2 0.34345779E+00 0.24595858E+04</pdfrwt>
<pdfrwt beam="2">  1       -2 0.10422307E+00 0.24595858E+04</pdfrwt>
<totfact> 0.33146318E+00</totfact>
</mgrwt>
</event>
<event>
 6    1  0.1885829E-005  0.4307096E+04  0.7818608E-02  0.7945307E-01
          2   -1    0    0  501    0  0.00000000000E+00  0.00000000000E+00  0.40368794842E+04  0.40368794842E+04  0.00000000000E+00 0. -1.
         -2   -1    0    0    0  501 -0.00000000000E+00 -0.00000000000E+00 -0.11488499531E+04  0.11488499531E+04  0.00000000000E+00 0.  1.
         23    2    1    2    0    0 -0.63643355733E+03 -0.15620833915E+04 -0.16536118819E+03  0.16974136432E+04  0.93362511326E+02 0.  0.
         13    1    3    3    0    0 -0.45646139931E+03 -0.10511887963E+04 -0.77150352678E+02  0.11486109313E+04  0.00000000000E+00 0. -1.
        -13    1    3    3    0    0 -0.17997215802E+03 -0.51089459520E+03 -0.88210835517E+02  0.54880271189E+03  0.00000000000E+00 0.  1.
         22    1    1    2    0    0  0.63643355733E+03  0.15620833915E+04  0.30533907193E+04  0.34883157941E+04  0.00000000000E+00 0. -1.
<mgrwt>
<rscale>  0 0.43070959E+04</rscale>
<asrwt>0</asrwt>
<pdfrwt beam="1">  1        2 0.62105838E+00 0.43070959E+04</pdfrwt>
<pdfrwt beam="2">  1       -2 0.17674615E+00 0.43070959E+04</pdfrwt>
<totfact> 0.46731973E-02</totfact>
</mgrwt>
</event>
<event>
 6    1  0.1885829E-005  0.3902424E+04  0.7818608E-02  0.8024525E-01
         -2   -1    0    0    0  501 -0.00000000000E+00  0.00000000000E+00  0.16809735909E+04  0.16809735909E+04  0.00000000000E+00 0.  1.
          2   -1    0    0  501    0  0.00000000000E+00 -0.00000000000E+00 -0.22648948714E+04  0.22648948714E+04  0.00000000000E+00 0. -1.
         23    2    1    2    0    0 -0.40640460573E+03 -0.79436129638E+03  0.14612266627E+04  0.17145449353E+04  0.91139467138E+02 0.  0.
         11    1    3    3    0    0 -0.31602592708E+03 -0.64849636118E+03  0.12398605946E+04  0.14344595537E+04  0.00000000000E+00 0.  1.
        -11    1    3    3    0    0 -0.90378678652E+02 -0.14586493520E+03  0.22136606813E+03  0.28008538162E+03  0.00000000000E+00 0. -1.
         22    1    1    2    0    0  0.40640460573E+03  0.79436129638E+03 -0.20451479432E+04  0.22313235271E+04  0.00000000000E+00 0. -1.
<mgrwt>
<rscale>  0 0.39024241E+04</rscale>
<asrwt>0</asrwt>
<pdfrwt beam="1">  1        2 0.34844536E+00 0.39024241E+04</pdfrwt>
<pdfrwt beam="2">  1       -2 0.25861132E+00 0.39024241E+04</pdfrwt>
<totfact> 0.21472679E-01</totfact>
</mgrwt>
</event>
<event>
 6    1  0.1885829E-005  0.1983794E+04  0.7818608E-02  0.8614235E-01
          2   -1    0    0  501    0  0.00000000000E+00  0.00000000000E+00  0.10068206594E+04  0.10068206594E+04  0.00000000000E+00 0. -1.
         -2   -1    0    0    0  501 -0.00000000000E+00 -0.00000000000E+00 -0.97719467727E+03  0.97719467727E+03  0.00000000000E+00 0.  1.
         23    2    1    2    0    0 -0.21637770206E+03  0.93738077548E+03  0.24789364124E+03  0.99753533226E+03  0.90130203287E+02 0.  0.
         11    1    3    3    0    0 -0.24449278021E+02  0.28534783515E+03  0.65318593885E+02  0.29374763476E+03  0.00000000000E+00 0. -1.
        -11    1    3    3    0    0 -0.19192842404E+03  0.65203294033E+03  0.18257504735E+03  0.70378769750E+03  0.00000000000E+00 0.  1.
         22    1    1    2    0    0  0.21637770206E+03 -0.93738077548E+03 -0.21826765907E+03  0.98648000445E+03  0.00000000000E+00 0.  1.
<mgrwt>
<rscale>  0 0.19837941E+04</rscale>
<asrwt>0</asrwt>
<pdfrwt beam="1">  1        2 0.15489549E+00 0.19837941E+04</pdfrwt>
<pdfrwt beam="2">  1       -2 0.15033764E+00 0.19837941E+04</pdfrwt>
<totfact> 0.69081670E+00</totfact>
</mgrwt>
</event>
<event>
 6    1  0.1885829E-005  0.4731539E+04  0.7818608E-02  0.7871309E-01
          2   -1    0    0  501    0  0.00000000000E+00  0.00000000000E+00  0.27478091939E+04  0.27478091939E+04  0.00000000000E+00 0. -1.
         -2   -1    0    0    0  501 -0.00000000000E+00 -0.00000000000E+00 -0.20368466220E+04  0.20368466220E+04  0.00000000000E+00 0.  1.
         23    2    1    2    0    0  0.22137345536E+04 -0.83176939607E+03  0.34345634994E+03  0.23914316674E+04  0.92315510239E+02 0.  0.
         11    1    3    3    0    0  0.15085835505E+04 -0.60673590852E+03  0.21490322073E+03  0.16401634632E+04  0.00000000000E+00 0. -1.
        -11    1    3    3    0    0  0.70515100303E+03 -0.22503348755E+03  0.12855312921E+03  0.75126820419E+03  0.00000000000E+00 0.  1.
         22    1    1    2    0    0 -0.22137345536E+04  0.83176939607E+03  0.36750622189E+03  0.23932241485E+04  0.00000000000E+00 0. -1.
<mgrwt>
<rscale>  0 0.47315392E+04</rscale>
<asrwt>0</asrwt>
<pdfrwt beam="1">  1        2 0.42273988E+00 0.47315392E+04</pdfrwt>
<pdfrwt beam="2">  1       -2 0.31336102E+00 0.47315392E+04</pdfrwt>
<totfact> 0.48643369E-02</totfact>
</mgrwt>
</event>
<event>
 6    1  0.1885829E-005  0.6427070E+03  0.7818608E-02  0.9820561E-01
         -2   -1    0    0    0  501 -0.00000000000E+00  0.00000000000E+00  0.83656995111E+02  0.83656995111E+02  0.00000000000E+00 0.  1.
          2   -1    0    0  501    0  0.00000000000E+00 -0.00000000000E+00 -0.12344222618E+04  0.12344222618E+04  0.00000000000E+00 0. -1.
         23    2    1    2    0    0 -0.10159253668E+03 -0.17674787802E+02 -0.11972428936E+04  0.12049704092E+04  0.89048858852E+02 0.  0.
         13    1    3    3    0    0 -0.22689016406E+02 -0.41322708386E+02 -0.63218930264E+03  0.63394453390E+03  0.00000000000E+00 0. -1.
        -13    1    3    3    0    0 -0.78903520276E+02  0.23647920584E+02 -0.56505359093E+03  0.57102587532E+03  0.00000000000E+00 0.  1.
         22    1    1    2    0    0  0.10159253668E+03  0.17674787802E+02  0.46477626855E+02  0.11310884771E+03  0.00000000000E+00 0.  1.
<mgrwt>
<rscale>  0 0.64270695E+03</rscale>
<asrwt>0</asrwt>
<pdfrwt beam="1">  1        2 0.18991112E+00 0.64270695E+03</pdfrwt>
<pdfrwt beam="2">  1       -2 0.12870307E-01 0.64270695E+03</pdfrwt>
<totfact> 0.82816139E+02</totfact>
</mgrwt>
</event>
<event>
 6    1  0.1885829E-005  0.1741938E+04  0.7818608E-02  0.8737800E-01
          2   -1    0    0  501    0  0.00000000000E+00  0.00000000000E+00  0.29473798990E+04  0.29473798990E+04  0.00000000000E+00 0. -1.
         -2   -1    0    0    0  501 -0.00000000000E+00 -0.00000000000E+00 -0.25737677794E+03  0.25737677794E+03  0.00000000000E+00 0.  1.
         23    2    1    2    0    0  0.83145235382E+03 -0.23637072299E+03  0.11909065545E+04  0.14743016353E+04  0.90126327312E+02 0.  0.
         13    1    3    3    0    0  0.38380104582E+03 -0.14908203206E+03  0.52543911204E+03  0.66754397272E+03  0.00000000000E+00 0. -1.
        -13    1    3    3    0    0  0.44765130799E+03 -0.87288690921E+02  0.66546744248E+03  0.80675766256E+03  0.00000000000E+00 0.  1.
         22    1    1    2    0    0 -0.83145235382E+03  0.23637072299E+03  0.14990965665E+04  0.17304550416E+04  0.00000000000E+00 0.  1.
<mgrwt>
<rscale>  0 0.17419382E+04</rscale>
<asrwt>0</asrwt>
<pdfrwt beam="1">  1        2 0.45344304E+00 0.17419382E+04</pdfrwt>
<pdfrwt beam="2">  1       -2 0.39596429E-01 0.17419382E+04</pdfrwt>
<totfact> 0.10788544E+01</totfact>
</mgrwt>
</event>
<event>
 6    1  0.1885829E-005  0.1287163E+04  0.7818608E-02  0.9039807E-01
         -2   -1    0    0    0  501 -0.00000000000E+00  0.00000000000E+00  0.39783685023E+03  0.39783685023E+03  0.00000000000E+00 0.  1.
          2   -1    0    0  501    0  0.00000000000E+00 -0.00000000000E+00 -0.10411236302E+04  0.10411236302E+04  0.00000000000E+00 0. -1.
         23    2    1    2    0    0  0.11070669866E+03 -0.54894261355E+03  0.24810539417E+02  0.56721051955E+03  0.86707811206E+02 0.  0.
         13    1    3    3    0    0  0.61199580135E+02 -0.14874981232E+03 -0.17296157331E+02  0.16177469620E+03  0.00000000000E+00 0.  1.
        -13    1    3    3    0    0  0.49507118528E+02 -0.40019280124E+03  0.42106696748E+02  0.40543582335E+03  0.00000000000E+00 0. -1.
         22    1    1    2    0    0 -0.11070669866E+03  0.54894261355E+03 -0.66809731938E+03  0.87174996087E+03  0.00000000000E+00 0. -1.
<mgrwt>
<rscale>  0 0.12871633E+04</rscale>
<asrwt>0</asrwt>
<pdfrwt beam="1">  1        2 0.16017286E+00 0.12871633E+04</pdfrwt>
<pdfrwt beam="2">  1       -2 0.61205670E-01 0.12871633E+04</pdfrwt>
<totfact> 0.57764982E+01</totfact>
</mgrwt>
</event>
<event>
 6    1  0.1885829E-005  0.3627283E+04  0.7818608E-02  0.8084271E-01
          2   -1    0    0  501    0  0.00000000000E+00  0.00000000000E+00  0.22583779191E+04  0.22583779191E+04  0.00000000000E+00 0. -1.
         -2   -1    0    0    0  501 -0.00000000000E+00 -0.00000000000E+00 -0.14564860523E+04  0.14564860523E+04  0.00000000000E+00 0.  1.
         23    2    1    2    0    0  0.33151728617E+03 -0.14563486998E+04 -0.65036923431E+03  0.16316170940E+04  0.91317872307E+02 0.  0.
         13    1    3    3    0    0  0.13927142034E+03 -0.80014952091E+03 -0.33351528309E+03  0.87799101839E+03  0.00000000000E+00 0. -1.
        -13    1    3    3    0    0  0.19224586583E+03 -0.65619917893E+03 -0.31685395122E+03  0.75362607556E+03  0.00000000000E+00 0.  1.
         22    1    1    2    0    0 -0.33151728617E+03  0.14563486998E+04  0.14522611011E+04  0.20832468775E+04  0.00000000000E+00 0. -1.
<mgrwt>
<rscale>  0 0.36272832E+04</rscale>
<asrwt>0</asrwt>
<pdfrwt beam="1">  1        2 0.34744276E+00 0.36272832E+04</pdfrwt>
<pdfrwt beam="2">  1       -2 0.22407478E+00 0.36272832E+04</pdfrwt>
<totfact> 0.36258618E-01</totfact>
</mgrwt>
</event>
<event>
 6    1  0.1885829E-005  0.2849644E+04  0.7818608E-02  0.8288020E-01
         -2   -1    0    0    0  501 -0.00000000000E+00  0.00000000000E+00  0.10803528595E+04  0.10803528595E+04  0.00000000000E+00 0.  1.
          2   -1    0    0  501    0  0.00000000000E+00 -0.00000000000E+00 -0.18791243364E+04  0.18791243364E+04  0.00000000000E+00 0. -1.
         23    2    1    2    0    0  0.25685880126E+03 -0.13492732406E+04 -0.11973893551E+02  0.13765794863E+04  0.91175580042E+02 0.  0.
         13    1    3    3    0    0  0.22244784535E+03 -0.12277126454E+04 -0.34844246229E+02  0.12481888900E+04  0.00000000000E+00 0. -1.
        -13    1    3    3    0    0  0.34410955909E+02 -0.12156059520E+03  0.22870352679E+02  0.12839059632E+03  0.00000000000E+00 0.  1.
         22    1    1    2    0    0 -0.25685880126E+03  0.13492732406E+04 -0.78679758336E+03  0.15828977095E+04  0.00000000000E+00 0. -1.
<mgrwt>
<rscale>  0 0.28496437E+04</rscale>
<asrwt>0</asrwt>
<pdfrwt beam="1">  1        2 0.28909605E+00 0.28496437E+04</pdfrwt>
<pdfrwt beam="2">  1       -2 0.16620813E+00 0.28496437E+04</pdfrwt>
<totfact> 0.15337542E+00</totfact>
</mgrwt>
</event>
<event>
 6    1  0.1885829E-005  0.3113157E+04  0.7818608E-02  0.8212136E-01
          2   -1    0    0  501    0  0.00000000000E+00  0.00000000000E+00  0.26230391353E+04  0.26230391353E+04  0.00000000000E+00 0. -1.
         -2   -1    0    0    0  501 -0.00000000000E+00 -0.00000000000E+00 -0.92371322296E+03  0.92371322296E+03  0.00000000000E+00 0.  1.
         23    2    1    2    0    0  0.84520714000E+03 -0.93920757947E+01  0.23377200726E+04  0.24875024235E+04  0.90938706244E+02 0.  0.
         13    1    3    3    0    0  0.30649215786E+03 -0.43559950170E+02  0.90347289791E+03  0.95503831826E+03  0.00000000000E+00 0. -1.
        -13    1    3    3    0    0  0.53871498214E+03  0.34167874375E+02  0.14342471747E+04  0.15324641052E+04  0.00000000000E+00 0.  1.
         22    1    1    2    0    0 -0.84520714000E+03  0.93920757947E+01 -0.63839416023E+03  0.10592499348E+04  0.00000000000E+00 0.  1.
<mgrwt>
<rscale>  0 0.31131566E+04</rscale>
<asrwt>0</asrwt>
<pdfrwt beam="1">  1        2 0.40354448E+00 0.31131566E+04</pdfrwt>
<pdfrwt beam="2">  1       -2 0.14210973E+00 0.31131566E+04</pdfrwt>
<totfact> 0.86385927E-01</totfact>
</mgrwt>
</event>
<event>
 6    1  0.1885829E-005  0.7626899E+04  0.7818608E-02  0.7516026E-01
         -1   -1    0    0    0  501 -0.00000000000E+00  0.00000000000E+00  0.35717213779E+04  0.35717213779E+04  0.00000000000E+00 0.  1.
          1   -1    0    0  501    0  0.00000000000E+00 -0.00000000000E+00 -0.40715373743E+04  0.40715373743E+04  0.00000000000E+00 0. -1.
         23    2    1    2    0    0  0.36212555953E+04 -0.86396523271E+03  0.57542699401E+03  0.37682006238E+04  0.91058805048E+02 0.  0.
         13    1    3    3    0    0  0.21971861091E+04 -0.50355697526E+03  0.30817563404E+03  0.22751194797E+04  0.00000000000E+00 0. -1.
        -13    1    3    3    0    0  0.14240694862E+04 -0.36040825745E+03  0.26725135997E+03  0.14930811442E+04  0.00000000000E+00 0.  1.
         22    1    1    2    0    0 -0.36212555953E+04  0.86396523271E+03 -0.10752429905E+04  0.38750581284E+04  0.00000000000E+00 0. -1.
<mgrwt>
<rscale>  0 0.76268990E+04</rscale>
<asrwt>0</asrwt>
<pdfrwt beam="1">  1        1 0.62639037E+00 0.76268990E+04</pdfrwt>
<pdfrwt beam="2">  1       -1 0.54949560E+00 0.76268990E+04</pdfrwt>
<totfact> 0.37892725E-05</totfact>
</mgrwt>
</event>
<event>
 6    1  0.1940949E-005  0.4371851E+04  0.7818608E-02  0.7933464E-01
          2   -1    0    0  501    0  0.00000000000E+00  0.00000000000E+00  0.34941452320E+04  0.34941452320E+04  0.00000000000E+00 0.  1.
         -2   -1    0    0    0  501 -0.00000000000E+00 -0.00000000000E+00 -0.13675076210E+04  0.13675076210E+04  0.00000000000E+00 0. -1.
         23    2    1    2    0    0 -0.19124779397E+04  0.10566327202E+04  0.10614291948E+04  0.24308682996E+04  0.91892214111E+02 0.  0.
         11    1    3    3    0    0 -0.11134336359E+04  0.56324756305E+03  0.60345956262E+03  0.13860540114E+04  0.00000000000E+00 0. -1.
        -11    1    3    3    0    0 -0.79904430385E+03  0.49338515712E+03  0.45796963221E+03  0.10448142882E+04  0.00000000000E+00 0.  1.
         22    1    1    2    0    0  0.19124779397E+04 -0.10566327202E+04  0.10652084162E+04  0.24307845534E+04  0.00000000000E+00 0. -1.
<mgrwt>
<rscale>  0 0.43718510E+04</rscale>
<asrwt>0</asrwt>
<pdfrwt beam="1">  1        2 0.53756080E+00 0.43718510E+04</pdfrwt>
<pdfrwt beam="2">  1       -2 0.21038579E+00 0.43718510E+04</pdfrwt>
<totfact> 0.71403348E-02</totfact>
</mgrwt>
</event>
<event>
 6    1  0.1885829E-005  0.2105108E+04  0.7818608E-02  0.8558997E-01
          1   -1    0    0  501    0  0.00000000000E+00  0.00000000000E+00  0.74473886471E+03  0.74473886471E+03  0.00000000000E+00 0. -1.
         -1   -1    0    0    0  501 -0.00000000000E+00 -0.00000000000E+00 -0.14875944807E+04  0.14875944807E+04  0.00000000000E+00 0.  1.
         23    2    1    2    0    0  0.44803718532E+03  0.85757536546E+03 -0.80626822932E+03  0.12626973383E+04  0.90350891679E+02 0.  0.
         13    1    3    3    0    0  0.11682939456E+03  0.31580535733E+03 -0.27294828979E+03  0.43345461129E+03  0.00000000000E+00 0.  1.
        -13    1    3    3    0    0  0.33120779076E+03  0.54177000813E+03 -0.53331993954E+03  0.82924272700E+03  0.00000000000E+00 0. -1.
         22    1    1    2    0    0 -0.44803718532E+03 -0.85757536546E+03  0.63412613285E+02  0.96963600717E+03  0.00000000000E+00 0. -1.
<mgrwt>
<rscale>  0 0.21051075E+04</rscale>
<asrwt>0</asrwt>
<pdfrwt beam="1">  1        1 0.11457521E+00 0.21051075E+04</pdfrwt>
<pdfrwt beam="2">  1       -1 0.22886069E+00 0.21051075E+04</pdfrwt>
<totfact> 0.21862917E+00</totfact>
</mgrwt>
</event>
<event>
 6    1  0.1885829E-005  0.1401434E+04  0.7818608E-02  0.8952781E-01
         -2   -1    0    0    0  501 -0.00000000000E+00  0.00000000000E+00  0.49051014514E+03  0.49051014514E+03  0.00000000000E+00 0.  1.
          2   -1    0    0  501    0  0.00000000000E+00 -0.00000000000E+00 -0.10010077461E+04  0.10010077461E+04  0.00000000000E+00 0. -1.
         23    2    1    2    0    0  0.21899589709E+03 -0.41075231097E+03 -0.80955631922E+03  0.93824329319E+03  0.90787550445E+02 0.  0.
         13    1    3    3    0    0  0.11959886347E+03 -0.13606065979E+03 -0.28093601457E+03  0.33427748289E+03  0.00000000000E+00 0.  1.
        -13    1    3    3    0    0  0.99397033623E+02 -0.27469165118E+03 -0.52862030466E+03  0.60396581030E+03  0.00000000000E+00 0. -1.
         22    1    1    2    0    0 -0.21899589709E+03  0.41075231097E+03  0.29905871824E+03  0.55327459807E+03  0.00000000000E+00 0.  1.
<mgrwt>
<rscale>  0 0.14014342E+04</rscale>
<asrwt>0</asrwt>
<pdfrwt beam="1">  1        2 0.15400119E+00 0.14014342E+04</pdfrwt>
<pdfrwt beam="2">  1       -2 0.75463099E-01 0.14014342E+04</pdfrwt>
<totfact> 0.38564158E+01</totfact>
</mgrwt>
</event>
<event>
 6    1  0.1885829E-005  0.6378147E+04  0.7818608E-02  0.7645206E-01
         -2   -1    0    0    0  501 -0.00000000000E+00  0.00000000000E+00  0.41691581379E+04  0.41691581379E+04  0.00000000000E+00 0.  1.
          2   -1    0    0  501    0  0.00000000000E+00 -0.00000000000E+00 -0.24393868894E+04  0.24393868894E+04  0.00000000000E+00 0. -1.
         23    2    1    2    0    0 -0.16358861416E+04 -0.60155977021E+03  0.36313497368E+04  0.40290105010E+04  0.90703257481E+02 0.  0.
         11    1    3    3    0    0 -0.14472868580E+04 -0.56231819637E+03  0.32249587718E+04  0.35792736809E+04  0.00000000000E+00 0. -1.
        -11    1    3    3    0    0 -0.18859928360E+03 -0.39241573846E+02  0.40639096495E+03  0.44973682002E+03  0.00000000000E+00 0.  1.
         22    1    1    2    0    0  0.16358861416E+04  0.60155977021E+03 -0.19015784882E+04  0.25795345263E+04  0.00000000000E+00 0. -1.
<mgrwt>
<rscale>  0 0.63781470E+04</rscale>
<asrwt>0</asrwt>
<pdfrwt beam="1">  1        2 0.37529029E+00 0.63781470E+04</pdfrwt>
<pdfrwt beam="2">  1       -2 0.64140894E+00 0.63781470E+04</pdfrwt>
<totfact> 0.90833244E-04</totfact>
</mgrwt>
</event>
<event>
 6    1  0.1885829E-005  0.2737860E+04  0.7818608E-02  0.8322824E-01
         -2   -1    0    0    0  501 -0.00000000000E+00  0.00000000000E+00  0.46865551945E+03  0.46865551945E+03  0.00000000000E+00 0.  1.
          2   -1    0    0  501    0  0.00000000000E+00 -0.00000000000E+00 -0.39986072936E+04  0.39986072936E+04  0.00000000000E+00 0. -1.
         23    2    1    2    0    0  0.35930916690E+03 -0.72730196657E+03  0.29039927920E+02  0.81698978717E+03  0.92508199297E+02 0.  0.
         13    1    3    3    0    0  0.24883580461E+03 -0.49536025373E+03  0.62720078918E+02  0.55788425945E+03  0.00000000000E+00 0.  1.
        -13    1    3    3    0    0  0.11047336229E+03 -0.23194171283E+03 -0.33680150998E+02  0.25910552773E+03  0.00000000000E+00 0. -1.
         22    1    1    2    0    0 -0.35930916690E+03  0.72730196657E+03 -0.35589917021E+04  0.36502730259E+04  0.00000000000E+00 0. -1.
<mgrwt>
<rscale>  0 0.27378600E+04</rscale>
<asrwt>0</asrwt>
<pdfrwt beam="1">  1        2 0.61517036E+00 0.27378600E+04</pdfrwt>
<pdfrwt beam="2">  1       -2 0.72100848E-01 0.27378600E+04</pdfrwt>
<totfact> 0.52324907E-01</totfact>
</mgrwt>
</event>
<event>
 6    1  0.2489970E-005  0.3497779E+04  0.7818608E-02  0.8114316E-01
          2   -1    0    0  501    0  0.00000000000E+00  0.00000000000E+00  0.18498707428E+04  0.18498707428E+04  0.00000000000E+00 0. -1.
         -2   -1    0    0    0  501 -0.00000000000E+00 -0.00000000000E+00 -0.16534209599E+04  0.16534209599E+04  0.00000000000E+00 0.  1.
         23    2    1    2    0    0  0.73022442347E+03  0.14728280148E+04  0.69242954010E+03  0.17861877485E+04  0.92509107235E+02 0.  0.
         11    1    3    3    0    0  0.23114285079E+03  0.50375456921E+03  0.18984609485E+03  0.58586450925E+03  0.00000000000E+00 0. -1.
        -11    1    3    3    0    0  0.49908157268E+03  0.96907344562E+03  0.50258344525E+03  0.12003232392E+04  0.00000000000E+00 0.  1.
         22    1    1    2    0    0 -0.73022442347E+03 -0.14728280148E+04 -0.49597975722E+03  0.17171039542E+04  0.00000000000E+00 0. -1.
<mgrwt>
<rscale>  0 0.34977793E+04</rscale>
<asrwt>0</asrwt>
<pdfrwt beam="1">  1        2 0.28459550E+00 0.34977793E+04</pdfrwt>
<pdfrwt beam="2">  1       -2 0.25437246E+00 0.34977793E+04</pdfrwt>
<totfact> 0.40193924E-01</totfact>
</mgrwt>
</event>
<event>
 6    1  0.1885829E-005  0.2236482E+04  0.7818608E-02  0.8503395E-01
          2   -1    0    0  501    0  0.00000000000E+00  0.00000000000E+00  0.16109569416E+04  0.16109569416E+04  0.00000000000E+00 0. -1.
         -2   -1    0    0    0  501 -0.00000000000E+00 -0.00000000000E+00 -0.77622358822E+03  0.77622358822E+03  0.00000000000E+00 0.  1.
         23    2    1    2    0    0  0.46614093598E+03  0.13610665167E+03  0.14910260450E+04  0.15707661191E+04  0.91296994051E+02 0.  0.
         13    1    3    3    0    0  0.20862982346E+03  0.84109245547E+02  0.81547901443E+03  0.84593545345E+03  0.00000000000E+00 0.  1.
        -13    1    3    3    0    0  0.25751111252E+03  0.51997406120E+02  0.67554703060E+03  0.72483066565E+03  0.00000000000E+00 0. -1.
         22    1    1    2    0    0 -0.46614093598E+03 -0.13610665167E+03 -0.65629269168E+03  0.81641441069E+03  0.00000000000E+00 0.  1.
<mgrwt>
<rscale>  0 0.22364819E+04</rscale>
<asrwt>0</asrwt>
<pdfrwt beam="1">  1        2 0.24783953E+00 0.22364819E+04</pdfrwt>
<pdfrwt beam="2">  1       -2 0.11941901E+00 0.22364819E+04</pdfrwt>
<totfact> 0.53862083E+00</totfact>
</mgrwt>
</event>
<event>
 6    1  0.1885829E-005  0.1308650E+04  0.7818608E-02  0.9022734E-01
          2   -1    0    0  501    0  0.00000000000E+00  0.00000000000E+00  0.90176050497E+03  0.90176050497E+03  0.00000000000E+00 0. -1.
         -2   -1    0    0    0  501 -0.00000000000E+00 -0.00000000000E+00 -0.47478353014E+03  0.47478353014E+03  0.00000000000E+00 0.  1.
         23    2    1    2    0    0  0.55305306229E+03 -0.21063876112E+03  0.50003026088E+03  0.78024447952E+03  0.92275720703E+02 0.  0.
         11    1    3    3    0    0  0.30083131609E+03 -0.15217310546E+03  0.32065066737E+03  0.46526657440E+03  0.00000000000E+00 0. -1.
        -11    1    3    3    0    0  0.25222174620E+03 -0.58465655657E+02  0.17937959351E+03  0.31497790512E+03  0.00000000000E+00 0.  1.
         22    1    1    2    0    0 -0.55305306229E+03  0.21063876112E+03 -0.73053286045E+02  0.59629955559E+03  0.00000000000E+00 0.  1.
<mgrwt>
<rscale>  0 0.13086497E+04</rscale>
<asrwt>0</asrwt>
<pdfrwt beam="1">  1        2 0.13873238E+00 0.13086497E+04</pdfrwt>
<pdfrwt beam="2">  1       -2 0.73043620E-01 0.13086497E+04</pdfrwt>
<totfact> 0.48511536E+01</totfact>
</mgrwt>
</event>
<event>
 6    1  0.1885829E-005  0.2559432E+04  0.7818608E-02  0.8382113E-01
         -2   -1    0    0    0  501 -0.00000000000E+00  0.00000000000E+00  0.12812668348E+04  0.12812668348E+04  0.00000000000E+00 0.  1.
          2   -1    0    0  501    0  0.00000000000E+00 -0.00000000000E+00 -0.12781669681E+04  0.12781669681E+04  0.00000000000E+00 0. -1.
         23    2    1    2    0    0 -0.92937838040E+03  0.66804156591E+01 -0.87583630665E+03  0.12802474995E+04  0.90308483226E+02 0.  0.
         11    1    3    3    0    0 -0.37691895955E+03  0.47012457670E+02 -0.35330251800E+03  0.51874920961E+03  0.00000000000E+00 0. -1.
        -11    1    3    3    0    0 -0.55245942084E+03 -0.40332042011E+02 -0.52253378865E+03  0.76149828993E+03  0.00000000000E+00 0.  1.
         22    1    1    2    0    0  0.92937838040E+03 -0.66804156591E+01  0.87893617331E+03  0.12791863033E+04  0.00000000000E+00 0.  1.
<mgrwt>
<rscale>  0 0.25594319E+04</rscale>
<asrwt>0</asrwt>
<pdfrwt beam="1">  1        2 0.19664107E+00 0.25594319E+04</pdfrwt>
<pdfrwt beam="2">  1       -2 0.19711797E+00 0.25594319E+04</pdfrwt>
<totfact> 0.20996130E+00</totfact>
</mgrwt>
</event>
<event>
 6    1  0.1885829E-005  0.1949387E+04  0.7818608E-02  0.8630656E-01
          2   -1    0    0  501    0  0.00000000000E+00  0.00000000000E+00  0.23382905816E+04  0.23382905816E+04  0.00000000000E+00 0. -1.
         -2   -1    0    0    0  501 -0.00000000000E+00 -0.00000000000E+00 -0.40629137692E+03  0.40629137692E+03  0.00000000000E+00 0.  1.
         23    2    1    2    0    0  0.96092412281E+03  0.28642259291E+02  0.11747921389E+04  0.15208343991E+04  0.92763952687E+02 0.  0.
         11    1    3    3    0    0  0.43089172075E+03  0.49835272451E+02  0.57216626747E+03  0.71800102160E+03  0.00000000000E+00 0.  1.
        -11    1    3    3    0    0  0.53003240206E+03 -0.21193013160E+02  0.60262587147E+03  0.80283337749E+03  0.00000000000E+00 0. -1.
         22    1    1    2    0    0 -0.96092412281E+03 -0.28642259291E+02  0.75720706574E+03  0.12237475594E+04  0.00000000000E+00 0. -1.
<mgrwt>
<rscale>  0 0.19493869E+04</rscale>
<asrwt>0</asrwt>
<pdfrwt beam="1">  1        2 0.35973700E+00 0.19493869E+04</pdfrwt>
<pdfrwt beam="2">  1       -2 0.62506367E-01 0.19493869E+04</pdfrwt>
<totfact> 0.95524955E+00</totfact>
</mgrwt>
</event>
<event>
 6    1  0.1885829E-005  0.1897978E+04  0.7818608E-02  0.8655863E-01
         -2   -1    0    0    0  501 -0.00000000000E+00  0.00000000000E+00  0.60673635302E+03  0.60673635302E+03  0.00000000000E+00 0.  1.
          2   -1    0    0  501    0  0.00000000000E+00 -0.00000000000E+00 -0.14843028261E+04  0.14843028261E+04  0.00000000000E+00 0. -1.
         23    2    1    2    0    0 -0.19576027362E+03  0.90669532635E+03 -0.64873922019E+03  0.11356437578E+04  0.91682436710E+02 0.  0.
         13    1    3    3    0    0 -0.17165704109E+03  0.64246188268E+03 -0.49485707522E+03  0.82891913679E+03  0.00000000000E+00 0. -1.
        -13    1    3    3    0    0 -0.24103232532E+02  0.26423344367E+03 -0.15388214497E+03  0.30672462098E+03  0.00000000000E+00 0.  1.
         22    1    1    2    0    0  0.19576027362E+03 -0.90669532635E+03 -0.22882725293E+03  0.95539542140E+03  0.00000000000E+00 0. -1.
<mgrwt>
<rscale>  0 0.18979784E+04</rscale>
<asrwt>0</asrwt>
<pdfrwt beam="1">  1        2 0.22835428E+00 0.18979784E+04</pdfrwt>
<pdfrwt beam="2">  1       -2 0.93344056E-01 0.18979784E+04</pdfrwt>
<totfact> 0.11785848E+01</totfact>
</mgrwt>
</event>
<event>
 6    1  0.1885829E-005  0.3626868E+04  0.7818608E-02  0.8084365E-01
          1   -1    0    0  501    0  0.00000000000E+00  0.00000000000E+00  0.18225240682E+04  0.18225240682E+04  0.00000000000E+00 0. -1.
         -1   -1    0    0    0  501 -0.00000000000E+00 -0.00000000000E+00 -0.18043894299E+04  0.18043894299E+04  0.00000000000E+00 0.  1.
         23    2    1    2    0    0  0.13187266309E+04 -0.92561338074E+03  0.83892958525E+03  0.18187364042E+04  0.90549440477E+02 0.  0.
         13    1    3    3    0    0  0.97304275593E+03 -0.73059275670E+03  0.63221521996E+03  0.13712308578E+04  0.00000000000E+00 0. -1.
        -13    1    3    3    0    0  0.34568387500E+03 -0.19502062404E+03  0.20671436529E+03  0.44750554640E+03  0.00000000000E+00 0.  1.
         22    1    1    2    0    0 -0.13187266309E+04  0.92561338074E+03 -0.82079494697E+03  0.18081770938E+04  0.00000000000E+00 0.  1.
<mgrwt>
<rscale>  0 0.36268682E+04</rscale>
<asrwt>0</asrwt>
<pdfrwt beam="1">  1        1 0.28038832E+00 0.36268682E+04</pdfrwt>
<pdfrwt beam="2">  1       -1 0.27759837E+00 0.36268682E+04</pdfrwt>
<totfact> 0.14645078E-01</totfact>
</mgrwt>
</event>
<event>
 6    1  0.1885829E-005  0.2462832E+04  0.7818608E-02  0.8416348E-01
          2   -1    0    0  501    0  0.00000000000E+00  0.00000000000E+00  0.20102233331E+04  0.20102233331E+04  0.00000000000E+00 0. -1.
         -2   -1    0    0    0  501 -0.00000000000E+00 -0.00000000000E+00 -0.75433677188E+03  0.75433677188E+03  0.00000000000E+00 0.  1.
         23    2    1    2    0    0  0.85195366085E+03 -0.65054417514E+03  0.13051769158E+04  0.16914979897E+04  0.92983351621E+02 0.  0.
         13    1    3    3    0    0  0.37465469825E+03 -0.32593250293E+03  0.65700168016E+03  0.82355895182E+03  0.00000000000E+00 0. -1.
        -13    1    3    3    0    0  0.47729896260E+03 -0.32461167221E+03  0.64817523564E+03  0.86793903791E+03  0.00000000000E+00 0.  1.
         22    1    1    2    0    0 -0.85195366085E+03  0.65054417514E+03 -0.49290354624E+02  0.10730621152E+04  0.00000000000E+00 0.  1.
<mgrwt>
<rscale>  0 0.24628320E+04</rscale>
<asrwt>0</asrwt>
<pdfrwt beam="1">  1        2 0.30926513E+00 0.24628320E+04</pdfrwt>
<pdfrwt beam="2">  1       -2 0.11605181E+00 0.24628320E+04</pdfrwt>
<totfact> 0.34018222E+00</totfact>
</mgrwt>
</event>
<event>
 6    1  0.1885829E-005  0.4177761E+04  0.7818608E-02  0.7969616E-01
         -2   -1    0    0    0  501 -0.00000000000E+00  0.00000000000E+00  0.13015619537E+04  0.13015619537E+04  0.00000000000E+00 0.  1.
          2   -1    0    0  501    0  0.00000000000E+00 -0.00000000000E+00 -0.33524502985E+04  0.33524502985E+04  0.00000000000E+00 0. -1.
         23    2    1    2    0    0  0.14877226565E+04 -0.49893486183E+03  0.50842096234E+03  0.16519598161E+04  0.90689911348E+02 0.  0.
         13    1    3    3    0    0  0.12457256665E+04 -0.44673666527E+03  0.40883633315E+03  0.13851184901E+04  0.00000000000E+00 0. -1.
        -13    1    3    3    0    0  0.24199699003E+03 -0.52198196558E+02  0.99584629193E+02  0.26684132604E+03  0.00000000000E+00 0.  1.
         22    1    1    2    0    0 -0.14877226565E+04  0.49893486183E+03 -0.25593093071E+04  0.30020524360E+04  0.00000000000E+00 0. -1.
<mgrwt>
<rscale>  0 0.41777610E+04</rscale>
<asrwt>0</asrwt>
<pdfrwt beam="1">  1        2 0.51576158E+00 0.41777610E+04</pdfrwt>
<pdfrwt beam="2">  1       -2 0.20024030E+00 0.41777610E+04</pdfrwt>
<totfact> 0.10569357E-01</totfact>
</mgrwt>
</event>
<event>
 6    1  0.1885829E-005  0.4465538E+04  0.7818608E-02  0.7916698E-01
         -2   -1    0    0    0  501 -0.00000000000E+00  0.00000000000E+00  0.18907894414E+04  0.18907894414E+04  0.00000000000E+00 0.  1.
          2   -1    0    0  501    0  0.00000000000E+00 -0.00000000000E+00 -0.26366009507E+04  0.26366009507E+04  0.00000000000E+00 0. -1.
         23    2    1    2    0    0 -0.19065393476E+04  0.99584093244E+03 -0.97676212282E+03  0.23640758905E+04  0.90549017312E+02 0.  0.
         13    1    3    3    0    0 -0.12886925584E+04  0.64616260612E+03 -0.61556592110E+03  0.15675382059E+04  0.00000000000E+00 0.  1.
        -13    1    3    3    0    0 -0.61784678925E+03  0.34967832633E+03 -0.36119620172E+03  0.79653768462E+03  0.00000000000E+00 0. -1.
         22    1    1    2    0    0  0.19065393476E+04 -0.99584093244E+03  0.23095061348E+03  0.21633145016E+04  0.00000000000E+00 0.  1.
<mgrwt>
<rscale>  0 0.44655379E+04</rscale>
<asrwt>0</asrwt>
<pdfrwt beam="1">  1        2 0.40563092E+00 0.44655379E+04</pdfrwt>
<pdfrwt beam="2">  1       -2 0.29089068E+00 0.44655379E+04</pdfrwt>
<totfact> 0.79500569E-02</totfact>
</mgrwt>
</event>
<event>
 6    1  0.1885829E-005  0.3753387E+04  0.7818608E-02  0.8056232E-01
         -2   -1    0    0    0  501 -0.00000000000E+00  0.00000000000E+00  0.30980772242E+04  0.30980772242E+04  0.00000000000E+00 0. -1.
          2   -1    0    0  501    0  0.00000000000E+00 -0.00000000000E+00 -0.11368274963E+04  0.11368274963E+04  0.00000000000E+00 0.  1.
         23    2    1    2    0    0  0.11337166876E+02  0.10983140476E+04  0.26965896386E+04  0.29131078137E+04  0.90438801724E+02 0.  0.
         13    1    3    3    0    0 -0.20633157578E+02  0.75148369553E+03  0.17589212670E+04  0.19128401646E+04  0.00000000000E+00 0.  1.
        -13    1    3    3    0    0  0.31970324453E+02  0.34683035206E+03  0.93766837157E+03  0.10002676491E+04  0.00000000000E+00 0. -1.
         22    1    1    2    0    0 -0.11337166876E+02 -0.10983140476E+04 -0.73533991072E+03  0.13217969068E+04  0.00000000000E+00 0.  1.
<mgrwt>
<rscale>  0 0.37533875E+04</rscale>
<asrwt>0</asrwt>
<pdfrwt beam="1">  1        2 0.17489654E+00 0.37533875E+04</pdfrwt>
<pdfrwt beam="2">  1       -2 0.47662726E+00 0.37533875E+04</pdfrwt>
<totfact> 0.38636259E-02</totfact>
</mgrwt>
</event>
<event>
 6    1  0.1885829E-005  0.2030352E+04  0.7818608E-02  0.8592560E-01
          2   -1    0    0  501    0  0.00000000000E+00  0.00000000000E+00  0.22061808076E+04  0.22061808076E+04  0.00000000000E+00 0. -1.
         -2   -1    0    0    0  501 -0.00000000000E+00 -0.00000000000E+00 -0.46713406141E+03  0.46713406141E+03  0.00000000000E+00 0.  1.
         23    2    1    2    0    0  0.40822930629E+03  0.54030847744E+03 -0.12002495919E+03  0.69474669402E+03  0.98400003614E+02 0.  0.
         13    1    3    3    0    0  0.52888704373E+02  0.89377144518E+02 -0.53408028867E+02  0.11678144784E+03  0.00000000000E+00 0.  1.
        -13    1    3    3    0    0  0.35534060192E+03  0.45093133292E+03 -0.66616930328E+02  0.57796524618E+03  0.00000000000E+00 0. -1.
         22    1    1    2    0    0 -0.40822930629E+03 -0.54030847744E+03  0.18590717053E+04  0.19785681749E+04  0.00000000000E+00 0. -1.
<mgrwt>
<rscale>  0 0.20303519E+04</rscale>
<asrwt>0</asrwt>
<pdfrwt beam="1">  1        2 0.33941243E+00 0.20303519E+04</pdfrwt>
<pdfrwt beam="2">  1       -2 0.71866780E-01 0.20303519E+04</pdfrwt>
<totfact> 0.83304022E+00</totfact>
</mgrwt>
</event>
<event>
 6    1  0.1885829E-005  0.2156678E+04  0.7818608E-02  0.8536679E-01
         -2   -1    0    0    0  501 -0.00000000000E+00  0.00000000000E+00  0.29036938734E+03  0.29036938734E+03  0.00000000000E+00 0. -1.
          2   -1    0    0  501    0  0.00000000000E+00 -0.00000000000E+00 -0.40046050394E+04  0.40046050394E+04  0.00000000000E+00 0.  1.
         23    2    1    2    0    0  0.82842355390E+03 -0.55626596143E+03 -0.26643757285E+04  0.28465534715E+04  0.90836331041E+02 0.  0.
         13    1    3    3    0    0  0.56316905478E+02 -0.52176865474E+02 -0.27201896082E+03  0.28264524439E+03  0.00000000000E+00 0.  1.
        -13    1    3    3    0    0  0.77210664842E+03 -0.50408909595E+03 -0.23923567677E+04  0.25639082271E+04  0.00000000000E+00 0. -1.
         22    1    1    2    0    0 -0.82842355390E+03  0.55626596143E+03 -0.10498599236E+04  0.14484209553E+04  0.00000000000E+00 0. -1.
<mgrwt>
<rscale>  0 0.21566777E+04</rscale>
<asrwt>0</asrwt>
<pdfrwt beam="1">  1        2 0.61609305E+00 0.21566777E+04</pdfrwt>
<pdfrwt beam="2">  1       -2 0.44672216E-01 0.21566777E+04</pdfrwt>
<totfact> 0.14903369E+00</totfact>
</mgrwt>
</event>
<event>
 6    1  0.1885829E-005  0.5897488E+04  0.7818608E-02  0.7703244E-01
         -2   -1    0    0    0  501 -0.00000000000E+00  0.00000000000E+00  0.28124678198E+04  0.28124678198E+04  0.00000000000E+00 0.  1.
          2   -1    0    0  501    0  0.00000000000E+00 -0.00000000000E+00 -0.30916229182E+04  0.30916229182E+04  0.00000000000E+00 0. -1.
         23    2    1    2    0    0  0.18180128433E+04 -0.96050502199E+03  0.19753933997E+04  0.28527419336E+04  0.90646898088E+02 0.  0.
         13    1    3    3    0    0  0.11706145666E+04 -0.59570894763E+03  0.12076766364E+04  0.17842899070E+04  0.00000000000E+00 0. -1.
        -13    1    3    3    0    0  0.64739827668E+03 -0.36479607436E+03  0.76771676330E+03  0.10684520266E+04  0.00000000000E+00 0.  1.
         22    1    1    2    0    0 -0.18180128433E+04  0.96050502199E+03 -0.22545484981E+04  0.30513488044E+04  0.00000000000E+00 0. -1.
<mgrwt>
<rscale>  0 0.58974876E+04</rscale>
<asrwt>0</asrwt>
<pdfrwt beam="1">  1        2 0.47563430E+00 0.58974876E+04</pdfrwt>
<pdfrwt beam="2">  1       -2 0.43268735E+00 0.58974876E+04</pdfrwt>
<totfact> 0.46828771E-03</totfact>
</mgrwt>
</event>
<event>
 6    1  0.1885829E-005  0.3448609E+04  0.7818608E-02  0.8126078E-01
         -2   -1    0    0    0  501 -0.00000000000E+00  0.00000000000E+00  0.15823024156E+04  0.15823024156E+04  0.00000000000E+00 0.  1.
          2   -1    0    0  501    0  0.00000000000E+00 -0.00000000000E+00 -0.18790508265E+04  0.18790508265E+04  0.00000000000E+00 0. -1.
         23    2    1    2    0    0 -0.29289307689E+03 -0.33856844016E+03 -0.18185455002E+04  0.18750741608E+04  0.91544682180E+02 0.  0.
         11    1    3    3    0    0 -0.10659639909E+03 -0.76462338980E+02 -0.64903940815E+03  0.66216420540E+03  0.00000000000E+00 0. -1.
        -11    1    3    3    0    0 -0.18629667780E+03 -0.26210610118E+03 -0.11695060921E+04  0.12129099554E+04  0.00000000000E+00 0.  1.
         22    1    1    2    0    0  0.29289307689E+03  0.33856844016E+03  0.15217970893E+04  0.15862790814E+04  0.00000000000E+00 0.  1.
<mgrwt>
<rscale>  0 0.34486094E+04</rscale>
<asrwt>0</asrwt>
<pdfrwt beam="1">  1        2 0.28908474E+00 0.34486094E+04</pdfrwt>
<pdfrwt beam="2">  1       -2 0.24343114E+00 0.34486094E+04</pdfrwt>
<totfact> 0.45403084E-01</totfact>
</mgrwt>
</event>
<event>
 6    1  0.1885829E-005  0.1437535E+04  0.7818608E-02  0.8927088E-01
         -2   -1    0    0    0  501 -0.00000000000E+00  0.00000000000E+00  0.24471740373E+03  0.24471740373E+03  0.00000000000E+00 0.  1.
          2   -1    0    0  501    0  0.00000000000E+00 -0.00000000000E+00 -0.21111167381E+04  0.21111167381E+04  0.00000000000E+00 0. -1.
         23    2    1    2    0    0  0.34411326264E+03 -0.61927464790E+03 -0.11046246981E+04  0.13155382110E+04  0.92358183629E+02 0.  0.
         11    1    3    3    0    0  0.20762182677E+03 -0.29374070240E+03 -0.60356859429E+03  0.70262754800E+03  0.00000000000E+00 0. -1.
        -11    1    3    3    0    0  0.13649143587E+03 -0.32553394551E+03 -0.50105610376E+03  0.61291066303E+03  0.00000000000E+00 0.  1.
         22    1    1    2    0    0 -0.34411326264E+03  0.61927464790E+03 -0.76177463630E+03  0.10402959308E+04  0.00000000000E+00 0.  1.
<mgrwt>
<rscale>  0 0.14375354E+04</rscale>
<asrwt>0</asrwt>
<pdfrwt beam="1">  1        2 0.32478719E+00 0.14375354E+04</pdfrwt>
<pdfrwt beam="2">  1       -2 0.37648832E-01 0.14375354E+04</pdfrwt>
<totfact> 0.37457004E+01</totfact>
</mgrwt>
</event>
<event>
 6    1  0.1885829E-005  0.1289993E+04  0.7818608E-02  0.9037538E-01
         -1   -1    0    0    0  501 -0.00000000000E+00  0.00000000000E+00  0.26878874325E+03  0.26878874325E+03  0.00000000000E+00 0.  1.
          1   -1    0    0  501    0  0.00000000000E+00 -0.00000000000E+00 -0.15477607263E+04  0.15477607263E+04  0.00000000000E+00 0. -1.
         23    2    1    2    0    0  0.31208256048E+03  0.46763536734E+03 -0.20655691185E+03  0.60570164827E+03  0.90168550773E+02 0.  0.
         13    1    3    3    0    0  0.26513488795E+03  0.42077905432E+03 -0.15269335900E+03  0.52025645911E+03  0.00000000000E+00 0.  1.
        -13    1    3    3    0    0  0.46947672530E+02  0.46856313014E+02 -0.53863552850E+02  0.85445189162E+02  0.00000000000E+00 0. -1.
         22    1    1    2    0    0 -0.31208256048E+03 -0.46763536734E+03 -0.10724150712E+04  0.12108478213E+04  0.00000000000E+00 0. -1.
<mgrwt>
<rscale>  0 0.12899933E+04</rscale>
<asrwt>0</asrwt>
<pdfrwt beam="1">  1        1 0.23811703E+00 0.12899933E+04</pdfrwt>
<pdfrwt beam="2">  1       -1 0.41352115E-01 0.12899933E+04</pdfrwt>
<totfact> 0.34150146E+01</totfact>
</mgrwt>
</event>
<event>
 6    1  0.1885829E-005  0.1959879E+04  0.7818608E-02  0.8625612E-01
          1   -1    0    0  501    0  0.00000000000E+00  0.00000000000E+00  0.16776206293E+04  0.16776206293E+04  0.00000000000E+00 0. -1.
         -1   -1    0    0    0  501 -0.00000000000E+00 -0.00000000000E+00 -0.57240698842E+03  0.57240698842E+03  0.00000000000E+00 0.  1.
         23    2    1    2    0    0 -0.15751463347E+03 -0.60403496370E+03 -0.31047661515E+03  0.70282110333E+03  0.88840742944E+02 0.  0.
         13    1    3    3    0    0 -0.10662319412E+03 -0.52803707456E+03 -0.27373330729E+03  0.60425291158E+03  0.00000000000E+00 0.  1.
        -13    1    3    3    0    0 -0.50891439350E+02 -0.75997889136E+02 -0.36743307861E+02  0.98568191750E+02  0.00000000000E+00 0. -1.
         22    1    1    2    0    0  0.15751463347E+03  0.60403496370E+03  0.14156902560E+04  0.15472065144E+04  0.00000000000E+00 0. -1.
<mgrwt>
<rscale>  0 0.19598794E+04</rscale>
<asrwt>0</asrwt>
<pdfrwt beam="1">  1        1 0.25809548E+00 0.19598794E+04</pdfrwt>
<pdfrwt beam="2">  1       -1 0.88062615E-01 0.19598794E+04</pdfrwt>
<totfact> 0.58229974E+00</totfact>
</mgrwt>
</event>
<event>
 6    1  0.1885829E-005  0.1455445E+04  0.7818608E-02  0.8914634E-01
         -2   -1    0    0    0  501 -0.00000000000E+00  0.00000000000E+00  0.34671197208E+03  0.34671197208E+03  0.00000000000E+00 0.  1.
          2   -1    0    0  501    0  0.00000000000E+00 -0.00000000000E+00 -0.15274350830E+04  0.15274350830E+04  0.00000000000E+00 0. -1.
         23    2    1    2    0    0  0.72022619313E+02  0.16048126504E+03 -0.14981633838E+04  0.15112285781E+04  0.91524841716E+02 0.  0.
         13    1    3    3    0    0  0.23444713994E+02  0.12623957250E+03 -0.76884989716E+03  0.77949743338E+03  0.00000000000E+00 0.  1.
        -13    1    3    3    0    0  0.48577905319E+02  0.34241692535E+02 -0.72931348663E+03  0.73173114474E+03  0.00000000000E+00 0. -1.
         22    1    1    2    0    0 -0.72022619313E+02 -0.16048126504E+03  0.31744027285E+03  0.36291847700E+03  0.00000000000E+00 0.  1.
<mgrwt>
<rscale>  0 0.14554450E+04</rscale>
<asrwt>0</asrwt>
<pdfrwt beam="1">  1        2 0.23499002E+00 0.14554450E+04</pdfrwt>
<pdfrwt beam="2">  1       -2 0.53340303E-01 0.14554450E+04</pdfrwt>
<totfact> 0.39333378E+01</totfact>
</mgrwt>
</event>
<event>
 6    1  0.1885829E-005  0.4771928E+04  0.7818608E-02  0.7864686E-01
          2   -1    0    0  501    0  0.00000000000E+00  0.00000000000E+00  0.28049579654E+04  0.28049579654E+04  0.00000000000E+00 0. -1.
         -2   -1    0    0    0  501 -0.00000000000E+00 -0.00000000000E+00 -0.20295580318E+04  0.20295580318E+04  0.00000000000E+00 0.  1.
         23    2    1    2    0    0  0.22057161333E+04 -0.68377892588E+03 -0.21657700630E+03  0.23212003526E+04  0.91258957438E+02 0.  0.
         11    1    3    3    0    0  0.23132030692E+03 -0.67389657544E+02 -0.50473193690E+02  0.24616659728E+03  0.00000000000E+00 0.  1.
        -11    1    3    3    0    0  0.19743958263E+04 -0.61638926834E+03 -0.16610381261E+03  0.20750337553E+04  0.00000000000E+00 0. -1.
         22    1    1    2    0    0 -0.22057161333E+04  0.68377892588E+03  0.99197693997E+03  0.25133156446E+04  0.00000000000E+00 0. -1.
<mgrwt>
<rscale>  0 0.47719283E+04</rscale>
<asrwt>0</asrwt>
<pdfrwt beam="1">  1        2 0.43153200E+00 0.47719283E+04</pdfrwt>
<pdfrwt beam="2">  1       -2 0.31223970E+00 0.47719283E+04</pdfrwt>
<totfact> 0.45501873E-02</totfact>
</mgrwt>
</event>
<event>
 6    1  0.1885829E-005  0.4557987E+04  0.7818608E-02  0.7900563E-01
         -2   -1    0    0    0  501 -0.00000000000E+00  0.00000000000E+00  0.15601745542E+04  0.15601745542E+04  0.00000000000E+00 0.  1.
          2   -1    0    0  501    0  0.00000000000E+00 -0.00000000000E+00 -0.33289931820E+04  0.33289931820E+04  0.00000000000E+00 0. -1.
         23    2    1    2    0    0 -0.49629073750E+03  0.31326630345E+03  0.14763542781E+04  0.15913521770E+04  0.91320992414E+02 0.  0.
         13    1    3    3    0    0 -0.16521183294E+03  0.15441000566E+03  0.52829553993E+03  0.57465953146E+03  0.00000000000E+00 0.  1.
        -13    1    3    3    0    0 -0.33107890456E+03  0.15885629778E+03  0.94805873817E+03  0.10166926455E+04  0.00000000000E+00 0. -1.
         22    1    1    2    0    0  0.49629073750E+03 -0.31326630345E+03 -0.32451729059E+04  0.32978155592E+04  0.00000000000E+00 0. -1.
<mgrwt>
<rscale>  0 0.45579866E+04</rscale>
<asrwt>0</asrwt>
<pdfrwt beam="1">  1        2 0.51215279E+00 0.45579866E+04</pdfrwt>
<pdfrwt beam="2">  1       -2 0.24002686E+00 0.45579866E+04</pdfrwt>
<totfact> 0.59401690E-02</totfact>
</mgrwt>
</event>
<event>
 6    1  0.1885829E-005  0.2779123E+04  0.7818608E-02  0.8309779E-01
         -2   -1    0    0    0  501 -0.00000000000E+00  0.00000000000E+00  0.55352012717E+03  0.55352012717E+03  0.00000000000E+00 0.  1.
          2   -1    0    0  501    0  0.00000000000E+00 -0.00000000000E+00 -0.34883659903E+04  0.34883659903E+04  0.00000000000E+00 0. -1.
         23    2    1    2    0    0  0.96063166421E+02 -0.13134161297E+04 -0.83057137562E+03  0.15594959023E+04  0.88817778123E+02 0.  0.
         13    1    3    3    0    0  0.15575185591E+02 -0.34406193433E+03 -0.26276956079E+03  0.43320785212E+03  0.00000000000E+00 0. -1.
        -13    1    3    3    0    0  0.80487980830E+02 -0.96935419533E+03 -0.56780181483E+03  0.11262880502E+04  0.00000000000E+00 0.  1.
         22    1    1    2    0    0 -0.96063166421E+02  0.13134161297E+04 -0.21042744875E+04  0.24823902152E+04  0.00000000000E+00 0. -1.
<mgrwt>
<rscale>  0 0.27791227E+04</rscale>
<asrwt>0</asrwt>
<pdfrwt beam="1">  1        2 0.53667169E+00 0.27791227E+04</pdfrwt>
<pdfrwt beam="2">  1       -2 0.85156943E-01 0.27791227E+04</pdfrwt>
<totfact> 0.86624117E-01</totfact>
</mgrwt>
</event>
<event>
 6    1  0.1885829E-005  0.2764794E+04  0.7818608E-02  0.8314283E-01
         -2   -1    0    0    0  501 -0.00000000000E+00  0.00000000000E+00  0.85137106030E+03  0.85137106030E+03  0.00000000000E+00 0.  1.
          2   -1    0    0  501    0  0.00000000000E+00 -0.00000000000E+00 -0.22446397324E+04  0.22446397324E+04  0.00000000000E+00 0. -1.
         23    2    1    2    0    0  0.12819418261E+04 -0.51314931298E+03 -0.68551757341E+03  0.15443637063E+04  0.91803327639E+02 0.  0.
         11    1    3    3    0    0  0.40873290771E+03 -0.13508546088E+03 -0.25099583229E+03  0.49830671220E+03  0.00000000000E+00 0. -1.
        -11    1    3    3    0    0  0.87320891839E+03 -0.37806385209E+03 -0.43452174111E+03  0.10460569941E+04  0.00000000000E+00 0.  1.
         22    1    1    2    0    0 -0.12819418261E+04  0.51314931298E+03 -0.70775109865E+03  0.15516470863E+04  0.00000000000E+00 0.  1.
<mgrwt>
<rscale>  0 0.27647939E+04</rscale>
<asrwt>0</asrwt>
<pdfrwt beam="1">  1        2 0.34532919E+00 0.27647939E+04</pdfrwt>
<pdfrwt beam="2">  1       -2 0.13098016E+00 0.27647939E+04</pdfrwt>
<totfact> 0.18118497E+00</totfact>
</mgrwt>
</event>
<event>
 6    1  0.1885829E-005  0.1331620E+04  0.7818608E-02  0.9004860E-01
         -2   -1    0    0    0  501 -0.00000000000E+00  0.00000000000E+00  0.83035884338E+03  0.83035884338E+03  0.00000000000E+00 0.  1.
          2   -1    0    0  501    0  0.00000000000E+00 -0.00000000000E+00 -0.53386873367E+03  0.53386873367E+03  0.00000000000E+00 0. -1.
         23    2    1    2    0    0 -0.59871933020E+03  0.13165024671E+02  0.43970997369E+03  0.74847593582E+03  0.90737044827E+02 0.  0.
         13    1    3    3    0    0 -0.45295193442E+03  0.44875667908E+02  0.35224920749E+03  0.57555085322E+03  0.00000000000E+00 0.  1.
        -13    1    3    3    0    0 -0.14576739578E+03 -0.31710643236E+02  0.87460766207E+02  0.17292508260E+03  0.00000000000E+00 0. -1.
         22    1    1    2    0    0  0.59871933020E+03 -0.13165024671E+02 -0.14321986398E+03  0.61575164122E+03  0.00000000000E+00 0. -1.
<mgrwt>
<rscale>  0 0.13316195E+04</rscale>
<asrwt>0</asrwt>
<pdfrwt beam="1">  1        2 0.82133651E-01 0.13316195E+04</pdfrwt>
<pdfrwt beam="2">  1       -2 0.12774752E+00 0.13316195E+04</pdfrwt>
<totfact> 0.25306188E+01</totfact>
</mgrwt>
</event>
<event>
 6    1  0.1885829E-005  0.2973746E+04  0.7818608E-02  0.8251268E-01
          2   -1    0    0  501    0  0.00000000000E+00  0.00000000000E+00  0.24321928883E+04  0.24321928883E+04  0.00000000000E+00 0. -1.
         -2   -1    0    0    0  501 -0.00000000000E+00 -0.00000000000E+00 -0.90897044755E+03  0.90897044755E+03  0.00000000000E+00 0.  1.
         23    2    1    2    0    0 -0.11452615670E+03 -0.10899923916E+04  0.18889303879E+04  0.21857664529E+04  0.91199352165E+02 0.  0.
         11    1    3    3    0    0 -0.79818020380E+01 -0.49083762151E+03  0.81709388655E+03  0.95321964903E+03  0.00000000000E+00 0. -1.
        -11    1    3    3    0    0 -0.10654435466E+03 -0.59915477011E+03  0.10718365014E+04  0.12325468039E+04  0.00000000000E+00 0.  1.
         22    1    1    2    0    0  0.11452615670E+03  0.10899923916E+04 -0.36570794723E+03  0.11553968829E+04  0.00000000000E+00 0.  1.
<mgrwt>
<rscale>  0 0.29737461E+04</rscale>
<asrwt>0</asrwt>
<pdfrwt beam="1">  1        2 0.37418352E+00 0.29737461E+04</pdfrwt>
<pdfrwt beam="2">  1       -2 0.13984161E+00 0.29737461E+04</pdfrwt>
<totfact> 0.11770880E+00</totfact>
</mgrwt>
</event>
<event>
 6    1  0.1885829E-005  0.3627665E+04  0.7818608E-02  0.8084184E-01
          2   -1    0    0  501    0  0.00000000000E+00  0.00000000000E+00  0.12068935087E+04  0.12068935087E+04  0.00000000000E+00 0. -1.
         -2   -1    0    0    0  501 -0.00000000000E+00 -0.00000000000E+00 -0.27259979337E+04  0.27259979337E+04  0.00000000000E+00 0.  1.
         23    2    1    2    0    0 -0.41222510045E+03  0.16837067717E+04 -0.13347726650E+04  0.21896828420E+04  0.91076093998E+02 0.  0.
         13    1    3    3    0    0 -0.23314812568E+03  0.90376497960E+03 -0.66310554770E+03  0.11449271393E+04  0.00000000000E+00 0. -1.
        -13    1    3    3    0    0 -0.17907697477E+03  0.77994179213E+03 -0.67166711730E+03  0.10447557028E+04  0.00000000000E+00 0.  1.
         22    1    1    2    0    0  0.41222510045E+03 -0.16837067717E+04 -0.18433176007E+03  0.17432086004E+04  0.00000000000E+00 0. -1.
<mgrwt>
<rscale>  0 0.36276655E+04</rscale>
<asrwt>0</asrwt>
<pdfrwt beam="1">  1        2 0.18567592E+00 0.36276655E+04</pdfrwt>
<pdfrwt beam="2">  1       -2 0.41938430E+00 0.36276655E+04</pdfrwt>
<totfact> 0.84367123E-02</totfact>
</mgrwt>
</event>
<event>
 6    1  0.1885829E-005  0.2712507E+04  0.7818608E-02  0.8330958E-01
         -2   -1    0    0    0  501 -0.00000000000E+00  0.00000000000E+00  0.14997340702E+04  0.14997340702E+04  0.00000000000E+00 0.  1.
          2   -1    0    0  501    0  0.00000000000E+00 -0.00000000000E+00 -0.12265000542E+04  0.12265000542E+04  0.00000000000E+00 0. -1.
         23    2    1    2    0    0 -0.94566382192E+03 -0.53823437912E+03  0.94800592576E+03  0.14458851715E+04  0.88839084866E+02 0.  0.
         13    1    3    3    0    0 -0.13192260472E+03 -0.46959357049E+02  0.10018577732E+03  0.17217997801E+03  0.00000000000E+00 0. -1.
        -13    1    3    3    0    0 -0.81374121720E+03 -0.49127502207E+03  0.84782014844E+03  0.12737051935E+04  0.00000000000E+00 0.  1.
         22    1    1    2    0    0  0.94566382192E+03  0.53823437912E+03 -0.67477190975E+03  0.12803489529E+04  0.00000000000E+00 0. -1.
<mgrwt>
<rscale>  0 0.27125073E+04</rscale>
<asrwt>0</asrwt>
<pdfrwt beam="1">  1        2 0.18869232E+00 0.27125073E+04</pdfrwt>
<pdfrwt beam="2">  1       -2 0.23072832E+00 0.27125073E+04</pdfrwt>
<totfact> 0.13542298E+00</totfact>
</mgrwt>
</event>
<event>
 6    1  0.1885829E-005  0.2859069E+04  0.7818608E-02  0.8285161E-01
         -2   -1    0    0    0  501 -0.00000000000E+00  0.00000000000E+00  0.76010622383E+03  0.76010622383E+03  0.00000000000E+00 0.  1.
          2   -1    0    0  501    0  0.00000000000E+00 -0.00000000000E+00 -0.26885309264E+04  0.26885309264E+04  0.00000000000E+00 0. -1.
         23    2    1    2    0    0  0.23864299695E+03 -0.63564506335E+03  0.55017547322E+03  0.87872393030E+03  0.92019388155E+02 0.  0.
         13    1    3    3    0    0  0.62362759187E+02 -0.26439343182E+03  0.25641703234E+03  0.37355413932E+03  0.00000000000E+00 0. -1.
        -13    1    3    3    0    0  0.17628023776E+03 -0.37125163153E+03  0.29375844087E+03  0.50516979098E+03  0.00000000000E+00 0.  1.
         22    1    1    2    0    0 -0.23864299695E+03  0.63564506335E+03 -0.24786001757E+04  0.25699132199E+04  0.00000000000E+00 0. -1.
<mgrwt>
<rscale>  0 0.28590691E+04</rscale>
<asrwt>0</asrwt>
<pdfrwt beam="1">  1        2 0.41362014E+00 0.28590691E+04</pdfrwt>
<pdfrwt beam="2">  1       -2 0.11693942E+00 0.28590691E+04</pdfrwt>
<totfact> 0.13217366E+00</totfact>
</mgrwt>
</event>
<event>
 6    1  0.1885829E-005  0.2105217E+04  0.7818608E-02  0.8558949E-01
          2   -1    0    0  501    0  0.00000000000E+00  0.00000000000E+00  0.14982699955E+04  0.14982699955E+04  0.00000000000E+00 0. -1.
         -2   -1    0    0    0  501 -0.00000000000E+00 -0.00000000000E+00 -0.73950904300E+03  0.73950904300E+03  0.00000000000E+00 0.  1.
         23    2    1    2    0    0  0.19120949997E+03  0.11739707516E+03  0.14710651221E+04  0.14909722521E+04  0.92857508027E+02 0.  0.
         13    1    3    3    0    0  0.54040980654E+02  0.33127485323E+02  0.72340347860E+03  0.72617522040E+03  0.00000000000E+00 0. -1.
        -13    1    3    3    0    0  0.13716851931E+03  0.84269589839E+02  0.74766164352E+03  0.76479703167E+03  0.00000000000E+00 0.  1.
         22    1    1    2    0    0 -0.19120949997E+03 -0.11739707516E+03 -0.71230416965E+03  0.74680678641E+03  0.00000000000E+00 0.  1.
<mgrwt>
<rscale>  0 0.21052166E+04</rscale>
<asrwt>0</asrwt>
<pdfrwt beam="1">  1        2 0.23050308E+00 0.21052166E+04</pdfrwt>
<pdfrwt beam="2">  1       -2 0.11377062E+00 0.21052166E+04</pdfrwt>
<totfact> 0.70951209E+00</totfact>
</mgrwt>
</event>
<event>
 6    1  0.1885829E-005  0.1164895E+04  0.7818608E-02  0.9144151E-01
          1   -1    0    0  501    0  0.00000000000E+00  0.00000000000E+00  0.14641158662E+04  0.14641158662E+04  0.00000000000E+00 0. -1.
         -1   -1    0    0    0  501 -0.00000000000E+00 -0.00000000000E+00 -0.23170656368E+03  0.23170656368E+03  0.00000000000E+00 0.  1.
         23    2    1    2    0    0  0.86254458757E+02 -0.39535882247E+03  0.17277613391E+02  0.41508301373E+03  0.90812786569E+02 0.  0.
         11    1    3    3    0    0  0.15688347751E+02 -0.18697115295E+03  0.46054402950E+02  0.19319768198E+03  0.00000000000E+00 0. -1.
        -11    1    3    3    0    0  0.70566111006E+02 -0.20838766952E+03 -0.28776789559E+02  0.22188533175E+03  0.00000000000E+00 0.  1.
         22    1    1    2    0    0 -0.86254458757E+02  0.39535882247E+03  0.12151316891E+04  0.12807394162E+04  0.00000000000E+00 0. -1.
<mgrwt>
<rscale>  0 0.11648953E+04</rscale>
<asrwt>0</asrwt>
<pdfrwt beam="1">  1        1 0.22524859E+00 0.11648953E+04</pdfrwt>
<pdfrwt beam="2">  1       -1 0.35647164E-01 0.11648953E+04</pdfrwt>
<totfact> 0.51597713E+01</totfact>
</mgrwt>
</event>
<event>
 6    1  0.1885829E-005  0.1831249E+04  0.7818608E-02  0.8689856E-01
         -2   -1    0    0    0  501 -0.00000000000E+00  0.00000000000E+00  0.27715287117E+04  0.27715287117E+04  0.00000000000E+00 0.  1.
          2   -1    0    0  501    0  0.00000000000E+00 -0.00000000000E+00 -0.30249321697E+03  0.30249321697E+03  0.00000000000E+00 0. -1.
         23    2    1    2    0    0 -0.10102981494E+03  0.75909956139E+03  0.40170667697E+03  0.86941593024E+03  0.89870116430E+02 0.  0.
         11    1    3    3    0    0 -0.63444682359E+02  0.54071399190E+03  0.32941309114E+03  0.63632525753E+03  0.00000000000E+00 0. -1.
        -11    1    3    3    0    0 -0.37585132579E+02  0.21838556949E+03  0.72293585820E+02  0.23309067271E+03  0.00000000000E+00 0.  1.
         22    1    1    2    0    0  0.10102981494E+03 -0.75909956139E+03  0.20673288178E+04  0.22046059985E+04  0.00000000000E+00 0.  1.
<mgrwt>
<rscale>  0 0.18312494E+04</rscale>
<asrwt>0</asrwt>
<pdfrwt beam="1">  1        2 0.46537420E-01 0.18312494E+04</pdfrwt>
<pdfrwt beam="2">  1       -2 0.42638902E+00 0.18312494E+04</pdfrwt>
<totfact> 0.51172874E-01</totfact>
</mgrwt>
</event>
<event>
 6    1  0.1885829E-005  0.1915610E+04  0.7818608E-02  0.8647125E-01
         -2   -1    0    0    0  501 -0.00000000000E+00  0.00000000000E+00  0.68748483246E+03  0.68748483246E+03  0.00000000000E+00 0.  1.
          2   -1    0    0  501    0  0.00000000000E+00 -0.00000000000E+00 -0.13344156926E+04  0.13344156926E+04  0.00000000000E+00 0. -1.
         23    2    1    2    0    0 -0.15681551608E+03  0.44886209209E+03  0.55067038888E+03  0.73336762463E+03  0.92314201897E+02 0.  0.
         11    1    3    3    0    0 -0.76181692011E+02  0.10369945982E+03  0.12435100153E+03  0.17894244814E+03  0.00000000000E+00 0. -1.
        -11    1    3    3    0    0 -0.80633824069E+02  0.34516263227E+03  0.42631938735E+03  0.55442517650E+03  0.00000000000E+00 0.  1.
         22    1    1    2    0    0  0.15681551608E+03 -0.44886209209E+03 -0.11976012490E+04  0.12885329004E+04  0.00000000000E+00 0. -1.
<mgrwt>
<rscale>  0 0.19156101E+04</rscale>
<asrwt>0</asrwt>
<pdfrwt beam="1">  1        2 0.20529472E+00 0.19156101E+04</pdfrwt>
<pdfrwt beam="2">  1       -2 0.10576690E+00 0.19156101E+04</pdfrwt>
<totfact> 0.10668177E+01</totfact>
</mgrwt>
</event>
<event>
 6    1  0.1885829E-005  0.4406724E+04  0.7818608E-02  0.7927173E-01
          2   -1    0    0  501    0  0.00000000000E+00  0.00000000000E+00  0.35215795860E+04  0.35215795860E+04  0.00000000000E+00 0. -1.
         -2   -1    0    0    0  501 -0.00000000000E+00 -0.00000000000E+00 -0.13785872598E+04  0.13785872598E+04  0.00000000000E+00 0.  1.
         23    2    1    2    0    0  0.14362078568E+04  0.14070205783E+04  0.20715663775E+04  0.28883264987E+04  0.92966613240E+02 0.  0.
         11    1    3    3    0    0  0.28767399306E+03  0.23547165444E+03  0.36241637950E+03  0.51918094963E+03  0.00000000000E+00 0.  1.
        -11    1    3    3    0    0  0.11485338637E+04  0.11715489239E+04  0.17091499980E+04  0.23691455491E+04  0.00000000000E+00 0. -1.
         22    1    1    2    0    0 -0.14362078568E+04 -0.14070205783E+04  0.71425948686E+02  0.20118403470E+04  0.00000000000E+00 0.  1.
<mgrwt>
<rscale>  0 0.44067243E+04</rscale>
<asrwt>0</asrwt>
<pdfrwt beam="1">  1        2 0.54178147E+00 0.44067243E+04</pdfrwt>
<pdfrwt beam="2">  1       -2 0.21209035E+00 0.44067243E+04</pdfrwt>
<totfact> 0.66408235E-02</totfact>
</mgrwt>
</event>
<event>
 6    1  0.1885829E-005  0.2133962E+04  0.7818608E-02  0.8546429E-01
          2   -1    0    0  501    0  0.00000000000E+00  0.00000000000E+00  0.23105986893E+04  0.23105986893E+04  0.00000000000E+00 0. -1.
         -2   -1    0    0    0  501 -0.00000000000E+00 -0.00000000000E+00 -0.49270719467E+03  0.49270719467E+03  0.00000000000E+00 0.  1.
         23    2    1    2    0    0 -0.20455054485E+03 -0.80104694753E+03  0.28625817258E+02  0.83226839022E+03  0.91291283270E+02 0.  0.
         13    1    3    3    0    0 -0.64447842865E+02 -0.39687190270E+03 -0.14493032319E+02  0.40233180286E+03  0.00000000000E+00 0.  1.
        -13    1    3    3    0    0 -0.14010270198E+03 -0.40417504483E+03  0.43118849577E+02  0.42993658736E+03  0.00000000000E+00 0. -1.
         22    1    1    2    0    0  0.20455054485E+03  0.80104694753E+03  0.17892656774E+04  0.19710374937E+04  0.00000000000E+00 0. -1.
<mgrwt>
<rscale>  0 0.21339621E+04</rscale>
<asrwt>0</asrwt>
<pdfrwt beam="1">  1        2 0.35547672E+00 0.21339621E+04</pdfrwt>
<pdfrwt beam="2">  1       -2 0.75801108E-01 0.21339621E+04</pdfrwt>
<totfact> 0.64081686E+00</totfact>
</mgrwt>
</event>
<event>
 6    1  0.1885829E-005  0.2497025E+04  0.7818608E-02  0.8404046E-01
         -2   -1    0    0    0  501 -0.00000000000E+00  0.00000000000E+00  0.78496739816E+03  0.78496739816E+03  0.00000000000E+00 0.  1.
          2   -1    0    0  501    0  0.00000000000E+00 -0.00000000000E+00 -0.19857934679E+04  0.19857934679E+04  0.00000000000E+00 0. -1.
         23    2    1    2    0    0 -0.48585882168E+03  0.55246113332E+03  0.51579580773E+03  0.90312525689E+03  0.91202060979E+02 0.  0.
         13    1    3    3    0    0 -0.35844373978E+03  0.45199962312E+03  0.37281400004E+03  0.68685941247E+03  0.00000000000E+00 0. -1.
        -13    1    3    3    0    0 -0.12741508190E+03  0.10046151020E+03  0.14298180770E+03  0.21626584442E+03  0.00000000000E+00 0.  1.
         22    1    1    2    0    0  0.48585882168E+03 -0.55246113332E+03 -0.17166218775E+04  0.18676356092E+04  0.00000000000E+00 0. -1.
<mgrwt>
<rscale>  0 0.24970247E+04</rscale>
<asrwt>0</asrwt>
<pdfrwt beam="1">  1        2 0.30550668E+00 0.24970247E+04</pdfrwt>
<pdfrwt beam="2">  1       -2 0.12076422E+00 0.24970247E+04</pdfrwt>
<totfact> 0.31725605E+00</totfact>
</mgrwt>
</event>
<event>
 6    1  0.1885829E-005  0.1664590E+04  0.7818608E-02  0.8781821E-01
         -2   -1    0    0    0  501 -0.00000000000E+00  0.00000000000E+00  0.31547525314E+03  0.31547525314E+03  0.00000000000E+00 0.  1.
          2   -1    0    0  501    0  0.00000000000E+00 -0.00000000000E+00 -0.21957833101E+04  0.21957833101E+04  0.00000000000E+00 0. -1.
         23    2    1    2    0    0  0.82084977679E+03 -0.40838213735E+02 -0.11163025415E+04  0.13891326597E+04  0.89978143428E+02 0.  0.
         13    1    3    3    0    0  0.35852793826E+03 -0.37306462533E+02 -0.42218550289E+03  0.55513480662E+03  0.00000000000E+00 0.  1.
        -13    1    3    3    0    0  0.46232183852E+03 -0.35317512020E+01 -0.69411703862E+03  0.83399785308E+03  0.00000000000E+00 0. -1.
         22    1    1    2    0    0 -0.82084977679E+03  0.40838213735E+02 -0.76400551541E+03  0.11221259035E+04  0.00000000000E+00 0. -1.
<mgrwt>
<rscale>  0 0.16645904E+04</rscale>
<asrwt>0</asrwt>
<pdfrwt beam="1">  1        2 0.33781281E+00 0.16645904E+04</pdfrwt>
<pdfrwt beam="2">  1       -2 0.48534655E-01 0.16645904E+04</pdfrwt>
<totfact> 0.19930971E+01</totfact>
</mgrwt>
</event>
<event>
 6    1  0.1885829E-005  0.3943391E+04  0.7818608E-02  0.8016065E-01
         -2   -1    0    0    0  501 -0.00000000000E+00  0.00000000000E+00  0.16052114769E+04  0.16052114769E+04  0.00000000000E+00 0.  1.
          2   -1    0    0  501    0  0.00000000000E+00 -0.00000000000E+00 -0.24218509531E+04  0.24218509531E+04  0.00000000000E+00 0. -1.
         23    2    1    2    0    0 -0.81772627865E+02 -0.14258455502E+04  0.97824807219E+03  0.17333005402E+04  0.87402380825E+02 0.  0.
         11    1    3    3    0    0 -0.47674913157E+02 -0.12868087796E+04  0.88249205270E+03  0.15610707722E+04  0.00000000000E+00 0. -1.
        -11    1    3    3    0    0 -0.34097714708E+02 -0.13903677058E+03  0.95756019492E+02  0.17222976801E+03  0.00000000000E+00 0.  1.
         22    1    1    2    0    0  0.81772627865E+02  0.14258455502E+04 -0.17948875484E+04  0.22937618898E+04  0.00000000000E+00 0. -1.
<mgrwt>
<rscale>  0 0.39433909E+04</rscale>
<asrwt>0</asrwt>
<pdfrwt beam="1">  1        2 0.37259245E+00 0.39433909E+04</pdfrwt>
<pdfrwt beam="2">  1       -2 0.24695561E+00 0.39433909E+04</pdfrwt>
<totfact> 0.20538382E-01</totfact>
</mgrwt>
</event>
<event>
 6    1  0.1885829E-005  0.2770530E+04  0.7818608E-02  0.8312476E-01
         -2   -1    0    0    0  501 -0.00000000000E+00  0.00000000000E+00  0.13284652744E+04  0.13284652744E+04  0.00000000000E+00 0.  1.
          2   -1    0    0  501    0  0.00000000000E+00 -0.00000000000E+00 -0.14444932168E+04  0.14444932168E+04  0.00000000000E+00 0. -1.
         23    2    1    2    0    0 -0.26149686336E+03 -0.51298570937E+03 -0.13175192994E+04  0.14406235377E+04  0.89465778412E+02 0.  0.
         13    1    3    3    0    0  0.59021915437E+01 -0.28585612650E+02 -0.74828595997E+02  0.80319934602E+02  0.00000000000E+00 0. -1.
        -13    1    3    3    0    0 -0.26739905490E+03 -0.48440009672E+03 -0.12426907034E+04  0.13603036031E+04  0.00000000000E+00 0.  1.
         22    1    1    2    0    0  0.26149686336E+03  0.51298570937E+03  0.12014913569E+04  0.13323349535E+04  0.00000000000E+00 0.  1.
<mgrwt>
<rscale>  0 0.27705300E+04</rscale>
<asrwt>0</asrwt>
<pdfrwt beam="1">  1        2 0.22222973E+00 0.27705300E+04</pdfrwt>
<pdfrwt beam="2">  1       -2 0.20437927E+00 0.27705300E+04</pdfrwt>
<totfact> 0.14824149E+00</totfact>
</mgrwt>
</event>
<event>
 6    1  0.1885829E-005  0.4831878E+04  0.7818608E-02  0.7854978E-01
          2   -1    0    0  501    0  0.00000000000E+00  0.00000000000E+00  0.23895701537E+04  0.23895701537E+04  0.00000000000E+00 0. -1.
         -2   -1    0    0    0  501 -0.00000000000E+00 -0.00000000000E+00 -0.24425988268E+04  0.24425988268E+04  0.00000000000E+00 0.  1.
         23    2    1    2    0    0  0.17250662989E+04  0.15193308039E+04 -0.76737033364E+03  0.24249914143E+04  0.86638921765E+02 0.  0.
         11    1    3    3    0    0  0.14348575546E+04  0.12459825439E+04 -0.66561560186E+03  0.20135373926E+04  0.00000000000E+00 0.  1.
        -11    1    3    3    0    0  0.29020874432E+03  0.27334826002E+03 -0.10175473178E+03  0.41145402171E+03  0.00000000000E+00 0. -1.
         22    1    1    2    0    0 -0.17250662989E+04 -0.15193308039E+04  0.71434166046E+03  0.24071775662E+04  0.00000000000E+00 0. -1.
<mgrwt>
<rscale>  0 0.48318780E+04</rscale>
<asrwt>0</asrwt>
<pdfrwt beam="1">  1        2 0.36762618E+00 0.48318780E+04</pdfrwt>
<pdfrwt beam="2">  1       -2 0.37578443E+00 0.48318780E+04</pdfrwt>
<totfact> 0.31703336E-02</totfact>
</mgrwt>
</event>
<event>
 6    1  0.1885829E-005  0.2450946E+04  0.7818608E-02  0.8420673E-01
          1   -1    0    0  501    0  0.00000000000E+00  0.00000000000E+00  0.15309053166E+04  0.15309053166E+04  0.00000000000E+00 0. -1.
         -1   -1    0    0    0  501 -0.00000000000E+00 -0.00000000000E+00 -0.98097758731E+03  0.98097758731E+03  0.00000000000E+00 0.  1.
         23    2    1    2    0    0  0.97287770391E+03  0.51049214810E+03 -0.27812785330E+03  0.11361033766E+04  0.79262345407E+02 0.  0.
         11    1    3    3    0    0  0.69453183949E+03  0.39246710540E+03 -0.22753770352E+03  0.82956513391E+03  0.00000000000E+00 0.  1.
        -11    1    3    3    0    0  0.27834586443E+03  0.11802504270E+03 -0.50590149777E+02  0.30653824264E+03  0.00000000000E+00 0. -1.
         22    1    1    2    0    0 -0.97287770391E+03 -0.51049214810E+03  0.82805558261E+03  0.13757795274E+04  0.00000000000E+00 0. -1.
<mgrwt>
<rscale>  0 0.24509458E+04</rscale>
<asrwt>0</asrwt>
<pdfrwt beam="1">  1        1 0.23552389E+00 0.24509458E+04</pdfrwt>
<pdfrwt beam="2">  1       -1 0.15091963E+00 0.24509458E+04</pdfrwt>
<totfact> 0.19066506E+00</totfact>
</mgrwt>
</event>
<event>
 6    1  0.2818209E-005  0.3152758E+04  0.7818608E-02  0.8201406E-01
         -2   -1    0    0    0  501 -0.00000000000E+00  0.00000000000E+00  0.12338077416E+04  0.12338077416E+04  0.00000000000E+00 0.  1.
          2   -1    0    0  501    0  0.00000000000E+00 -0.00000000000E+00 -0.20140665510E+04  0.20140665510E+04  0.00000000000E+00 0. -1.
         23    2    1    2    0    0 -0.86625820090E+03  0.11424574557E+04 -0.10622720439E+04  0.17866611757E+04  0.90132973440E+02 0.  0.
         11    1    3    3    0    0 -0.61112511256E+03  0.74027135060E+03 -0.69129771604E+03  0.11829489033E+04  0.00000000000E+00 0.  1.
        -11    1    3    3    0    0 -0.25513308835E+03  0.40218610506E+03 -0.37097432785E+03  0.60371227236E+03  0.00000000000E+00 0. -1.
         22    1    1    2    0    0  0.86625820090E+03 -0.11424574557E+04  0.28201323440E+03  0.14612131169E+04  0.00000000000E+00 0. -1.
<mgrwt>
<rscale>  0 0.31527581E+04</rscale>
<asrwt>0</asrwt>
<pdfrwt beam="1">  1        2 0.30985639E+00 0.31527581E+04</pdfrwt>
<pdfrwt beam="2">  1       -2 0.18981658E+00 0.31527581E+04</pdfrwt>
<totfact> 0.86229372E-01</totfact>
</mgrwt>
</event>
<event>
 6    1  0.1885829E-005  0.2147420E+04  0.7818608E-02  0.8540638E-01
         -2   -1    0    0    0  501 -0.00000000000E+00  0.00000000000E+00  0.53373838082E+03  0.53373838082E+03  0.00000000000E+00 0.  1.
          2   -1    0    0  501    0  0.00000000000E+00 -0.00000000000E+00 -0.21599583726E+04  0.21599583726E+04  0.00000000000E+00 0. -1.
         23    2    1    2    0    0  0.27752850175E+03  0.33332888198E+03 -0.20439877140E+04  0.20914840978E+04  0.91048029300E+02 0.  0.
         11    1    3    3    0    0  0.13334175903E+03  0.96752262018E+02 -0.84402073829E+03  0.85994885404E+03  0.00000000000E+00 0. -1.
        -11    1    3    3    0    0  0.14418674271E+03  0.23657661996E+03 -0.11999669757E+04  0.12315352437E+04  0.00000000000E+00 0.  1.
         22    1    1    2    0    0 -0.27752850175E+03 -0.33332888198E+03  0.41776772221E+03  0.60221265560E+03  0.00000000000E+00 0.  1.
<mgrwt>
<rscale>  0 0.21474196E+04</rscale>
<asrwt>0</asrwt>
<pdfrwt beam="1">  1        2 0.33230129E+00 0.21474196E+04</pdfrwt>
<pdfrwt beam="2">  1       -2 0.82113595E-01 0.21474196E+04</pdfrwt>
<totfact> 0.65059153E+00</totfact>
</mgrwt>
</event>
<event>
 6    1  0.1885829E-005  0.3508350E+04  0.7818608E-02  0.8111814E-01
         -2   -1    0    0    0  501 -0.00000000000E+00  0.00000000000E+00  0.10087435985E+04  0.10087435985E+04  0.00000000000E+00 0.  1.
          2   -1    0    0  501    0  0.00000000000E+00 -0.00000000000E+00 -0.30504584493E+04  0.30504584493E+04  0.00000000000E+00 0. -1.
         23    2    1    2    0    0 -0.49119174671E+03  0.16751774929E+04 -0.12034719444E+04  0.21226741924E+04  0.99559235042E+02 0.  0.
         11    1    3    3    0    0 -0.19287924406E+03  0.51675676691E+03 -0.40885520444E+03  0.68658760339E+03  0.00000000000E+00 0. -1.
        -11    1    3    3    0    0 -0.29831250265E+03  0.11584207260E+04 -0.79461673997E+03  0.14360865890E+04  0.00000000000E+00 0.  1.
         22    1    1    2    0    0  0.49119174671E+03 -0.16751774929E+04 -0.83824290635E+03  0.19365278554E+04  0.00000000000E+00 0.  1.
<mgrwt>
<rscale>  0 0.35083503E+04</rscale>
<asrwt>0</asrwt>
<pdfrwt beam="1">  1        2 0.46930130E+00 0.35083503E+04</pdfrwt>
<pdfrwt beam="2">  1       -2 0.15519132E+00 0.35083503E+04</pdfrwt>
<totfact> 0.36328809E-01</totfact>
</mgrwt>
</event>
<event>
 6    1  0.1885829E-005  0.9231318E+03  0.7818608E-02  0.9397119E-01
         -2   -1    0    0    0  501 -0.00000000000E+00  0.00000000000E+00  0.27857577577E+03  0.27857577577E+03  0.00000000000E+00 0.  1.
          2   -1    0    0  501    0  0.00000000000E+00 -0.00000000000E+00 -0.76475811153E+03  0.76475811153E+03  0.00000000000E+00 0. -1.
         23    2    1    2    0    0 -0.37890332615E+03  0.19496013266E+03 -0.58477888917E+02  0.43958867800E+03  0.90781927943E+02 0.  0.
         13    1    3    3    0    0 -0.48876980105E+02  0.17755621500E+01  0.12881981694E+02  0.50577240508E+02  0.00000000000E+00 0.  1.
        -13    1    3    3    0    0 -0.33002634604E+03  0.19318457051E+03 -0.71359870611E+02  0.38901143749E+03  0.00000000000E+00 0. -1.
         22    1    1    2    0    0  0.37890332615E+03 -0.19496013266E+03 -0.42770444684E+03  0.60374520929E+03  0.00000000000E+00 0. -1.
<mgrwt>
<rscale>  0 0.92313181E+03</rscale>
<asrwt>0</asrwt>
<pdfrwt beam="1">  1        2 0.11765509E+00 0.92313181E+03</pdfrwt>
<pdfrwt beam="2">  1       -2 0.42857812E-01 0.92313181E+03</pdfrwt>
<totfact> 0.18899743E+02</totfact>
</mgrwt>
</event>
<event>
 6    1  0.1885829E-005  0.1689126E+04  0.7818608E-02  0.8767591E-01
         -2   -1    0    0    0  501 -0.00000000000E+00  0.00000000000E+00  0.24756360537E+03  0.24756360537E+03  0.00000000000E+00 0.  1.
          2   -1    0    0  501    0  0.00000000000E+00 -0.00000000000E+00 -0.28812244328E+04  0.28812244328E+04  0.00000000000E+00 0. -1.
         23    2    1    2    0    0 -0.46597440653E+03 -0.65461561065E+03 -0.85397742546E+03  0.11761163411E+04  0.91205588630E+02 0.  0.
         11    1    3    3    0    0 -0.13026709068E+03 -0.22887590874E+03 -0.32909172979E+03  0.42149147457E+03  0.00000000000E+00 0.  1.
        -11    1    3    3    0    0 -0.33570731584E+03 -0.42573970191E+03 -0.52488569567E+03  0.75462486654E+03  0.00000000000E+00 0. -1.
         22    1    1    2    0    0  0.46597440653E+03  0.65461561065E+03 -0.17796834020E+04  0.19526716971E+04  0.00000000000E+00 0. -1.
<mgrwt>
<rscale>  0 0.16891256E+04</rscale>
<asrwt>0</asrwt>
<pdfrwt beam="1">  1        2 0.44326529E+00 0.16891256E+04</pdfrwt>
<pdfrwt beam="2">  1       -2 0.38086709E-01 0.16891256E+04</pdfrwt>
<totfact> 0.12839224E+01</totfact>
</mgrwt>
</event>
<event>
 6    1  0.1885829E-005  0.2924524E+04  0.7818608E-02  0.8265618E-01
          2   -1    0    0  501    0  0.00000000000E+00  0.00000000000E+00  0.17940845401E+04  0.17940845401E+04  0.00000000000E+00 0. -1.
         -2   -1    0    0    0  501 -0.00000000000E+00 -0.00000000000E+00 -0.11918113208E+04  0.11918113208E+04  0.00000000000E+00 0.  1.
         23    2    1    2    0    0 -0.60735061101E+03  0.23052837685E+03  0.16372596056E+04  0.17639241276E+04  0.93761478464E+02 0.  0.
         11    1    3    3    0    0 -0.31063893834E+03  0.79514816817E+02  0.88439258922E+03  0.94072812649E+03  0.00000000000E+00 0. -1.
        -11    1    3    3    0    0 -0.29671167267E+03  0.15101356003E+03  0.75286701634E+03  0.82319600115E+03  0.00000000000E+00 0.  1.
         22    1    1    2    0    0  0.60735061101E+03 -0.23052837685E+03 -0.10349863863E+04  0.12219717333E+04  0.00000000000E+00 0.  1.
<mgrwt>
<rscale>  0 0.29245241E+04</rscale>
<asrwt>0</asrwt>
<pdfrwt beam="1">  1        2 0.27601300E+00 0.29245241E+04</pdfrwt>
<pdfrwt beam="2">  1       -2 0.18335559E+00 0.29245241E+04</pdfrwt>
<totfact> 0.12877732E+00</totfact>
</mgrwt>
</event>
<event>
 6    1  0.1885829E-005  0.3376537E+04  0.7818608E-02  0.8143689E-01
          2   -1    0    0  501    0  0.00000000000E+00  0.00000000000E+00  0.36996377913E+04  0.36996377913E+04  0.00000000000E+00 0. -1.
         -2   -1    0    0    0  501 -0.00000000000E+00 -0.00000000000E+00 -0.77041353303E+03  0.77041353303E+03  0.00000000000E+00 0.  1.
         23    2    1    2    0    0  0.11535446146E+04 -0.29656968521E+03 -0.11625933344E+03  0.11999459647E+04  0.87950722361E+02 0.  0.
         13    1    3    3    0    0  0.70428679753E+03 -0.22491711563E+03 -0.76471049085E+02  0.74327345131E+03  0.00000000000E+00 0. -1.
        -13    1    3    3    0    0  0.44925781702E+03 -0.71652569585E+02 -0.39788284357E+02  0.45667251336E+03  0.00000000000E+00 0.  1.
         22    1    1    2    0    0 -0.11535446146E+04  0.29656968521E+03  0.30454835917E+04  0.32701053597E+04  0.00000000000E+00 0. -1.
<mgrwt>
<rscale>  0 0.33765373E+04</rscale>
<asrwt>0</asrwt>
<pdfrwt beam="1">  1        2 0.56917503E+00 0.33765373E+04</pdfrwt>
<pdfrwt beam="2">  1       -2 0.11852516E+00 0.33765373E+04</pdfrwt>
<totfact> 0.26496987E-01</totfact>
</mgrwt>
</event>
<event>
 6    1  0.1885829E-005  0.1306611E+04  0.7818608E-02  0.9024339E-01
          2   -1    0    0  501    0  0.00000000000E+00  0.00000000000E+00  0.80816567741E+03  0.80816567741E+03  0.00000000000E+00 0.  1.
         -2   -1    0    0    0  501 -0.00000000000E+00 -0.00000000000E+00 -0.52811924862E+03  0.52811924862E+03  0.00000000000E+00 0. -1.
         23    2    1    2    0    0  0.45214274749E+03  0.18473302418E+03  0.57954316700E+03  0.76334718899E+03  0.90935659663E+02 0.  0.
         13    1    3    3    0    0  0.23729216435E+03  0.10589226565E+03  0.23899625108E+03  0.35304383753E+03  0.00000000000E+00 0. -1.
        -13    1    3    3    0    0  0.21485058314E+03  0.78840758530E+02  0.34054691592E+03  0.41030335147E+03  0.00000000000E+00 0.  1.
         22    1    1    2    0    0 -0.45214274749E+03 -0.18473302418E+03 -0.29949673820E+03  0.57293773704E+03  0.00000000000E+00 0. -1.
<mgrwt>
<rscale>  0 0.13066107E+04</rscale>
<asrwt>0</asrwt>
<pdfrwt beam="1">  1        2 0.12433318E+00 0.13066107E+04</pdfrwt>
<pdfrwt beam="2">  1       -2 0.81249115E-01 0.13066107E+04</pdfrwt>
<totfact> 0.44459013E+01</totfact>
</mgrwt>
</event>
<event>
 6    1  0.1885829E-005  0.2368055E+04  0.7818608E-02  0.8451561E-01
         -2   -1    0    0    0  501 -0.00000000000E+00  0.00000000000E+00  0.73665815550E+03  0.73665815550E+03  0.00000000000E+00 0.  1.
          2   -1    0    0  501    0  0.00000000000E+00 -0.00000000000E+00 -0.19030817236E+04  0.19030817236E+04  0.00000000000E+00 0. -1.
         23    2    1    2    0    0  0.51089296501E+03 -0.90433274843E+03 -0.12136596440E+04  0.15999992440E+04  0.90545610756E+02 0.  0.
         13    1    3    3    0    0  0.19042794491E+03 -0.30626672055E+03 -0.48437385685E+03  0.60388752224E+03  0.00000000000E+00 0.  1.
        -13    1    3    3    0    0  0.32046502010E+03 -0.59806602788E+03 -0.72928578714E+03  0.99611172172E+03  0.00000000000E+00 0. -1.
         22    1    1    2    0    0 -0.51089296501E+03  0.90433274843E+03  0.47236075861E+02  0.10397406352E+04  0.00000000000E+00 0.  1.
<mgrwt>
<rscale>  0 0.23680546E+04</rscale>
<asrwt>0</asrwt>
<pdfrwt beam="1">  1        2 0.29278180E+00 0.23680546E+04</pdfrwt>
<pdfrwt beam="2">  1       -2 0.11333202E+00 0.23680546E+04</pdfrwt>
<totfact> 0.41669789E+00</totfact>
</mgrwt>
</event>
<event>
 6    1  0.1885829E-005  0.3185434E+04  0.7818608E-02  0.8192675E-01
          1   -1    0    0  501    0  0.00000000000E+00  0.00000000000E+00  0.20542156049E+04  0.20542156049E+04  0.00000000000E+00 0.  1.
         -1   -1    0    0    0  501 -0.00000000000E+00 -0.00000000000E+00 -0.12348986287E+04  0.12348986287E+04  0.00000000000E+00 0. -1.
         23    2    1    2    0    0  0.67289528594E+02 -0.13406648889E+04 -0.47253458942E+03  0.14261084117E+04  0.92660881191E+02 0.  0.
         11    1    3    3    0    0  0.73177047159E+02 -0.54868601621E+03 -0.19323828156E+03  0.58630389566E+03  0.00000000000E+00 0. -1.
        -11    1    3    3    0    0 -0.58875185648E+01 -0.79197887267E+03 -0.27929630786E+03  0.83980451607E+03  0.00000000000E+00 0.  1.
         22    1    1    2    0    0 -0.67289528594E+02  0.13406648889E+04  0.12918515656E+04  0.18630058219E+04  0.00000000000E+00 0.  1.
<mgrwt>
<rscale>  0 0.31854344E+04</rscale>
<asrwt>0</asrwt>
<pdfrwt beam="1">  1        1 0.31603317E+00 0.31854344E+04</pdfrwt>
<pdfrwt beam="2">  1       -1 0.18998440E+00 0.31854344E+04</pdfrwt>
<totfact> 0.40535121E-01</totfact>
</mgrwt>
</event>
<event>
 6    1  0.1885829E-005  0.1705298E+04  0.7818608E-02  0.8758348E-01
         -2   -1    0    0    0  501 -0.00000000000E+00  0.00000000000E+00  0.35902299591E+03  0.35902299591E+03  0.00000000000E+00 0.  1.
          2   -1    0    0  501    0  0.00000000000E+00 -0.00000000000E+00 -0.20249688440E+04  0.20249688440E+04  0.00000000000E+00 0. -1.
         23    2    1    2    0    0 -0.37337477400E+03 -0.75910470312E+03 -0.71712101474E+03  0.11128045065E+04  0.91774984880E+02 0.  0.
         11    1    3    3    0    0 -0.32868816599E+03 -0.61889120849E+03 -0.55554027543E+03  0.89425233354E+03  0.00000000000E+00 0.  1.
        -11    1    3    3    0    0 -0.44686608009E+02 -0.14021349462E+03 -0.16158073931E+03  0.21855217301E+03  0.00000000000E+00 0. -1.
         22    1    1    2    0    0  0.37337477400E+03  0.75910470312E+03 -0.94882483340E+03  0.12711873334E+04  0.00000000000E+00 0.  1.
<mgrwt>
<rscale>  0 0.17052981E+04</rscale>
<asrwt>0</asrwt>
<pdfrwt beam="1">  1        2 0.31153366E+00 0.17052981E+04</pdfrwt>
<pdfrwt beam="2">  1       -2 0.55234309E-01 0.17052981E+04</pdfrwt>
<totfact> 0.18968546E+01</totfact>
</mgrwt>
</event>
<event>
 6    1  0.1885829E-005  0.2617659E+04  0.7818608E-02  0.8362227E-01
          1   -1    0    0  501    0  0.00000000000E+00  0.00000000000E+00  0.99611650017E+03  0.99611650017E+03  0.00000000000E+00 0. -1.
         -1   -1    0    0    0  501 -0.00000000000E+00 -0.00000000000E+00 -0.17197137581E+04  0.17197137581E+04  0.00000000000E+00 0.  1.
         23    2    1    2    0    0 -0.92143544973E+03  0.40215218690E+03  0.50435936684E+03  0.11288056391E+04  0.95153194983E+02 0.  0.
         11    1    3    3    0    0 -0.48788160193E+03  0.16464905599E+03  0.27681505988E+03  0.58460614649E+03  0.00000000000E+00 0. -1.
        -11    1    3    3    0    0 -0.43355384780E+03  0.23750313091E+03  0.22754430697E+03  0.54419949262E+03  0.00000000000E+00 0.  1.
         22    1    1    2    0    0  0.92143544973E+03 -0.40215218690E+03 -0.12279566248E+04  0.15870246191E+04  0.00000000000E+00 0.  1.
<mgrwt>
<rscale>  0 0.26176595E+04</rscale>
<asrwt>0</asrwt>
<pdfrwt beam="1">  1        1 0.15324869E+00 0.26176595E+04</pdfrwt>
<pdfrwt beam="2">  1       -1 0.26457135E+00 0.26176595E+04</pdfrwt>
<totfact> 0.75083007E-01</totfact>
</mgrwt>
</event>
<event>
 6    1  0.1885829E-005  0.1504208E+04  0.7818608E-02  0.8881660E-01
         -2   -1    0    0    0  501 -0.00000000000E+00  0.00000000000E+00  0.71174574642E+03  0.71174574642E+03  0.00000000000E+00 0.  1.
          2   -1    0    0  501    0  0.00000000000E+00 -0.00000000000E+00 -0.79475021386E+03  0.79475021386E+03  0.00000000000E+00 0. -1.
         23    2    1    2    0    0  0.44807593021E+03  0.11415982465E+03 -0.63192586947E+03  0.78877790254E+03  0.95056668548E+02 0.  0.
         13    1    3    3    0    0  0.40175708453E+03  0.95555864884E+02 -0.50476642894E+03  0.65217238984E+03  0.00000000000E+00 0. -1.
        -13    1    3    3    0    0  0.46318845673E+02  0.18603959766E+02 -0.12715944054E+03  0.13660551270E+03  0.00000000000E+00 0.  1.
         22    1    1    2    0    0 -0.44807593021E+03 -0.11415982465E+03  0.54892140204E+03  0.71771805774E+03  0.00000000000E+00 0.  1.
<mgrwt>
<rscale>  0 0.15042075E+04</rscale>
<asrwt>0</asrwt>
<pdfrwt beam="1">  1        2 0.12226926E+00 0.15042075E+04</pdfrwt>
<pdfrwt beam="2">  1       -2 0.10949935E+00 0.15042075E+04</pdfrwt>
<totfact> 0.22299522E+01</totfact>
</mgrwt>
</event>
<event>
 6    1  0.1885829E-005  0.1661899E+04  0.7818608E-02  0.8783398E-01
         -2   -1    0    0    0  501 -0.00000000000E+00  0.00000000000E+00  0.62748534783E+03  0.62748534783E+03  0.00000000000E+00 0.  1.
          2   -1    0    0  501    0  0.00000000000E+00 -0.00000000000E+00 -0.11003874456E+04  0.11003874456E+04  0.00000000000E+00 0. -1.
         23    2    1    2    0    0  0.45096363025E+03 -0.12178902617E+03  0.47199721033E+03  0.67381612269E+03  0.11421925378E+03 0.  0.
         13    1    3    3    0    0  0.31972954039E+03 -0.11336928363E+03  0.27371435017E+03  0.43588888373E+03  0.00000000000E+00 0. -1.
        -13    1    3    3    0    0  0.13123408985E+03 -0.84197425418E+01  0.19828286016E+03  0.23792723896E+03  0.00000000000E+00 0.  1.
         22    1    1    2    0    0 -0.45096363025E+03  0.12178902617E+03 -0.94489930814E+03  0.10540566708E+04  0.00000000000E+00 0. -1.
<mgrwt>
<rscale>  0 0.16618989E+04</rscale>
<asrwt>0</asrwt>
<pdfrwt beam="1">  1        2 0.16929038E+00 0.16618989E+04</pdfrwt>
<pdfrwt beam="2">  1       -2 0.96536207E-01 0.16618989E+04</pdfrwt>
<totfact> 0.18656709E+01</totfact>
</mgrwt>
</event>
<event>
 6    1  0.1885829E-005  0.2271889E+04  0.7818608E-02  0.8489088E-01
          2   -1    0    0  501    0  0.00000000000E+00  0.00000000000E+00  0.14039584115E+04  0.14039584115E+04  0.00000000000E+00 0. -1.
         -2   -1    0    0    0  501 -0.00000000000E+00 -0.00000000000E+00 -0.91909447868E+03  0.91909447868E+03  0.00000000000E+00 0.  1.
         23    2    1    2    0    0  0.10334849834E+04 -0.69792706425E+02 -0.22933740253E+03  0.10648614182E+04  0.91498430547E+02 0.  0.
         13    1    3    3    0    0  0.42025331494E+03 -0.37845214722E+02 -0.48548044470E+02  0.42473759148E+03  0.00000000000E+00 0. -1.
        -13    1    3    3    0    0  0.61323166851E+03 -0.31947491703E+02 -0.18078935806E+03  0.64012382667E+03  0.00000000000E+00 0.  1.
         22    1    1    2    0    0 -0.10334849834E+04  0.69792706425E+02  0.71420133537E+03  0.12581914720E+04  0.00000000000E+00 0.  1.
<mgrwt>
<rscale>  0 0.22718895E+04</rscale>
<asrwt>0</asrwt>
<pdfrwt beam="1">  1        2 0.21599360E+00 0.22718895E+04</pdfrwt>
<pdfrwt beam="2">  1       -2 0.14139915E+00 0.22718895E+04</pdfrwt>
<totfact> 0.45787972E+00</totfact>
</mgrwt>
</event>
<event>
 6    1  0.1885829E-005  0.3368471E+04  0.7818608E-02  0.8145688E-01
          2   -1    0    0  501    0  0.00000000000E+00  0.00000000000E+00  0.74355170814E+03  0.74355170814E+03  0.00000000000E+00 0. -1.
         -2   -1    0    0    0  501 -0.00000000000E+00 -0.00000000000E+00 -0.38149982570E+04  0.38149982570E+04  0.00000000000E+00 0.  1.
         23    2    1    2    0    0 -0.17100302208E+03  0.45131683168E+02 -0.38018819936E+04  0.38070083220E+04  0.87902036348E+02 0.  0.
         11    1    3    3    0    0 -0.43529750264E+02  0.32625617482E+02 -0.19210401782E+04  0.19218102498E+04  0.00000000000E+00 0. -1.
        -11    1    3    3    0    0 -0.12747327182E+03  0.12506065687E+02 -0.18808418154E+04  0.18851980721E+04  0.00000000000E+00 0.  1.
         22    1    1    2    0    0  0.17100302208E+03 -0.45131683168E+02  0.73043544476E+03  0.75154164313E+03  0.00000000000E+00 0. -1.
<mgrwt>
<rscale>  0 0.33684706E+04</rscale>
<asrwt>0</asrwt>
<pdfrwt beam="1">  1        2 0.11439257E+00 0.33684706E+04</pdfrwt>
<pdfrwt beam="2">  1       -2 0.58692281E+00 0.33684706E+04</pdfrwt>
<totfact> 0.17934340E-02</totfact>
</mgrwt>
</event>
<event>
 6    1  0.1885829E-005  0.3235308E+04  0.7818608E-02  0.8179554E-01
          2   -1    0    0  501    0  0.00000000000E+00  0.00000000000E+00  0.29331052229E+04  0.29331052229E+04  0.00000000000E+00 0. -1.
         -2   -1    0    0    0  501 -0.00000000000E+00 -0.00000000000E+00 -0.89216177318E+03  0.89216177318E+03  0.00000000000E+00 0.  1.
         23    2    1    2    0    0  0.10481918692E+04 -0.30048494966E+03  0.24320542775E+04  0.26668348318E+04  0.90125531408E+02 0.  0.
         13    1    3    3    0    0  0.78914467099E+03 -0.19175201864E+03  0.18575881211E+04  0.20273509258E+04  0.00000000000E+00 0. -1.
        -13    1    3    3    0    0  0.25904719822E+03 -0.10873293102E+03  0.57446615639E+03  0.63948390600E+03  0.00000000000E+00 0.  1.
         22    1    1    2    0    0 -0.10481918692E+04  0.30048494966E+03 -0.39111082782E+03  0.11584321643E+04  0.00000000000E+00 0.  1.
<mgrwt>
<rscale>  0 0.32353079E+04</rscale>
<asrwt>0</asrwt>
<pdfrwt beam="1">  1        2 0.45124695E+00 0.32353079E+04</pdfrwt>
<pdfrwt beam="2">  1       -2 0.13725566E+00 0.32353079E+04</pdfrwt>
<totfact> 0.60803911E-01</totfact>
</mgrwt>
</event>
<event>
 6    1  0.1885829E-005  0.2692710E+04  0.7818608E-02  0.8337374E-01
         -2   -1    0    0    0  501 -0.00000000000E+00  0.00000000000E+00  0.14641110494E+04  0.14641110494E+04  0.00000000000E+00 0.  1.
          2   -1    0    0  501    0  0.00000000000E+00 -0.00000000000E+00 -0.12380696736E+04  0.12380696736E+04  0.00000000000E+00 0. -1.
         23    2    1    2    0    0  0.78160879073E+03  0.29053074905E+03 -0.94581887088E+03  0.12639259279E+04  0.87263949041E+02 0.  0.
         13    1    3    3    0    0  0.60648908661E+02  0.36992362518E+02 -0.52675803314E+02  0.88439048283E+02  0.00000000000E+00 0. -1.
        -13    1    3    3    0    0  0.72095988206E+03  0.25353838653E+03 -0.89314306757E+03  0.11754868796E+04  0.00000000000E+00 0.  1.
         22    1    1    2    0    0 -0.78160879073E+03 -0.29053074905E+03  0.11718602467E+04  0.14382547951E+04  0.00000000000E+00 0.  1.
<mgrwt>
<rscale>  0 0.26927098E+04</rscale>
<asrwt>0</asrwt>
<pdfrwt beam="1">  1        2 0.19047226E+00 0.26927098E+04</pdfrwt>
<pdfrwt beam="2">  1       -2 0.22524785E+00 0.26927098E+04</pdfrwt>
<totfact> 0.14451284E+00</totfact>
</mgrwt>
</event>
<event>
 6    1  0.1885829E-005  0.1019898E+04  0.7818608E-02  0.9286986E-01
          2   -1    0    0  501    0  0.00000000000E+00  0.00000000000E+00  0.47844270732E+03  0.47844270732E+03  0.00000000000E+00 0. -1.
         -2   -1    0    0    0  501 -0.00000000000E+00 -0.00000000000E+00 -0.54353032579E+03  0.54353032579E+03  0.00000000000E+00 0.  1.
         23    2    1    2    0    0 -0.35015716079E+03 -0.31698188224E+03  0.14950149660E+03  0.50318980358E+03  0.88100681134E+02 0.  0.
         13    1    3    3    0    0 -0.18627472676E+03 -0.22647771619E+03  0.93132455440E+02  0.30767528990E+03  0.00000000000E+00 0.  1.
        -13    1    3    3    0    0 -0.16388243404E+03 -0.90504166058E+02  0.56369041165E+02  0.19551451368E+03  0.00000000000E+00 0. -1.
         22    1    1    2    0    0  0.35015716079E+03  0.31698188224E+03 -0.21458911508E+03  0.51878322952E+03  0.00000000000E+00 0.  1.
<mgrwt>
<rscale>  0 0.10198983E+04</rscale>
<asrwt>0</asrwt>
<pdfrwt beam="1">  1        2 0.73606571E-01 0.10198983E+04</pdfrwt>
<pdfrwt beam="2">  1       -2 0.83620050E-01 0.10198983E+04</pdfrwt>
<totfact> 0.80893825E+01</totfact>
</mgrwt>
</event>
<event>
 6    1  0.1885829E-005  0.1018979E+04  0.7818608E-02  0.9287971E-01
          2   -1    0    0  501    0  0.00000000000E+00  0.00000000000E+00  0.41613515410E+03  0.41613515410E+03  0.00000000000E+00 0.  1.
         -2   -1    0    0    0  501 -0.00000000000E+00 -0.00000000000E+00 -0.62378628021E+03  0.62378628021E+03  0.00000000000E+00 0. -1.
         23    2    1    2    0    0 -0.26799107989E+03 -0.38533358228E+03 -0.29605398777E+03  0.56230626027E+03  0.90769918658E+02 0.  0.
         13    1    3    3    0    0 -0.11616682956E+03 -0.10922858022E+03 -0.68032221536E+02  0.17336089004E+03  0.00000000000E+00 0.  1.
        -13    1    3    3    0    0 -0.15182425032E+03 -0.27610500206E+03 -0.22802176623E+03  0.38894537023E+03  0.00000000000E+00 0. -1.
         22    1    1    2    0    0  0.26799107989E+03  0.38533358228E+03  0.88402861665E+02  0.47761517405E+03  0.00000000000E+00 0.  1.
<mgrwt>
<rscale>  0 0.10189787E+04</rscale>
<asrwt>0</asrwt>
<pdfrwt beam="1">  1        2 0.64020793E-01 0.10189787E+04</pdfrwt>
<pdfrwt beam="2">  1       -2 0.95967121E-01 0.10189787E+04</pdfrwt>
<totfact> 0.69051088E+01</totfact>
</mgrwt>
</event>
<event>
 6    1  0.1885829E-005  0.1376806E+04  0.7818608E-02  0.8970781E-01
          2   -1    0    0  501    0  0.00000000000E+00  0.00000000000E+00  0.12973299092E+04  0.12973299092E+04  0.00000000000E+00 0. -1.
         -2   -1    0    0    0  501 -0.00000000000E+00 -0.00000000000E+00 -0.36528751781E+03  0.36528751781E+03  0.00000000000E+00 0.  1.
         23    2    1    2    0    0 -0.22676588322E+03 -0.52493669800E+03  0.92371363383E+03  0.10907339853E+04  0.97326494849E+02 0.  0.
         11    1    3    3    0    0 -0.20883855962E+03 -0.37662555545E+03  0.68769419118E+03  0.81140843820E+03  0.00000000000E+00 0. -1.
        -11    1    3    3    0    0 -0.17927323598E+02 -0.14831114255E+03  0.23601944265E+03  0.27932554707E+03  0.00000000000E+00 0.  1.
         22    1    1    2    0    0  0.22676588322E+03  0.52493669800E+03  0.83287575332E+01  0.57188344171E+03  0.00000000000E+00 0.  1.
<mgrwt>
<rscale>  0 0.13768056E+04</rscale>
<asrwt>0</asrwt>
<pdfrwt beam="1">  1        2 0.19958921E+00 0.13768056E+04</pdfrwt>
<pdfrwt beam="2">  1       -2 0.56198080E-01 0.13768056E+04</pdfrwt>
<totfact> 0.48070843E+01</totfact>
</mgrwt>
</event>
<event>
 6    1  0.1885829E-005  0.1807299E+04  0.7818608E-02  0.8702427E-01
         -2   -1    0    0    0  501 -0.00000000000E+00  0.00000000000E+00  0.55642166603E+03  0.55642166603E+03  0.00000000000E+00 0.  1.
          2   -1    0    0  501    0  0.00000000000E+00 -0.00000000000E+00 -0.14675608196E+04  0.14675608196E+04  0.00000000000E+00 0. -1.
         23    2    1    2    0    0  0.31921693158E+03  0.53848570477E+03 -0.11829821485E+04  0.13415127664E+04  0.91342405871E+02 0.  0.
         13    1    3    3    0    0  0.15060600026E+03  0.19609958770E+03 -0.53745797819E+03  0.59160653642E+03  0.00000000000E+00 0.  1.
        -13    1    3    3    0    0  0.16861093132E+03  0.34238611707E+03 -0.64552417033E+03  0.74990623000E+03  0.00000000000E+00 0. -1.
         22    1    1    2    0    0 -0.31921693158E+03 -0.53848570477E+03  0.27184299499E+03  0.68246971916E+03  0.00000000000E+00 0.  1.
<mgrwt>
<rscale>  0 0.18072992E+04</rscale>
<asrwt>0</asrwt>
<pdfrwt beam="1">  1        2 0.22577859E+00 0.18072992E+04</pdfrwt>
<pdfrwt beam="2">  1       -2 0.85603334E-01 0.18072992E+04</pdfrwt>
<totfact> 0.14814173E+01</totfact>
</mgrwt>
</event>
<event>
 6    1  0.1885829E-005  0.3322275E+04  0.7818608E-02  0.8157251E-01
          2   -1    0    0  501    0  0.00000000000E+00  0.00000000000E+00  0.21503039002E+04  0.21503039002E+04  0.00000000000E+00 0. -1.
         -2   -1    0    0    0  501 -0.00000000000E+00 -0.00000000000E+00 -0.12832499459E+04  0.12832499459E+04  0.00000000000E+00 0.  1.
         23    2    1    2    0    0 -0.87729965423E+03 -0.13189669562E+04 -0.78440456381E+02  0.15887535330E+04  0.93039607520E+02 0.  0.
         13    1    3    3    0    0 -0.16086686279E+03 -0.18178207687E+03 -0.86344449819E+01  0.24289385471E+03  0.00000000000E+00 0. -1.
        -13    1    3    3    0    0 -0.71643279144E+03 -0.11371848793E+04 -0.69806011399E+02  0.13458596783E+04  0.00000000000E+00 0.  1.
         22    1    1    2    0    0  0.87729965423E+03  0.13189669562E+04  0.94549441062E+03  0.18448003131E+04  0.00000000000E+00 0. -1.
<mgrwt>
<rscale>  0 0.33222747E+04</rscale>
<asrwt>0</asrwt>
<pdfrwt beam="1">  1        2 0.33081598E+00 0.33222747E+04</pdfrwt>
<pdfrwt beam="2">  1       -2 0.19742307E+00 0.33222747E+04</pdfrwt>
<totfact> 0.63497817E-01</totfact>
</mgrwt>
</event>
<event>
 6    1  0.1885829E-005  0.2182416E+04  0.7818608E-02  0.8525783E-01
         -2   -1    0    0    0  501 -0.00000000000E+00  0.00000000000E+00  0.67350479396E+03  0.67350479396E+03  0.00000000000E+00 0.  1.
          2   -1    0    0  501    0  0.00000000000E+00 -0.00000000000E+00 -0.17679681030E+04  0.17679681030E+04  0.00000000000E+00 0. -1.
         23    2    1    2    0    0  0.44903711337E+02  0.64726134392E+03  0.43058442775E+03  0.78414547303E+03  0.92290751545E+02 0.  0.
         11    1    3    3    0    0 -0.10160095401E+02  0.34561273416E+03  0.26519998449E+03  0.43575500149E+03  0.00000000000E+00 0.  1.
        -11    1    3    3    0    0  0.55063806738E+02  0.30164860977E+03  0.16538444326E+03  0.34839047154E+03  0.00000000000E+00 0. -1.
         22    1    1    2    0    0 -0.44903711337E+02 -0.64726134392E+03 -0.15250477368E+04  0.16573274239E+04  0.00000000000E+00 0. -1.
<mgrwt>
<rscale>  0 0.21824161E+04</rscale>
<asrwt>0</asrwt>
<pdfrwt beam="1">  1        2 0.27199509E+00 0.21824161E+04</pdfrwt>
<pdfrwt beam="2">  1       -2 0.10361612E+00 0.21824161E+04</pdfrwt>
<totfact> 0.62446369E+00</totfact>
</mgrwt>
</event>
<event>
 6    1  0.1885829E-005  0.1685981E+04  0.7818608E-02  0.8769401E-01
         -1   -1    0    0    0  501 -0.00000000000E+00  0.00000000000E+00  0.55311535078E+03  0.55311535078E+03  0.00000000000E+00 0.  1.
          1   -1    0    0  501    0  0.00000000000E+00 -0.00000000000E+00 -0.12847821604E+04  0.12847821604E+04  0.00000000000E+00 0. -1.
         23    2    1    2    0    0 -0.35170392353E+03 -0.49505311278E+02  0.46351945666E+03  0.59105484396E+03  0.91373498290E+02 0.  0.
         11    1    3    3    0    0 -0.29318544360E+03 -0.80055003051E+01  0.39378113755E+03  0.49100445687E+03  0.00000000000E+00 0.  1.
        -11    1    3    3    0    0 -0.58518479936E+02 -0.41499810973E+02  0.69738319112E+02  0.10005038709E+03  0.00000000000E+00 0. -1.
         22    1    1    2    0    0  0.35170392353E+03  0.49505311278E+02 -0.11951862663E+04  0.12468426672E+04  0.00000000000E+00 0. -1.
<mgrwt>
<rscale>  0 0.16859807E+04</rscale>
<asrwt>0</asrwt>
<pdfrwt beam="1">  1        1 0.19765879E+00 0.16859807E+04</pdfrwt>
<pdfrwt beam="2">  1       -1 0.85094670E-01 0.16859807E+04</pdfrwt>
<totfact> 0.12070404E+01</totfact>
</mgrwt>
</event>
<event>
 6    1  0.1885829E-005  0.1303812E+04  0.7818608E-02  0.9026548E-01
         -2   -1    0    0    0  501 -0.00000000000E+00  0.00000000000E+00  0.20471387486E+03  0.20471387486E+03  0.00000000000E+00 0.  1.
          2   -1    0    0  501    0  0.00000000000E+00 -0.00000000000E+00 -0.20759760826E+04  0.20759760826E+04  0.00000000000E+00 0. -1.
         23    2    1    2    0    0  0.53961351000E+03 -0.30806627138E+03 -0.61458768999E+03  0.87879181162E+03  0.92029624312E+02 0.  0.
         13    1    3    3    0    0  0.29519753517E+03 -0.20252693622E+03 -0.40037064183E+03  0.53708043672E+03  0.00000000000E+00 0.  1.
        -13    1    3    3    0    0  0.24441597482E+03 -0.10553933516E+03 -0.21421704816E+03  0.34171137490E+03  0.00000000000E+00 0. -1.
         22    1    1    2    0    0 -0.53961351000E+03  0.30806627138E+03 -0.12566745178E+04  0.14018981458E+04  0.00000000000E+00 0. -1.
<mgrwt>
<rscale>  0 0.13038115E+04</rscale>
<asrwt>0</asrwt>
<pdfrwt beam="1">  1        2 0.31938095E+00 0.13038115E+04</pdfrwt>
<pdfrwt beam="2">  1       -2 0.31494441E-01 0.13038115E+04</pdfrwt>
<totfact> 0.55662733E+01</totfact>
</mgrwt>
</event>
<event>
 6    1  0.1885829E-005  0.2360858E+04  0.7818608E-02  0.8454305E-01
         -2   -1    0    0    0  501 -0.00000000000E+00  0.00000000000E+00  0.57055719572E+03  0.57055719572E+03  0.00000000000E+00 0.  1.
          2   -1    0    0  501    0  0.00000000000E+00 -0.00000000000E+00 -0.24421953477E+04  0.24421953477E+04  0.00000000000E+00 0. -1.
         23    2    1    2    0    0  0.85182137872E+03 -0.47069064667E+03 -0.17858623114E+04  0.20357638838E+04  0.88775273408E+02 0.  0.
         11    1    3    3    0    0  0.53790852243E+03 -0.24775105147E+03 -0.10870448883E+04  0.12378985222E+04  0.00000000000E+00 0.  1.
        -11    1    3    3    0    0  0.31391285629E+03 -0.22293959520E+03 -0.69881742315E+03  0.79786536167E+03  0.00000000000E+00 0. -1.
         22    1    1    2    0    0 -0.85182137872E+03  0.47069064667E+03 -0.85775840502E+02  0.97698865956E+03  0.00000000000E+00 0.  1.
<mgrwt>
<rscale>  0 0.23608576E+04</rscale>
<asrwt>0</asrwt>
<pdfrwt beam="1">  1        2 0.37572236E+00 0.23608576E+04</pdfrwt>
<pdfrwt beam="2">  1       -2 0.87778031E-01 0.23608576E+04</pdfrwt>
<totfact> 0.37962193E+00</totfact>
</mgrwt>
</event>
<event>
 6    1  0.1885829E-005  0.3882426E+04  0.7818608E-02  0.8028694E-01
         -2   -1    0    0    0  501 -0.00000000000E+00  0.00000000000E+00  0.15629065569E+04  0.15629065569E+04  0.00000000000E+00 0.  1.
          2   -1    0    0  501    0  0.00000000000E+00 -0.00000000000E+00 -0.24110897891E+04  0.24110897891E+04  0.00000000000E+00 0. -1.
         23    2    1    2    0    0 -0.24752522514E+03  0.13978522158E+04 -0.17779872927E+04  0.22770004281E+04  0.90733576939E+02 0.  0.
         11    1    3    3    0    0 -0.20313163154E+03  0.10306822568E+04 -0.13685835947E+04  0.17252795222E+04  0.00000000000E+00 0. -1.
        -11    1    3    3    0    0 -0.44393593594E+02  0.36716995906E+03 -0.40940369804E+03  0.55172090586E+03  0.00000000000E+00 0.  1.
         22    1    1    2    0    0  0.24752522514E+03 -0.13978522158E+04  0.92980406050E+03  0.16969959179E+04  0.00000000000E+00 0.  1.
<mgrwt>
<rscale>  0 0.38824261E+04</rscale>
<asrwt>0</asrwt>
<pdfrwt beam="1">  1        2 0.37093689E+00 0.38824261E+04</pdfrwt>
<pdfrwt beam="2">  1       -2 0.24044717E+00 0.38824261E+04</pdfrwt>
<totfact> 0.22966104E-01</totfact>
</mgrwt>
</event>
<event>
 6    1  0.1885829E-005  0.1764964E+04  0.7818608E-02  0.8725157E-01
         -2   -1    0    0    0  501 -0.00000000000E+00  0.00000000000E+00  0.35387259753E+03  0.35387259753E+03  0.00000000000E+00 0.  1.
          2   -1    0    0  501    0  0.00000000000E+00 -0.00000000000E+00 -0.22007189675E+04  0.22007189675E+04  0.00000000000E+00 0. -1.
         23    2    1    2    0    0 -0.38920520016E+03 -0.71416001298E+03 -0.14123881939E+04  0.16324966032E+04  0.93271308671E+02 0.  0.
         13    1    3    3    0    0 -0.13958628325E+03 -0.17849265673E+03 -0.35449487131E+03  0.42072624444E+03  0.00000000000E+00 0.  1.
        -13    1    3    3    0    0 -0.24961891690E+03 -0.53566735625E+03 -0.10578933226E+04  0.12117703587E+04  0.00000000000E+00 0. -1.
         22    1    1    2    0    0  0.38920520016E+03  0.71416001298E+03 -0.43445817604E+03  0.92209496187E+03  0.00000000000E+00 0. -1.
<mgrwt>
<rscale>  0 0.17649636E+04</rscale>
<asrwt>0</asrwt>
<pdfrwt beam="1">  1        2 0.33857214E+00 0.17649636E+04</pdfrwt>
<pdfrwt beam="2">  1       -2 0.54441940E-01 0.17649636E+04</pdfrwt>
<totfact> 0.15515525E+01</totfact>
</mgrwt>
</event>
<event>
 6    1  0.1885829E-005  0.3361110E+04  0.7818608E-02  0.8147518E-01
          2   -1    0    0  501    0  0.00000000000E+00  0.00000000000E+00  0.18450900418E+04  0.18450900418E+04  0.00000000000E+00 0. -1.
         -2   -1    0    0    0  501 -0.00000000000E+00 -0.00000000000E+00 -0.15306923120E+04  0.15306923120E+04  0.00000000000E+00 0.  1.
         23    2    1    2    0    0  0.17003985432E+03 -0.60290938693E+03  0.17222688511E+04  0.18348364186E+04  0.89450583731E+02 0.  0.
         13    1    3    3    0    0  0.89791822468E+02 -0.46162243288E+03  0.12731567087E+04  0.13572346322E+04  0.00000000000E+00 0.  1.
        -13    1    3    3    0    0  0.80248031853E+02 -0.14128695405E+03  0.44911214232E+03  0.47760178641E+03  0.00000000000E+00 0. -1.
         22    1    1    2    0    0 -0.17003985432E+03  0.60290938693E+03 -0.14078711212E+04  0.15409459351E+04  0.00000000000E+00 0.  1.
<mgrwt>
<rscale>  0 0.33611100E+04</rscale>
<asrwt>0</asrwt>
<pdfrwt beam="1">  1        2 0.28386001E+00 0.33611100E+04</pdfrwt>
<pdfrwt beam="2">  1       -2 0.23549112E+00 0.33611100E+04</pdfrwt>
<totfact> 0.53488242E-01</totfact>
</mgrwt>
</event>
<event>
 6    1  0.1885829E-005  0.3168454E+04  0.7818608E-02  0.8197198E-01
         -2   -1    0    0    0  501 -0.00000000000E+00  0.00000000000E+00  0.11185859164E+04  0.11185859164E+04  0.00000000000E+00 0.  1.
          2   -1    0    0  501    0  0.00000000000E+00 -0.00000000000E+00 -0.22437035229E+04  0.22437035229E+04  0.00000000000E+00 0. -1.
         23    2    1    2    0    0 -0.26770757781E+03 -0.39512061133E+03 -0.21645889829E+04  0.22184850911E+04  0.91885743163E+02 0.  0.
         13    1    3    3    0    0 -0.18076087510E+03 -0.32766670075E+03 -0.17478461245E+04  0.17874579815E+04  0.00000000000E+00 0.  1.
        -13    1    3    3    0    0 -0.86946702713E+02 -0.67453910578E+02 -0.41674285837E+03  0.43102710955E+03  0.00000000000E+00 0. -1.
         22    1    1    2    0    0  0.26770757781E+03  0.39512061133E+03  0.10394713764E+04  0.11438043482E+04  0.00000000000E+00 0.  1.
<mgrwt>
<rscale>  0 0.31684540E+04</rscale>
<asrwt>0</asrwt>
<pdfrwt beam="1">  1        2 0.34518515E+00 0.31684540E+04</pdfrwt>
<pdfrwt beam="2">  1       -2 0.17209014E+00 0.31684540E+04</pdfrwt>
<totfact> 0.84841789E-01</totfact>
</mgrwt>
</event>
<event>
 6    1  0.1885829E-005  0.1327340E+04  0.7818608E-02  0.9008161E-01
         -2   -1    0    0    0  501 -0.00000000000E+00  0.00000000000E+00  0.34671453160E+03  0.34671453160E+03  0.00000000000E+00 0.  1.
          2   -1    0    0  501    0  0.00000000000E+00 -0.00000000000E+00 -0.12703756733E+04  0.12703756733E+04  0.00000000000E+00 0. -1.
         23    2    1    2    0    0  0.40818927398E+03  0.51683918373E+03 -0.52484843322E+03  0.84715981737E+03  0.92047015594E+02 0.  0.
         11    1    3    3    0    0  0.18772203173E+03  0.20687105818E+03 -0.27546322229E+03  0.39232025533E+03  0.00000000000E+00 0. -1.
        -11    1    3    3    0    0  0.22046724225E+03  0.30996812556E+03 -0.24938521093E+03  0.45483956204E+03  0.00000000000E+00 0.  1.
         22    1    1    2    0    0 -0.40818927398E+03 -0.51683918373E+03 -0.39881270851E+03  0.76993038757E+03  0.00000000000E+00 0.  1.
<mgrwt>
<rscale>  0 0.13273398E+04</rscale>
<asrwt>0</asrwt>
<pdfrwt beam="1">  1        2 0.19544241E+00 0.13273398E+04</pdfrwt>
<pdfrwt beam="2">  1       -2 0.53340698E-01 0.13273398E+04</pdfrwt>
<totfact> 0.55757171E+01</totfact>
</mgrwt>
</event>
<event>
 6    1  0.1885829E-005  0.2025283E+04  0.7818608E-02  0.8594890E-01
          2   -1    0    0  501    0  0.00000000000E+00  0.00000000000E+00  0.16802426966E+04  0.16802426966E+04  0.00000000000E+00 0.  1.
         -2   -1    0    0    0  501 -0.00000000000E+00 -0.00000000000E+00 -0.61029440433E+03  0.61029440433E+03  0.00000000000E+00 0. -1.
         23    2    1    2    0    0  0.37236694534E+03 -0.79370029112E+02 -0.52038358773E+03  0.65526579866E+03  0.11669380882E+03 0.  0.
         13    1    3    3    0    0  0.11448565215E+03 -0.80228026566E+02 -0.16695591582E+03  0.21775623670E+03  0.00000000000E+00 0. -1.
        -13    1    3    3    0    0  0.25788129319E+03  0.85799745384E+00 -0.35342767191E+03  0.43750956196E+03  0.00000000000E+00 0.  1.
         22    1    1    2    0    0 -0.37236694534E+03  0.79370029112E+02  0.15903318800E+04  0.16352713023E+04  0.00000000000E+00 0.  1.
<mgrwt>
<rscale>  0 0.20252829E+04</rscale>
<asrwt>0</asrwt>
<pdfrwt beam="1">  1        2 0.25849887E+00 0.20252829E+04</pdfrwt>
<pdfrwt beam="2">  1       -2 0.93891448E-01 0.20252829E+04</pdfrwt>
<totfact> 0.89336192E+00</totfact>
</mgrwt>
</event>
<event>
 6    1  0.1885829E-005  0.3160638E+04  0.7818608E-02  0.8199291E-01
         -2   -1    0    0    0  501 -0.00000000000E+00  0.00000000000E+00  0.11555638014E+04  0.11555638014E+04  0.00000000000E+00 0. -1.
          2   -1    0    0  501    0  0.00000000000E+00 -0.00000000000E+00 -0.21612033131E+04  0.21612033131E+04  0.00000000000E+00 0.  1.
         23    2    1    2    0    0 -0.61731723828E+03  0.96795792347E+01 -0.20283337975E+04  0.21221634692E+04  0.90914955913E+02 0.  0.
         11    1    3    3    0    0 -0.14942811386E+03 -0.30873803117E+02 -0.43059172068E+03  0.45682730090E+03  0.00000000000E+00 0. -1.
        -11    1    3    3    0    0 -0.46788912442E+03  0.40553382352E+02 -0.15977420768E+04  0.16653361683E+04  0.00000000000E+00 0.  1.
         22    1    1    2    0    0  0.61731723828E+03 -0.96795792347E+01  0.10226942858E+04  0.11946036452E+04  0.00000000000E+00 0. -1.
<mgrwt>
<rscale>  0 0.31606381E+04</rscale>
<asrwt>0</asrwt>
<pdfrwt beam="1">  1        2 0.33249282E+00 0.31606381E+04</pdfrwt>
<pdfrwt beam="2">  1       -2 0.17777905E+00 0.31606381E+04</pdfrwt>
<totfact> 0.86182080E-01</totfact>
</mgrwt>
</event>
<event>
 6    1  0.1885829E-005  0.3170595E+04  0.7818608E-02  0.8196626E-01
          2   -1    0    0  501    0  0.00000000000E+00  0.00000000000E+00  0.96402573376E+03  0.96402573376E+03  0.00000000000E+00 0. -1.
         -2   -1    0    0    0  501 -0.00000000000E+00 -0.00000000000E+00 -0.26069513691E+04  0.26069513691E+04  0.00000000000E+00 0.  1.
         23    2    1    2    0    0 -0.12407820107E+04  0.29480289141E+03  0.23579951121E+03  0.13002818527E+04  0.93181244040E+02 0.  0.
         11    1    3    3    0    0 -0.66970546944E+03  0.20673718871E+03  0.13130038152E+03  0.71308167217E+03  0.00000000000E+00 0. -1.
        -11    1    3    3    0    0 -0.57107654122E+03  0.88065702698E+02  0.10449912969E+03  0.58720018054E+03  0.00000000000E+00 0.  1.
         22    1    1    2    0    0  0.12407820107E+04 -0.29480289141E+03 -0.18787251466E+04  0.22706952502E+04  0.00000000000E+00 0.  1.
<mgrwt>
<rscale>  0 0.31705950E+04</rscale>
<asrwt>0</asrwt>
<pdfrwt beam="1">  1        2 0.14831165E+00 0.31705950E+04</pdfrwt>
<pdfrwt beam="2">  1       -2 0.40106944E+00 0.31705950E+04</pdfrwt>
<totfact> 0.16372274E-01</totfact>
</mgrwt>
</event>
<event>
 6    1  0.1885829E-005  0.2084594E+04  0.7818608E-02  0.8568060E-01
          2   -1    0    0  501    0  0.00000000000E+00  0.00000000000E+00  0.32409727859E+04  0.32409727859E+04  0.00000000000E+00 0. -1.
         -2   -1    0    0    0  501 -0.00000000000E+00 -0.00000000000E+00 -0.33520274928E+03  0.33520274928E+03  0.00000000000E+00 0.  1.
         23    2    1    2    0    0  0.83667984851E+03  0.61426214167E+03  0.15745690847E+04  0.18881449899E+04  0.92046469455E+02 0.  0.
         13    1    3    3    0    0  0.36055856268E+03  0.29802737609E+03  0.64186073831E+03  0.79423422326E+03  0.00000000000E+00 0. -1.
        -13    1    3    3    0    0  0.47612128583E+03  0.31623476558E+03  0.93270834644E+03  0.10939107666E+04  0.00000000000E+00 0.  1.
         22    1    1    2    0    0 -0.83667984851E+03 -0.61426214167E+03  0.13312009518E+04  0.16880305453E+04  0.00000000000E+00 0.  1.
<mgrwt>
<rscale>  0 0.20845940E+04</rscale>
<asrwt>0</asrwt>
<pdfrwt beam="1">  1        2 0.49861118E+00 0.20845940E+04</pdfrwt>
<pdfrwt beam="2">  1       -2 0.51569656E-01 0.20845940E+04</pdfrwt>
<totfact> 0.40072451E+00</totfact>
</mgrwt>
</event>
<event>
 6    1  0.1885829E-005  0.2164009E+04  0.7818608E-02  0.8533560E-01
         -1   -1    0    0    0  501 -0.00000000000E+00  0.00000000000E+00  0.87100377789E+03  0.87100377789E+03  0.00000000000E+00 0.  1.
          1   -1    0    0  501    0  0.00000000000E+00 -0.00000000000E+00 -0.13441196643E+04  0.13441196643E+04  0.00000000000E+00 0. -1.
         23    2    1    2    0    0  0.15544170827E+03  0.22303548494E+03 -0.13067724460E+04  0.13382595921E+04  0.96837792709E+02 0.  0.
         11    1    3    3    0    0  0.15231283637E+03  0.19771619508E+03 -0.10095130815E+04  0.10399074745E+04  0.00000000000E+00 0.  1.
        -11    1    3    3    0    0  0.31288718929E+01  0.25319289869E+02 -0.29725936451E+03  0.29835211759E+03  0.00000000000E+00 0. -1.
         22    1    1    2    0    0 -0.15544170827E+03 -0.22303548494E+03  0.83365655958E+03  0.87686385006E+03  0.00000000000E+00 0.  1.
<mgrwt>
<rscale>  0 0.21640086E+04</rscale>
<asrwt>0</asrwt>
<pdfrwt beam="1">  1        1 0.20678764E+00 0.21640086E+04</pdfrwt>
<pdfrwt beam="2">  1       -1 0.13400058E+00 0.21640086E+04</pdfrwt>
<totfact> 0.36131137E+00</totfact>
</mgrwt>
</event>
<event>
 6    1  0.1885829E-005  0.1651138E+04  0.7818608E-02  0.8789733E-01
          2   -1    0    0  501    0  0.00000000000E+00  0.00000000000E+00  0.64858006342E+03  0.64858006342E+03  0.00000000000E+00 0. -1.
         -2   -1    0    0    0  501 -0.00000000000E+00 -0.00000000000E+00 -0.10508564254E+04  0.10508564254E+04  0.00000000000E+00 0.  1.
         23    2    1    2    0    0  0.15879650278E+03  0.76142305100E+03  0.75303418062E+02  0.78671318013E+03  0.90915516403E+02 0.  0.
         13    1    3    3    0    0  0.95891021401E+02  0.34637829163E+03 -0.43771752630E+01  0.35943312112E+03  0.00000000000E+00 0. -1.
        -13    1    3    3    0    0  0.62905481382E+02  0.41504475937E+03  0.79680593325E+02  0.42728005901E+03  0.00000000000E+00 0.  1.
         22    1    1    2    0    0 -0.15879650278E+03 -0.76142305100E+03 -0.47757978001E+03  0.91272330865E+03  0.00000000000E+00 0. -1.
<mgrwt>
<rscale>  0 0.16511384E+04</rscale>
<asrwt>0</asrwt>
<pdfrwt beam="1">  1        2 0.99781549E-01 0.16511384E+04</pdfrwt>
<pdfrwt beam="2">  1       -2 0.16167022E+00 0.16511384E+04</pdfrwt>
<totfact> 0.10536088E+01</totfact>
</mgrwt>
</event>
<event>
 6    1  0.1885829E-005  0.1521049E+04  0.7818608E-02  0.8870575E-01
          2   -1    0    0  501    0  0.00000000000E+00  0.00000000000E+00  0.13885872087E+04  0.13885872087E+04  0.00000000000E+00 0. -1.
         -2   -1    0    0    0  501 -0.00000000000E+00 -0.00000000000E+00 -0.41653668725E+03  0.41653668725E+03  0.00000000000E+00 0.  1.
         23    2    1    2    0    0  0.54284257762E+03 -0.24487873508E+02  0.11146075033E+04  0.12433408301E+04  0.90933016260E+02 0.  0.
         11    1    3    3    0    0  0.39204737696E+03 -0.43976742420E+02  0.87097071134E+03  0.95615118034E+03  0.00000000000E+00 0.  1.
        -11    1    3    3    0    0  0.15079520066E+03  0.19488868912E+02  0.24363679196E+03  0.28718964980E+03  0.00000000000E+00 0. -1.
         22    1    1    2    0    0 -0.54284257762E+03  0.24487873508E+02 -0.14255698181E+03  0.56178306586E+03  0.00000000000E+00 0.  1.
<mgrwt>
<rscale>  0 0.15210490E+04</rscale>
<asrwt>0</asrwt>
<pdfrwt beam="1">  1        2 0.21362880E+00 0.15210490E+04</pdfrwt>
<pdfrwt beam="2">  1       -2 0.64082568E-01 0.15210490E+04</pdfrwt>
<totfact> 0.31895903E+01</totfact>
</mgrwt>
</event>
<event>
 6    1  0.1885829E-005  0.3244301E+04  0.7818608E-02  0.8177214E-01
         -1   -1    0    0    0  501 -0.00000000000E+00  0.00000000000E+00  0.20640748855E+04  0.20640748855E+04  0.00000000000E+00 0.  1.
          1   -1    0    0  501    0  0.00000000000E+00 -0.00000000000E+00 -0.12748434387E+04  0.12748434387E+04  0.00000000000E+00 0. -1.
         23    2    1    2    0    0  0.56364933055E+03  0.41547922179E+03 -0.11096996189E+04  0.13149957111E+04  0.86353486146E+02 0.  0.
         13    1    3    3    0    0  0.38623201569E+03  0.31081675634E+03 -0.84351203056E+03  0.97841441714E+03  0.00000000000E+00 0.  1.
        -13    1    3    3    0    0  0.17741731486E+03  0.10466246545E+03 -0.26618758831E+03  0.33658129398E+03  0.00000000000E+00 0. -1.
         22    1    1    2    0    0 -0.56364933055E+03 -0.41547922179E+03  0.18989310657E+04  0.20239226131E+04  0.00000000000E+00 0.  1.
<mgrwt>
<rscale>  0 0.32443010E+04</rscale>
<asrwt>0</asrwt>
<pdfrwt beam="1">  1        1 0.19612976E+00 0.32443010E+04</pdfrwt>
<pdfrwt beam="2">  1       -1 0.31754998E+00 0.32443010E+04</pdfrwt>
<totfact> 0.19953056E-01</totfact>
</mgrwt>
</event>
<event>
 6    1  0.1885829E-005  0.2324498E+04  0.7818608E-02  0.8468324E-01
          2   -1    0    0  501    0  0.00000000000E+00  0.00000000000E+00  0.71297759384E+03  0.71297759384E+03  0.00000000000E+00 0. -1.
         -2   -1    0    0    0  501 -0.00000000000E+00 -0.00000000000E+00 -0.18946220076E+04  0.18946220076E+04  0.00000000000E+00 0.  1.
         23    2    1    2    0    0 -0.85779745929E+03  0.73984412820E+03 -0.87422863815E+03  0.14338490852E+04  0.91987348202E+02 0.  0.
         11    1    3    3    0    0 -0.41395348353E+03  0.40379915897E+03 -0.48240942698E+03  0.75308040909E+03  0.00000000000E+00 0.  1.
        -11    1    3    3    0    0 -0.44384397576E+03  0.33604496924E+03 -0.39181921117E+03  0.68076867614E+03  0.00000000000E+00 0. -1.
         22    1    1    2    0    0  0.85779745929E+03 -0.73984412820E+03 -0.30741577559E+03  0.11737505162E+04  0.00000000000E+00 0. -1.
<mgrwt>
<rscale>  0 0.23244983E+04</rscale>
<asrwt>0</asrwt>
<pdfrwt beam="1">  1        2 0.10968886E+00 0.23244983E+04</pdfrwt>
<pdfrwt beam="2">  1       -2 0.29148031E+00 0.23244983E+04</pdfrwt>
<totfact> 0.12981451E+00</totfact>
</mgrwt>
</event>
<event>
 6    1  0.1885829E-005  0.4760921E+03  0.7818608E-02  0.1020215E+00
         -2   -1    0    0    0  501 -0.00000000000E+00  0.00000000000E+00  0.11757500401E+03  0.11757500401E+03  0.00000000000E+00 0.  1.
          2   -1    0    0  501    0  0.00000000000E+00 -0.00000000000E+00 -0.48195560050E+03  0.48195560050E+03  0.00000000000E+00 0. -1.
         23    2    1    2    0    0 -0.14496523228E+02  0.17037486743E+03  0.60658070162E+01  0.19152535638E+03  0.86066389994E+02 0.  0.
         13    1    3    3    0    0 -0.20733232816E+02  0.77575779757E+02 -0.37730509987E+02  0.88721248480E+02  0.00000000000E+00 0.  1.
        -13    1    3    3    0    0  0.62367095873E+01  0.92799087669E+02  0.43796317003E+02  0.10280410790E+03  0.00000000000E+00 0. -1.
         22    1    1    2    0    0  0.14496523228E+02 -0.17037486743E+03 -0.37044640350E+03  0.40800524813E+03  0.00000000000E+00 0. -1.
<mgrwt>
<rscale>  0 0.47609214E+03</rscale>
<asrwt>0</asrwt>
<pdfrwt beam="1">  1        2 0.74147015E-01 0.47609214E+03</pdfrwt>
<pdfrwt beam="2">  1       -2 0.18088462E-01 0.47609214E+03</pdfrwt>
<totfact> 0.16296163E+03</totfact>
</mgrwt>
</event>
<event>
 6    1  0.1885829E-005  0.1771605E+04  0.7818608E-02  0.8721547E-01
         -2   -1    0    0    0  501 -0.00000000000E+00  0.00000000000E+00  0.68525803479E+03  0.68525803479E+03  0.00000000000E+00 0.  1.
          2   -1    0    0  501    0  0.00000000000E+00 -0.00000000000E+00 -0.11450373914E+04  0.11450373914E+04  0.00000000000E+00 0. -1.
         23    2    1    2    0    0  0.28085312384E+03 -0.14644398944E+03  0.62155285914E+03  0.70352851150E+03  0.91104832856E+02 0.  0.
         11    1    3    3    0    0  0.27365223393E+03 -0.15573838557E+03  0.57555193930E+03  0.65604879750E+03  0.00000000000E+00 0. -1.
        -11    1    3    3    0    0  0.72008899135E+01  0.92943961256E+01  0.46000919843E+02  0.47479713997E+02  0.00000000000E+00 0.  1.
         22    1    1    2    0    0 -0.28085312384E+03  0.14644398944E+03 -0.10813322158E+04  0.11267669147E+04  0.00000000000E+00 0. -1.
<mgrwt>
<rscale>  0 0.17716050E+04</rscale>
<asrwt>0</asrwt>
<pdfrwt beam="1">  1        2 0.17615960E+00 0.17716050E+04</pdfrwt>
<pdfrwt beam="2">  1       -2 0.10542431E+00 0.17716050E+04</pdfrwt>
<totfact> 0.14084823E+01</totfact>
</mgrwt>
</event>
<event>
 6    1  0.1885829E-005  0.1351019E+04  0.7818608E-02  0.8990057E-01
          2   -1    0    0  501    0  0.00000000000E+00  0.00000000000E+00  0.26328095576E+04  0.26328095576E+04  0.00000000000E+00 0. -1.
         -2   -1    0    0    0  501 -0.00000000000E+00 -0.00000000000E+00 -0.17331787545E+03  0.17331787545E+03  0.00000000000E+00 0.  1.
         23    2    1    2    0    0 -0.35212582536E+03  0.51579245218E+03  0.71551798615E+03  0.95370234606E+03  0.86877648214E+02 0.  0.
         11    1    3    3    0    0 -0.16747825692E+03  0.30658437090E+03  0.43666585456E+03  0.55921374407E+03  0.00000000000E+00 0.  1.
        -11    1    3    3    0    0 -0.18464756844E+03  0.20920808128E+03  0.27885213159E+03  0.39448860198E+03  0.00000000000E+00 0. -1.
         22    1    1    2    0    0  0.35212582536E+03 -0.51579245218E+03  0.17439736960E+04  0.18524250870E+04  0.00000000000E+00 0. -1.
<mgrwt>
<rscale>  0 0.13510188E+04</rscale>
<asrwt>0</asrwt>
<pdfrwt beam="1">  1        2 0.40504759E+00 0.13510188E+04</pdfrwt>
<pdfrwt beam="2">  1       -2 0.26664291E-01 0.13510188E+04</pdfrwt>
<totfact> 0.36461879E+01</totfact>
</mgrwt>
</event>
<event>
 6    1  0.1885829E-005  0.2668422E+04  0.7818608E-02  0.8345324E-01
         -2   -1    0    0    0  501 -0.00000000000E+00  0.00000000000E+00  0.73837464003E+03  0.73837464003E+03  0.00000000000E+00 0.  1.
          2   -1    0    0  501    0  0.00000000000E+00 -0.00000000000E+00 -0.24108617161E+04  0.24108617161E+04  0.00000000000E+00 0. -1.
         23    2    1    2    0    0 -0.22368586423E+02  0.68824461267E+03  0.50931342570E+03  0.86134771590E+03  0.91316600681E+02 0.  0.
         11    1    3    3    0    0 -0.10317142297E+02  0.57065930201E+03  0.37749960950E+03  0.68429850034E+03  0.00000000000E+00 0.  1.
        -11    1    3    3    0    0 -0.12051444127E+02  0.11758531066E+03  0.13181381620E+03  0.17704921556E+03  0.00000000000E+00 0. -1.
         22    1    1    2    0    0  0.22368586423E+02 -0.68824461267E+03 -0.21818005018E+04  0.22878886402E+04  0.00000000000E+00 0. -1.
<mgrwt>
<rscale>  0 0.26684221E+04</rscale>
<asrwt>0</asrwt>
<pdfrwt beam="1">  1        2 0.37090181E+00 0.26684221E+04</pdfrwt>
<pdfrwt beam="2">  1       -2 0.11359610E+00 0.26684221E+04</pdfrwt>
<totfact> 0.20939162E+00</totfact>
</mgrwt>
</event>
<event>
 6    1  0.1885829E-005  0.2903061E+04  0.7818608E-02  0.8271967E-01
         -2   -1    0    0    0  501 -0.00000000000E+00  0.00000000000E+00  0.60022094628E+03  0.60022094628E+03  0.00000000000E+00 0. -1.
          2   -1    0    0  501    0  0.00000000000E+00 -0.00000000000E+00 -0.35102751476E+04  0.35102751476E+04  0.00000000000E+00 0.  1.
         23    2    1    2    0    0  0.55654234237E+03  0.81350666561E+03  0.49551526303E+02  0.99107330484E+03  0.90766006692E+02 0.  0.
         11    1    3    3    0    0  0.29813472331E+03  0.51423786947E+03  0.33443155587E+02  0.59535144604E+03  0.00000000000E+00 0. -1.
        -11    1    3    3    0    0  0.25840761906E+03  0.29926879614E+03  0.16108370716E+02  0.39572185880E+03  0.00000000000E+00 0.  1.
         22    1    1    2    0    0 -0.55654234237E+03 -0.81350666561E+03 -0.29596057276E+04  0.31194227890E+04  0.00000000000E+00 0.  1.
<mgrwt>
<rscale>  0 0.29030609E+04</rscale>
<asrwt>0</asrwt>
<pdfrwt beam="1">  1        2 0.54004234E+00 0.29030609E+04</pdfrwt>
<pdfrwt beam="2">  1       -2 0.92341683E-01 0.29030609E+04</pdfrwt>
<totfact> 0.68665541E-01</totfact>
</mgrwt>
</event>
<event>
 6    1  0.1885829E-005  0.4010506E+04  0.7818608E-02  0.8002430E-01
          2   -1    0    0  501    0  0.00000000000E+00  0.00000000000E+00  0.27088288503E+04  0.27088288503E+04  0.00000000000E+00 0. -1.
         -2   -1    0    0    0  501 -0.00000000000E+00 -0.00000000000E+00 -0.14844201713E+04  0.14844201713E+04  0.00000000000E+00 0.  1.
         23    2    1    2    0    0  0.16373896942E+04 -0.57400244989E+03 -0.43624041157E+03  0.17915248023E+04  0.93443018129E+02 0.  0.
         11    1    3    3    0    0  0.11140929319E+04 -0.34406756441E+03 -0.29125904338E+03  0.12018391657E+04  0.00000000000E+00 0. -1.
        -11    1    3    3    0    0  0.52329676223E+03 -0.22993488548E+03 -0.14498136819E+03  0.58968563663E+03  0.00000000000E+00 0.  1.
         22    1    1    2    0    0 -0.16373896942E+04  0.57400244989E+03  0.16606490906E+04  0.24017242192E+04  0.00000000000E+00 0. -1.
<mgrwt>
<rscale>  0 0.40105063E+04</rscale>
<asrwt>0</asrwt>
<pdfrwt beam="1">  1        2 0.41674290E+00 0.40105063E+04</pdfrwt>
<pdfrwt beam="2">  1       -2 0.22837233E+00 0.40105063E+04</pdfrwt>
<totfact> 0.18097339E-01</totfact>
</mgrwt>
</event>
<event>
 6    1  0.1885829E-005  0.1276673E+04  0.7818608E-02  0.9048271E-01
         -2   -1    0    0    0  501 -0.00000000000E+00  0.00000000000E+00  0.61010482842E+03  0.61010482842E+03  0.00000000000E+00 0. -1.
          2   -1    0    0  501    0  0.00000000000E+00 -0.00000000000E+00 -0.66787479514E+03  0.66787479514E+03  0.00000000000E+00 0.  1.
         23    2    1    2    0    0  0.31629056473E+03 -0.52641348681E+03 -0.19070361328E+03  0.64963080736E+03  0.92203239227E+02 0.  0.
         11    1    3    3    0    0  0.15904308525E+03 -0.18003764626E+03 -0.62698733019E+02  0.24827280994E+03  0.00000000000E+00 0.  1.
        -11    1    3    3    0    0  0.15724747948E+03 -0.34637584055E+03 -0.12800488026E+03  0.40135799742E+03  0.00000000000E+00 0. -1.
         22    1    1    2    0    0 -0.31629056473E+03  0.52641348681E+03  0.13293364655E+03  0.62834881620E+03  0.00000000000E+00 0. -1.
<mgrwt>
<rscale>  0 0.12766732E+04</rscale>
<asrwt>0</asrwt>
<pdfrwt beam="1">  1        2 0.10274997E+00 0.12766732E+04</pdfrwt>
<pdfrwt beam="2">  1       -2 0.93862282E-01 0.12766732E+04</pdfrwt>
<totfact> 0.40923670E+01</totfact>
</mgrwt>
</event>
<event>
 6    1  0.1885829E-005  0.2016138E+04  0.7818608E-02  0.8599113E-01
          2   -1    0    0  501    0  0.00000000000E+00  0.00000000000E+00  0.19347678126E+04  0.19347678126E+04  0.00000000000E+00 0. -1.
         -2   -1    0    0    0  501 -0.00000000000E+00 -0.00000000000E+00 -0.52523266129E+03  0.52523266129E+03  0.00000000000E+00 0.  1.
         23    2    1    2    0    0 -0.94406515415E+02 -0.52811242736E+03  0.17446540130E+04  0.18274500984E+04  0.89111789301E+02 0.  0.
         11    1    3    3    0    0 -0.41311772896E+01 -0.27302100426E+03  0.90030457240E+03  0.94080064758E+03  0.00000000000E+00 0. -1.
        -11    1    3    3    0    0 -0.90275338125E+02 -0.25509142309E+03  0.84434944061E+03  0.88664945083E+03  0.00000000000E+00 0.  1.
         22    1    1    2    0    0  0.94406515415E+02  0.52811242736E+03 -0.33511886168E+03  0.63255037549E+03  0.00000000000E+00 0.  1.
<mgrwt>
<rscale>  0 0.20161381E+04</rscale>
<asrwt>0</asrwt>
<pdfrwt beam="1">  1        2 0.29765658E+00 0.20161381E+04</pdfrwt>
<pdfrwt beam="2">  1       -2 0.80805026E-01 0.20161381E+04</pdfrwt>
<totfact> 0.91069056E+00</totfact>
</mgrwt>
</event>
<event>
 6    1  0.1885829E-005  0.2970803E+04  0.7818608E-02  0.8252118E-01
          2   -1    0    0  501    0  0.00000000000E+00  0.00000000000E+00  0.16877708361E+04  0.16877708361E+04  0.00000000000E+00 0. -1.
         -2   -1    0    0    0  501 -0.00000000000E+00 -0.00000000000E+00 -0.13072969713E+04  0.13072969713E+04  0.00000000000E+00 0.  1.
         23    2    1    2    0    0  0.14188383006E+04 -0.43152222266E+03  0.24466790207E+03  0.15058543199E+04  0.91767633134E+02 0.  0.
         11    1    3    3    0    0  0.33334593146E+03 -0.14240186330E+03  0.56314665083E+02  0.36683666964E+03  0.00000000000E+00 0.  1.
        -11    1    3    3    0    0  0.10854923692E+04 -0.28912035936E+03  0.18835323699E+03  0.11390176503E+04  0.00000000000E+00 0. -1.
         22    1    1    2    0    0 -0.14188383006E+04  0.43152222266E+03  0.13580596271E+03  0.14892134875E+04  0.00000000000E+00 0. -1.
<mgrwt>
<rscale>  0 0.29708031E+04</rscale>
<asrwt>0</asrwt>
<pdfrwt beam="1">  1        2 0.25965705E+00 0.29708031E+04</pdfrwt>
<pdfrwt beam="2">  1       -2 0.20112261E+00 0.29708031E+04</pdfrwt>
<totfact> 0.11178843E+00</totfact>
</mgrwt>
</event>
<event>
 6    1  0.1885829E-005  0.6713439E+03  0.7818608E-02  0.9767533E-01
         -2   -1    0    0    0  501 -0.00000000000E+00  0.00000000000E+00  0.14257379854E+03  0.14257379854E+03  0.00000000000E+00 0.  1.
          2   -1    0    0  501    0  0.00000000000E+00 -0.00000000000E+00 -0.79029711922E+03  0.79029711922E+03  0.00000000000E+00 0. -1.
         23    2    1    2    0    0  0.48408284923E+02  0.12417382314E+03 -0.74776388803E+03  0.76622573926E+03  0.10093835178E+03 0.  0.
         13    1    3    3    0    0  0.12787823522E+02  0.50751859375E+02 -0.54716964647E+03  0.54966708259E+03  0.00000000000E+00 0.  1.
        -13    1    3    3    0    0  0.35620461401E+02  0.73421963761E+02 -0.20059424156E+03  0.21655865667E+03  0.00000000000E+00 0. -1.
         22    1    1    2    0    0 -0.48408284923E+02 -0.12417382314E+03  0.10004056735E+03  0.16664517850E+03  0.00000000000E+00 0.  1.
<mgrwt>
<rscale>  0 0.67134391E+03</rscale>
<asrwt>0</asrwt>
<pdfrwt beam="1">  1        2 0.12158417E+00 0.67134391E+03</pdfrwt>
<pdfrwt beam="2">  1       -2 0.21934430E-01 0.67134391E+03</pdfrwt>
<totfact> 0.63840000E+02</totfact>
</mgrwt>
</event>
<event>
 6    1  0.1885829E-005  0.1620678E+04  0.7818608E-02  0.8807944E-01
         -1   -1    0    0    0  501 -0.00000000000E+00  0.00000000000E+00  0.42377943010E+03  0.42377943010E+03  0.00000000000E+00 0.  1.
          1   -1    0    0  501    0  0.00000000000E+00 -0.00000000000E+00 -0.15495077264E+04  0.15495077264E+04  0.00000000000E+00 0. -1.
         23    2    1    2    0    0 -0.30927560377E+03  0.38103662930E+03  0.21214202294E+03  0.54824775247E+03  0.12137152977E+03 0.  0.
         11    1    3    3    0    0 -0.97496286255E+02  0.21612366142E+03  0.10240161648E+03  0.25826547179E+03  0.00000000000E+00 0. -1.
        -11    1    3    3    0    0 -0.21177931751E+03  0.16491296788E+03  0.10974040646E+03  0.28998228068E+03  0.00000000000E+00 0.  1.
         22    1    1    2    0    0  0.30927560377E+03 -0.38103662930E+03 -0.13378703192E+04  0.14250394040E+04  0.00000000000E+00 0. -1.
<mgrwt>
<rscale>  0 0.16206783E+04</rscale>
<asrwt>0</asrwt>
<pdfrwt beam="1">  1        1 0.23838580E+00 0.16206783E+04</pdfrwt>
<pdfrwt beam="2">  1       -1 0.65196836E-01 0.16206783E+04</pdfrwt>
<totfact> 0.13811033E+01</totfact>
</mgrwt>
</event>
<event>
 6    1  0.1885829E-005  0.3702223E+04  0.7818608E-02  0.8067469E-01
          2   -1    0    0  501    0  0.00000000000E+00  0.00000000000E+00  0.20935996987E+04  0.20935996987E+04  0.00000000000E+00 0.  1.
         -2   -1    0    0    0  501 -0.00000000000E+00 -0.00000000000E+00 -0.16367094641E+04  0.16367094641E+04  0.00000000000E+00 0. -1.
         23    2    1    2    0    0 -0.86172648805E+03  0.15594427292E+04  0.73060546979E+03  0.19277126478E+04  0.88642734119E+02 0.  0.
         13    1    3    3    0    0 -0.36086201487E+03  0.56461873989E+03  0.27842496677E+03  0.72562812606E+03  0.00000000000E+00 0. -1.
        -13    1    3    3    0    0 -0.50086447318E+03  0.99482398929E+03  0.45218050303E+03  0.12020845218E+04  0.00000000000E+00 0.  1.
         22    1    1    2    0    0  0.86172648805E+03 -0.15594427292E+04 -0.27371523517E+03  0.18025965150E+04  0.00000000000E+00 0. -1.
<mgrwt>
<rscale>  0 0.37022234E+04</rscale>
<asrwt>0</asrwt>
<pdfrwt beam="1">  1        2 0.32209226E+00 0.37022234E+04</pdfrwt>
<pdfrwt beam="2">  1       -2 0.25180146E+00 0.37022234E+04</pdfrwt>
<totfact> 0.29998319E-01</totfact>
</mgrwt>
</event>
<event>
 6    1  0.1885829E-005  0.2634094E+04  0.7818608E-02  0.8356712E-01
         -2   -1    0    0    0  501 -0.00000000000E+00  0.00000000000E+00  0.13651123341E+04  0.13651123341E+04  0.00000000000E+00 0.  1.
          2   -1    0    0  501    0  0.00000000000E+00 -0.00000000000E+00 -0.12706740691E+04  0.12706740691E+04  0.00000000000E+00 0. -1.
         23    2    1    2    0    0 -0.52490680911E+03 -0.69848820651E+03 -0.93673389962E+03  0.12842210270E+04  0.91325323208E+02 0.  0.
         13    1    3    3    0    0 -0.33883013089E+03 -0.45034602974E+03 -0.66665514563E+03  0.87295274059E+03  0.00000000000E+00 0. -1.
        -13    1    3    3    0    0 -0.18607667823E+03 -0.24814217676E+03 -0.27007875399E+03  0.41126828643E+03  0.00000000000E+00 0.  1.
         22    1    1    2    0    0  0.52490680911E+03  0.69848820651E+03  0.10311721647E+04  0.13515653762E+04  0.00000000000E+00 0.  1.
<mgrwt>
<rscale>  0 0.26340940E+04</rscale>
<asrwt>0</asrwt>
<pdfrwt beam="1">  1        2 0.19548832E+00 0.26340940E+04</pdfrwt>
<pdfrwt beam="2">  1       -2 0.21001728E+00 0.26340940E+04</pdfrwt>
<totfact> 0.17367279E+00</totfact>
</mgrwt>
</event>
<event>
 6    1  0.1885829E-005  0.2052957E+04  0.7818608E-02  0.8582254E-01
         -2   -1    0    0    0  501 -0.00000000000E+00  0.00000000000E+00  0.17036968590E+04  0.17036968590E+04  0.00000000000E+00 0.  1.
          2   -1    0    0  501    0  0.00000000000E+00 -0.00000000000E+00 -0.61845397943E+03  0.61845397943E+03  0.00000000000E+00 0. -1.
         23    2    1    2    0    0 -0.88678228793E+03 -0.34508623083E+03  0.11423693917E+03  0.96262155622E+03  0.90126851381E+02 0.  0.
         13    1    3    3    0    0 -0.36693462382E+03 -0.14088911798E+03  0.26114162529E+01  0.39306180331E+03  0.00000000000E+00 0. -1.
        -13    1    3    3    0    0 -0.51984766411E+03 -0.20419711285E+03  0.11162552292E+03  0.56955975292E+03  0.00000000000E+00 0.  1.
         22    1    1    2    0    0  0.88678228793E+03  0.34508623083E+03  0.97100594041E+03  0.13595292822E+04  0.00000000000E+00 0.  1.
<mgrwt>
<rscale>  0 0.20529570E+04</rscale>
<asrwt>0</asrwt>
<pdfrwt beam="1">  1        2 0.95146767E-01 0.20529570E+04</pdfrwt>
<pdfrwt beam="2">  1       -2 0.26210721E+00 0.20529570E+04</pdfrwt>
<totfact> 0.23950237E+00</totfact>
</mgrwt>
</event>
<event>
 6    1  0.1885829E-005  0.1820215E+04  0.7818608E-02  0.8695623E-01
         -2   -1    0    0    0  501 -0.00000000000E+00  0.00000000000E+00  0.67894559641E+03  0.67894559641E+03  0.00000000000E+00 0.  1.
          2   -1    0    0  501    0  0.00000000000E+00 -0.00000000000E+00 -0.12199735545E+04  0.12199735545E+04  0.00000000000E+00 0. -1.
         23    2    1    2    0    0 -0.13111732045E+03  0.31113828005E+03  0.60782081373E+03  0.70148344009E+03  0.92919826117E+02 0.  0.
         11    1    3    3    0    0 -0.18282034162E+02  0.13308626879E+03  0.29648587511E+03  0.32549971099E+03  0.00000000000E+00 0. -1.
        -11    1    3    3    0    0 -0.11283528629E+03  0.17805201126E+03  0.31133493862E+03  0.37598372910E+03  0.00000000000E+00 0.  1.
         22    1    1    2    0    0  0.13111732045E+03 -0.31113828005E+03 -0.11488487718E+04  0.11974357108E+04  0.00000000000E+00 0. -1.
<mgrwt>
<rscale>  0 0.18202150E+04</rscale>
<asrwt>0</asrwt>
<pdfrwt beam="1">  1        2 0.18768824E+00 0.18202150E+04</pdfrwt>
<pdfrwt beam="2">  1       -2 0.10445317E+00 0.18202150E+04</pdfrwt>
<totfact> 0.12931195E+01</totfact>
</mgrwt>
</event>
<event>
 6    1  0.1885829E-005  0.1162917E+04  0.7818608E-02  0.9145949E-01
          2   -1    0    0  501    0  0.00000000000E+00  0.00000000000E+00  0.11459357739E+04  0.11459357739E+04  0.00000000000E+00 0. -1.
         -2   -1    0    0    0  501 -0.00000000000E+00 -0.00000000000E+00 -0.29503751426E+03  0.29503751426E+03  0.00000000000E+00 0.  1.
         23    2    1    2    0    0 -0.13432196921E+03  0.46692509974E+03  0.81571215642E+03  0.95383932089E+03  0.91442264657E+02 0.  0.
         13    1    3    3    0    0 -0.53674719044E+02  0.32515024708E+03  0.50711201598E+03  0.60478612368E+03  0.00000000000E+00 0. -1.
        -13    1    3    3    0    0 -0.80647250163E+02  0.14177485266E+03  0.30860014043E+03  0.34905319721E+03  0.00000000000E+00 0.  1.
         22    1    1    2    0    0  0.13432196921E+03 -0.46692509974E+03  0.35186103182E+02  0.48713396724E+03  0.00000000000E+00 0.  1.
<mgrwt>
<rscale>  0 0.11629171E+04</rscale>
<asrwt>0</asrwt>
<pdfrwt beam="1">  1        2 0.17629781E+00 0.11629171E+04</pdfrwt>
<pdfrwt beam="2">  1       -2 0.45390387E-01 0.11629171E+04</pdfrwt>
<totfact> 0.92911150E+01</totfact>
</mgrwt>
</event>
<event>
 6    1  0.1885829E-005  0.3374433E+04  0.7818608E-02  0.8144210E-01
          2   -1    0    0  501    0  0.00000000000E+00  0.00000000000E+00  0.14113751637E+04  0.14113751637E+04  0.00000000000E+00 0. -1.
         -2   -1    0    0    0  501 -0.00000000000E+00 -0.00000000000E+00 -0.20169683994E+04  0.20169683994E+04  0.00000000000E+00 0.  1.
         23    2    1    2    0    0 -0.15991825434E+04 -0.52987554889E+03 -0.23590805091E+03  0.17035769005E+04  0.91480834189E+02 0.  0.
         13    1    3    3    0    0 -0.33569302440E+03 -0.11733200921E+03 -0.12725929665E+02  0.35583501276E+03  0.00000000000E+00 0. -1.
        -13    1    3    3    0    0 -0.12634895190E+04 -0.41254353968E+03 -0.22318212124E+03  0.13477418877E+04  0.00000000000E+00 0.  1.
         22    1    1    2    0    0  0.15991825434E+04  0.52987554889E+03 -0.36968518485E+03  0.17247666626E+04  0.00000000000E+00 0.  1.
<mgrwt>
<rscale>  0 0.33744328E+04</rscale>
<asrwt>0</asrwt>
<pdfrwt beam="1">  1        2 0.21713464E+00 0.33744328E+04</pdfrwt>
<pdfrwt beam="2">  1       -2 0.31030283E+00 0.33744328E+04</pdfrwt>
<totfact> 0.32511672E-01</totfact>
</mgrwt>
</event>
<event>
 6    1  0.1885829E-005  0.2616599E+04  0.7818608E-02  0.8362585E-01
          2   -1    0    0  501    0  0.00000000000E+00  0.00000000000E+00  0.14981741641E+04  0.14981741641E+04  0.00000000000E+00 0. -1.
         -2   -1    0    0    0  501 -0.00000000000E+00 -0.00000000000E+00 -0.11424887981E+04  0.11424887981E+04  0.00000000000E+00 0.  1.
         23    2    1    2    0    0  0.10356887520E+04  0.79685485402E+03  0.18425900967E+03  0.13227039928E+04  0.89250324897E+02 0.  0.
         11    1    3    3    0    0  0.25117553889E+03  0.23941546396E+03  0.63543575264E+02  0.35277004079E+03  0.00000000000E+00 0. -1.
        -11    1    3    3    0    0  0.78451321314E+03  0.55743939006E+03  0.12071543441E+03  0.96993395202E+03  0.00000000000E+00 0.  1.
         22    1    1    2    0    0 -0.10356887520E+04 -0.79685485402E+03  0.17142635629E+03  0.13179589694E+04  0.00000000000E+00 0.  1.
<mgrwt>
<rscale>  0 0.26165987E+04</rscale>
<asrwt>0</asrwt>
<pdfrwt beam="1">  1        2 0.23048833E+00 0.26165987E+04</pdfrwt>
<pdfrwt beam="2">  1       -2 0.17576751E+00 0.26165987E+04</pdfrwt>
<totfact> 0.21814750E+00</totfact>
</mgrwt>
</event>
<event>
 6    1  0.1885829E-005  0.1109029E+04  0.7818608E-02  0.9196436E-01
          2   -1    0    0  501    0  0.00000000000E+00  0.00000000000E+00  0.16686757891E+03  0.16686757891E+03  0.00000000000E+00 0. -1.
         -2   -1    0    0    0  501 -0.00000000000E+00 -0.00000000000E+00 -0.18426953927E+04  0.18426953927E+04  0.00000000000E+00 0.  1.
         23    2    1    2    0    0  0.42579677248E+03 -0.28364521501E+02 -0.21282157603E+03  0.48558964859E+03  0.91634306153E+02 0.  0.
         13    1    3    3    0    0  0.33448177921E+03 -0.55689157557E+02 -0.14598663369E+03  0.36917670581E+03  0.00000000000E+00 0.  1.
        -13    1    3    3    0    0  0.91314993267E+02  0.27324636056E+02 -0.66834942335E+02  0.11641294279E+03  0.00000000000E+00 0. -1.
         22    1    1    2    0    0 -0.42579677248E+03  0.28364521501E+02 -0.14630062378E+04  0.15239733230E+04  0.00000000000E+00 0.  1.
<mgrwt>
<rscale>  0 0.11090286E+04</rscale>
<asrwt>0</asrwt>
<pdfrwt beam="1">  1        2 0.25671934E-01 0.11090286E+04</pdfrwt>
<pdfrwt beam="2">  1       -2 0.28349162E+00 0.11090286E+04</pdfrwt>
<totfact> 0.85392683E+00</totfact>
</mgrwt>
</event>
<event>
 6    1  0.1885829E-005  0.2967277E+04  0.7818608E-02  0.8253137E-01
          2   -1    0    0  501    0  0.00000000000E+00  0.00000000000E+00  0.14954228783E+04  0.14954228783E+04  0.00000000000E+00 0. -1.
         -2   -1    0    0    0  501 -0.00000000000E+00 -0.00000000000E+00 -0.14719468473E+04  0.14719468473E+04  0.00000000000E+00 0.  1.
         23    2    1    2    0    0 -0.10451421981E+04  0.72129935879E+03 -0.75275081095E+03  0.14790407668E+04  0.91284321390E+02 0.  0.
         11    1    3    3    0    0 -0.39199210900E+03  0.31524992716E+03 -0.26846205259E+03  0.57018611328E+03  0.00000000000E+00 0.  1.
        -11    1    3    3    0    0 -0.65315008912E+03  0.40604943163E+03 -0.48428875836E+03  0.90885465357E+03  0.00000000000E+00 0. -1.
         22    1    1    2    0    0  0.10451421981E+04 -0.72129935879E+03  0.77622684191E+03  0.14883289587E+04  0.00000000000E+00 0. -1.
<mgrwt>
<rscale>  0 0.29672769E+04</rscale>
<asrwt>0</asrwt>
<pdfrwt beam="1">  1        2 0.23006506E+00 0.29672769E+04</pdfrwt>
<pdfrwt beam="2">  1       -2 0.22645336E+00 0.29672769E+04</pdfrwt>
<totfact> 0.98639937E-01</totfact>
</mgrwt>
</event>
<event>
 6    1  0.1885829E-005  0.1956751E+04  0.7818608E-02  0.8627112E-01
         -2   -1    0    0    0  501 -0.00000000000E+00  0.00000000000E+00  0.10100896600E+04  0.10100896600E+04  0.00000000000E+00 0.  1.
          2   -1    0    0  501    0  0.00000000000E+00 -0.00000000000E+00 -0.94765662780E+03  0.94765662780E+03  0.00000000000E+00 0. -1.
         23    2    1    2    0    0 -0.72370668547E+03 -0.36080756680E+03  0.57862640296E+03  0.99837719149E+03  0.89526730363E+02 0.  0.
         13    1    3    3    0    0 -0.25593709218E+03 -0.10568619931E+03  0.15249646148E+03  0.31611475550E+03  0.00000000000E+00 0.  1.
        -13    1    3    3    0    0 -0.46776959329E+03 -0.25512136748E+03  0.42612994148E+03  0.68226243600E+03  0.00000000000E+00 0. -1.
         22    1    1    2    0    0  0.72370668547E+03  0.36080756680E+03 -0.51619337079E+03  0.95936909628E+03  0.00000000000E+00 0. -1.
<mgrwt>
<rscale>  0 0.19567505E+04</rscale>
<asrwt>0</asrwt>
<pdfrwt beam="1">  1        2 0.14579333E+00 0.19567505E+04</pdfrwt>
<pdfrwt beam="2">  1       -2 0.15539841E+00 0.19567505E+04</pdfrwt>
<totfact> 0.69241324E+00</totfact>
</mgrwt>
</event>
<event>
 6    1  0.1885829E-005  0.5632339E+04  0.7818608E-02  0.7737737E-01
         -2   -1    0    0    0  501 -0.00000000000E+00  0.00000000000E+00  0.30830142557E+04  0.30830142557E+04  0.00000000000E+00 0.  1.
          2   -1    0    0  501    0  0.00000000000E+00 -0.00000000000E+00 -0.25724207915E+04  0.25724207915E+04  0.00000000000E+00 0. -1.
         23    2    1    2    0    0 -0.14809766339E+04  0.12212838169E+04  0.23234066155E+04  0.30151476627E+04  0.89839719820E+02 0.  0.
         11    1    3    3    0    0 -0.69428536776E+03  0.63007314395E+03  0.11442754725E+04  0.14793210252E+04  0.00000000000E+00 0. -1.
        -11    1    3    3    0    0 -0.78669126617E+03  0.59121067295E+03  0.11791311429E+04  0.15358266375E+04  0.00000000000E+00 0.  1.
         22    1    1    2    0    0  0.14809766339E+04 -0.12212838169E+04 -0.18128131513E+04  0.26402873846E+04  0.00000000000E+00 0. -1.
<mgrwt>
<rscale>  0 0.56323388E+04</rscale>
<asrwt>0</asrwt>
<pdfrwt beam="1">  1        2 0.39575704E+00 0.56323388E+04</pdfrwt>
<pdfrwt beam="2">  1       -2 0.47430989E+00 0.56323388E+04</pdfrwt>
<totfact> 0.52932906E-03</totfact>
</mgrwt>
</event>
<event>
 6    1  0.1885829E-005  0.6430999E+03  0.7818608E-02  0.9819814E-01
         -2   -1    0    0    0  501 -0.00000000000E+00  0.00000000000E+00  0.24313568966E+03  0.24313568966E+03  0.00000000000E+00 0.  1.
          2   -1    0    0  501    0  0.00000000000E+00 -0.00000000000E+00 -0.42525375249E+03  0.42525375249E+03  0.00000000000E+00 0. -1.
         23    2    1    2    0    0 -0.23427017235E+03  0.17536428284E+03 -0.21354752871E+03  0.37407166036E+03  0.93230438790E+02 0.  0.
         11    1    3    3    0    0 -0.15175676043E+03  0.61837915507E+02 -0.89264388826E+02  0.18660700213E+03  0.00000000000E+00 0.  1.
        -11    1    3    3    0    0 -0.82513411920E+02  0.11352636733E+03 -0.12428313989E+03  0.18746465824E+03  0.00000000000E+00 0. -1.
         22    1    1    2    0    0  0.23427017235E+03 -0.17536428284E+03  0.31429465889E+02  0.29431778179E+03  0.00000000000E+00 0.  1.
<mgrwt>
<rscale>  0 0.64309988E+03</rscale>
<asrwt>0</asrwt>
<pdfrwt beam="1">  1        2 0.65423654E-01 0.64309988E+03</pdfrwt>
<pdfrwt beam="2">  1       -2 0.37405491E-01 0.64309988E+03</pdfrwt>
<totfact> 0.50383000E+02</totfact>
</mgrwt>
</event>
<event>
 6    1  0.1885829E-005  0.2835490E+04  0.7818608E-02  0.8292334E-01
         -2   -1    0    0    0  501 -0.00000000000E+00  0.00000000000E+00  0.27088560502E+04  0.27088560502E+04  0.00000000000E+00 0.  1.
          2   -1    0    0  501    0  0.00000000000E+00 -0.00000000000E+00 -0.74201097233E+03  0.74201097233E+03  0.00000000000E+00 0. -1.
         23    2    1    2    0    0  0.86109334250E+02 -0.53972142093E+03 -0.60575874944E+03  0.82084715912E+03  0.90179634432E+02 0.  0.
         11    1    3    3    0    0  0.37053360819E+02 -0.39925508207E+03 -0.39491793648E+03  0.56279458834E+03  0.00000000000E+00 0.  1.
        -11    1    3    3    0    0  0.49055973431E+02 -0.14046633886E+03 -0.21084081295E+03  0.25805257078E+03  0.00000000000E+00 0. -1.
         22    1    1    2    0    0 -0.86109334250E+02  0.53972142093E+03  0.25726038273E+04  0.26300198634E+04  0.00000000000E+00 0.  1.
<mgrwt>
<rscale>  0 0.28354900E+04</rscale>
<asrwt>0</asrwt>
<pdfrwt beam="1">  1        2 0.11415554E+00 0.28354900E+04</pdfrwt>
<pdfrwt beam="2">  1       -2 0.41674708E+00 0.28354900E+04</pdfrwt>
<totfact> 0.18992297E-01</totfact>
</mgrwt>
</event>
<event>
 6    1  0.1885829E-005  0.1931340E+04  0.7818608E-02  0.8639412E-01
          2   -1    0    0  501    0  0.00000000000E+00  0.00000000000E+00  0.19066523106E+04  0.19066523106E+04  0.00000000000E+00 0. -1.
         -2   -1    0    0    0  501 -0.00000000000E+00 -0.00000000000E+00 -0.48908673985E+03  0.48908673985E+03  0.00000000000E+00 0.  1.
         23    2    1    2    0    0 -0.79285959095E+03  0.47126740360E+03  0.36493442819E+03  0.99618497185E+03  0.92130692993E+02 0.  0.
         11    1    3    3    0    0 -0.24903803541E+03  0.99509179156E+02  0.10717686571E+03  0.28880599087E+03  0.00000000000E+00 0. -1.
        -11    1    3    3    0    0 -0.54382155554E+03  0.37175822444E+03  0.25775756248E+03  0.70737898098E+03  0.00000000000E+00 0.  1.
         22    1    1    2    0    0  0.79285959095E+03 -0.47126740360E+03  0.10526311426E+04  0.13995540786E+04  0.00000000000E+00 0.  1.
<mgrwt>
<rscale>  0 0.19313398E+04</rscale>
<asrwt>0</asrwt>
<pdfrwt beam="1">  1        2 0.29333112E+00 0.19313398E+04</pdfrwt>
<pdfrwt beam="2">  1       -2 0.75244115E-01 0.19313398E+04</pdfrwt>
<totfact> 0.11149911E+01</totfact>
</mgrwt>
</event>
<event>
 6    1  0.1885829E-005  0.1080211E+04  0.7818608E-02  0.9224697E-01
          2   -1    0    0  501    0  0.00000000000E+00  0.00000000000E+00  0.23926209448E+03  0.23926209448E+03  0.00000000000E+00 0. -1.
         -2   -1    0    0    0  501 -0.00000000000E+00 -0.00000000000E+00 -0.12192225729E+04  0.12192225729E+04  0.00000000000E+00 0.  1.
         23    2    1    2    0    0 -0.12356926382E+03  0.28124598438E+03 -0.10868853396E+04  0.11332130999E+04  0.92106035095E+02 0.  0.
         13    1    3    3    0    0 -0.33926070375E+02  0.60892364142E+02 -0.40663148109E+03  0.41256274635E+03  0.00000000000E+00 0.  1.
        -13    1    3    3    0    0 -0.89643193447E+02  0.22035362023E+03 -0.68025385849E+03  0.72065035355E+03  0.00000000000E+00 0. -1.
         22    1    1    2    0    0  0.12356926382E+03 -0.28124598438E+03  0.10692486115E+03  0.32527156750E+03  0.00000000000E+00 0. -1.
<mgrwt>
<rscale>  0 0.10802106E+04</rscale>
<asrwt>0</asrwt>
<pdfrwt beam="1">  1        2 0.36809554E-01 0.10802106E+04</pdfrwt>
<pdfrwt beam="2">  1       -2 0.18757270E+00 0.10802106E+04</pdfrwt>
<totfact> 0.22608182E+01</totfact>
</mgrwt>
</event>
<event>
 6    1  0.1885829E-005  0.4909128E+04  0.7818608E-02  0.7842680E-01
          2   -1    0    0  501    0  0.00000000000E+00  0.00000000000E+00  0.21958137025E+04  0.21958137025E+04  0.00000000000E+00 0. -1.
         -2   -1    0    0    0  501 -0.00000000000E+00 -0.00000000000E+00 -0.27438045918E+04  0.27438045918E+04  0.00000000000E+00 0.  1.
         23    2    1    2    0    0  0.22421925464E+03 -0.15218302423E+04 -0.21976185781E+04  0.26840666827E+04  0.91896583168E+02 0.  0.
         11    1    3    3    0    0  0.20946692795E+03 -0.13806956695E+04 -0.19466001991E+04  0.23957147704E+04  0.00000000000E+00 0.  1.
        -11    1    3    3    0    0  0.14752326688E+02 -0.14113457277E+03 -0.25101837901E+03  0.28835191238E+03  0.00000000000E+00 0. -1.
         22    1    1    2    0    0 -0.22421925464E+03  0.15218302423E+04  0.16496276888E+04  0.22555516115E+04  0.00000000000E+00 0. -1.
<mgrwt>
<rscale>  0 0.49091277E+04</rscale>
<asrwt>0</asrwt>
<pdfrwt beam="1">  1        2 0.33781749E+00 0.49091277E+04</pdfrwt>
<pdfrwt beam="2">  1       -2 0.42212378E+00 0.49091277E+04</pdfrwt>
<totfact> 0.20235567E-02</totfact>
</mgrwt>
</event>
<event>
 6    1  0.1885829E-005  0.3122110E+04  0.7818608E-02  0.8209696E-01
          1   -1    0    0  501    0  0.00000000000E+00  0.00000000000E+00  0.45900374413E+04  0.45900374413E+04  0.00000000000E+00 0. -1.
         -1   -1    0    0    0  501 -0.00000000000E+00 -0.00000000000E+00 -0.53090927745E+03  0.53090927745E+03  0.00000000000E+00 0.  1.
         23    2    1    2    0    0  0.14003686890E+04 -0.60487285248E+03  0.25645725551E+04  0.29853905616E+04  0.92848166536E+02 0.  0.
         11    1    3    3    0    0  0.89879157760E+03 -0.36809996580E+03  0.17107383765E+04  0.19672187671E+04  0.00000000000E+00 0. -1.
        -11    1    3    3    0    0  0.50157711138E+03 -0.23677288668E+03  0.85383417861E+03  0.10181717945E+04  0.00000000000E+00 0.  1.
         22    1    1    2    0    0 -0.14003686890E+04  0.60487285248E+03  0.14945556087E+04  0.21355561571E+04  0.00000000000E+00 0. -1.
<mgrwt>
<rscale>  0 0.31221105E+04</rscale>
<asrwt>0</asrwt>
<pdfrwt beam="1">  1        1 0.70615958E+00 0.31221105E+04</pdfrwt>
<pdfrwt beam="2">  1       -1 0.81678354E-01 0.31221105E+04</pdfrwt>
<totfact> 0.32549210E-02</totfact>
</mgrwt>
</event>
<event>
 6    1  0.1885829E-005  0.1538977E+04  0.7818608E-02  0.8858940E-01
          2   -1    0    0  501    0  0.00000000000E+00  0.00000000000E+00  0.25362167031E+04  0.25362167031E+04  0.00000000000E+00 0. -1.
         -2   -1    0    0    0  501 -0.00000000000E+00 -0.00000000000E+00 -0.23346287868E+03  0.23346287868E+03  0.00000000000E+00 0.  1.
         23    2    1    2    0    0 -0.12002279226E+03 -0.75485218783E+03  0.12648237875E+04  0.14806853779E+04  0.91884050242E+02 0.  0.
         11    1    3    3    0    0 -0.66649074423E+02 -0.21596455263E+03  0.32185614069E+03  0.39328636184E+03  0.00000000000E+00 0.  1.
        -11    1    3    3    0    0 -0.53373717840E+02 -0.53888763520E+03  0.94296764683E+03  0.10873990160E+04  0.00000000000E+00 0. -1.
         22    1    1    2    0    0  0.12002279226E+03  0.75485218783E+03  0.10379300369E+04  0.12889942039E+04  0.00000000000E+00 0.  1.
<mgrwt>
<rscale>  0 0.15389769E+04</rscale>
<asrwt>0</asrwt>
<pdfrwt beam="1">  1        2 0.39018717E+00 0.15389769E+04</pdfrwt>
<pdfrwt beam="2">  1       -2 0.35917368E-01 0.15389769E+04</pdfrwt>
<totfact> 0.23353451E+01</totfact>
</mgrwt>
</event>
<event>
 6    1  0.1885829E-005  0.1315455E+04  0.7818608E-02  0.9017398E-01
         -1   -1    0    0    0  501 -0.00000000000E+00  0.00000000000E+00  0.15030259740E+04  0.15030259740E+04  0.00000000000E+00 0.  1.
          1   -1    0    0  501    0  0.00000000000E+00 -0.00000000000E+00 -0.28782302927E+03  0.28782302927E+03  0.00000000000E+00 0. -1.
         23    2    1    2    0    0 -0.34176241970E+03 -0.23233334667E+03  0.13015454172E+04  0.13686697072E+04  0.91956287099E+02 0.  0.
         13    1    3    3    0    0 -0.19212088597E+03 -0.15481431450E+03  0.63775378971E+03  0.68381854545E+03  0.00000000000E+00 0.  1.
        -13    1    3    3    0    0 -0.14964153373E+03 -0.77519032171E+02  0.66379162750E+03  0.68485116171E+03  0.00000000000E+00 0. -1.
         22    1    1    2    0    0  0.34176241970E+03  0.23233334667E+03 -0.86342472503E+02  0.42217929610E+03  0.00000000000E+00 0. -1.
<mgrwt>
<rscale>  0 0.13154550E+04</rscale>
<asrwt>0</asrwt>
<pdfrwt beam="1">  1        1 0.44280467E-01 0.13154550E+04</pdfrwt>
<pdfrwt beam="2">  1       -1 0.23123476E+00 0.13154550E+04</pdfrwt>
<totfact> 0.84194674E+00</totfact>
</mgrwt>
</event>
<event>
 6    1  0.1885829E-005  0.2552559E+04  0.7818608E-02  0.8384497E-01
          2   -1    0    0  501    0  0.00000000000E+00  0.00000000000E+00  0.13434015577E+04  0.13434015577E+04  0.00000000000E+00 0. -1.
         -2   -1    0    0    0  501 -0.00000000000E+00 -0.00000000000E+00 -0.12125113006E+04  0.12125113006E+04  0.00000000000E+00 0.  1.
         23    2    1    2    0    0  0.99412798082E+03 -0.27881276553E+03  0.81396049433E+03  0.13179258028E+04  0.91486255860E+02 0.  0.
         11    1    3    3    0    0  0.21878249323E+03 -0.34802787571E+02  0.21023834964E+03  0.30541312517E+03  0.00000000000E+00 0.  1.
        -11    1    3    3    0    0  0.77534548760E+03 -0.24400997796E+03  0.60372214469E+03  0.10125126777E+04  0.00000000000E+00 0. -1.
         22    1    1    2    0    0 -0.99412798082E+03  0.27881276553E+03 -0.68307023721E+03  0.12379870554E+04  0.00000000000E+00 0.  1.
<mgrwt>
<rscale>  0 0.25525592E+04</rscale>
<asrwt>0</asrwt>
<pdfrwt beam="1">  1        2 0.20667716E+00 0.25525592E+04</pdfrwt>
<pdfrwt beam="2">  1       -2 0.18654020E+00 0.25525592E+04</pdfrwt>
<totfact> 0.22658058E+00</totfact>
</mgrwt>
</event>
<event>
 6    1  0.1885829E-005  0.2151507E+04  0.7818608E-02  0.8538887E-01
         -2   -1    0    0    0  501 -0.00000000000E+00  0.00000000000E+00  0.25562948302E+03  0.25562948302E+03  0.00000000000E+00 0.  1.
          2   -1    0    0  501    0  0.00000000000E+00 -0.00000000000E+00 -0.45270440033E+04  0.45270440033E+04  0.00000000000E+00 0. -1.
         23    2    1    2    0    0 -0.32214708780E+03 -0.95883913686E+03 -0.29407817276E+04  0.31112265486E+04  0.91554524836E+02 0.  0.
         11    1    3    3    0    0 -0.18056457567E+03 -0.44103258507E+03 -0.14870403127E+04  0.15615384077E+04  0.00000000000E+00 0. -1.
        -11    1    3    3    0    0 -0.14158251213E+03 -0.51780655179E+03 -0.14537414149E+04  0.15496881409E+04  0.00000000000E+00 0.  1.
         22    1    1    2    0    0  0.32214708780E+03  0.95883913686E+03 -0.13306327927E+04  0.16714469377E+04  0.00000000000E+00 0.  1.
<mgrwt>
<rscale>  0 0.21515073E+04</rscale>
<asrwt>0</asrwt>
<pdfrwt beam="1">  1        2 0.69646829E+00 0.21515073E+04</pdfrwt>
<pdfrwt beam="2">  1       -2 0.39327614E-01 0.21515073E+04</pdfrwt>
<totfact> 0.65798450E-01</totfact>
</mgrwt>
</event>
<event>
 6    1  0.1885829E-005  0.2186568E+04  0.7818608E-02  0.8524040E-01
         -2   -1    0    0    0  501 -0.00000000000E+00  0.00000000000E+00  0.11293811732E+04  0.11293811732E+04  0.00000000000E+00 0.  1.
          2   -1    0    0  501    0  0.00000000000E+00 -0.00000000000E+00 -0.10583402142E+04  0.10583402142E+04  0.00000000000E+00 0. -1.
         23    2    1    2    0    0 -0.45256846543E+03  0.78014145440E+03  0.65030214337E+03  0.11158154100E+04  0.93339416419E+02 0.  0.
         13    1    3    3    0    0 -0.39042331230E+02  0.12328850096E+03  0.11377422706E+03  0.17224672084E+03  0.00000000000E+00 0. -1.
        -13    1    3    3    0    0 -0.41352613420E+03  0.65685295344E+03  0.53652791631E+03  0.94356868912E+03  0.00000000000E+00 0.  1.
         22    1    1    2    0    0  0.45256846543E+03 -0.78014145440E+03 -0.57926118436E+03  0.10719059774E+04  0.00000000000E+00 0. -1.
<mgrwt>
<rscale>  0 0.21865676E+04</rscale>
<asrwt>0</asrwt>
<pdfrwt beam="1">  1        2 0.16282157E+00 0.21865676E+04</pdfrwt>
<pdfrwt beam="2">  1       -2 0.17375095E+00 0.21865676E+04</pdfrwt>
<totfact> 0.42425589E+00</totfact>
</mgrwt>
</event>
<event>
 6    1  0.1885829E-005  0.1099555E+04  0.7818608E-02  0.9205626E-01
          2   -1    0    0  501    0  0.00000000000E+00  0.00000000000E+00  0.79487393952E+03  0.79487393952E+03  0.00000000000E+00 0. -1.
         -2   -1    0    0    0  501 -0.00000000000E+00 -0.00000000000E+00 -0.38025529804E+03  0.38025529804E+03  0.00000000000E+00 0.  1.
         23    2    1    2    0    0  0.30519730438E+03 -0.45086991335E+03  0.24863450815E+03  0.60593699773E+03  0.94400493705E+02 0.  0.
         11    1    3    3    0    0  0.24174601070E+03 -0.40093872217E+03  0.23570830687E+03  0.52416733831E+03  0.00000000000E+00 0.  1.
        -11    1    3    3    0    0  0.63451293675E+02 -0.49931191184E+02  0.12926201275E+02  0.81769659419E+02  0.00000000000E+00 0. -1.
         22    1    1    2    0    0 -0.30519730438E+03  0.45086991335E+03  0.16598413334E+03  0.56919223983E+03  0.00000000000E+00 0.  1.
<mgrwt>
<rscale>  0 0.10995545E+04</rscale>
<asrwt>0</asrwt>
<pdfrwt beam="1">  1        2 0.12228830E+00 0.10995545E+04</pdfrwt>
<pdfrwt beam="2">  1       -2 0.58500815E-01 0.10995545E+04</pdfrwt>
<totfact> 0.94274085E+01</totfact>
</mgrwt>
</event>
<event>
 6    1  0.1885829E-005  0.1797199E+04  0.7818608E-02  0.8707791E-01
          1   -1    0    0  501    0  0.00000000000E+00  0.00000000000E+00  0.34671174179E+04  0.34671174179E+04  0.00000000000E+00 0. -1.
         -1   -1    0    0    0  501 -0.00000000000E+00 -0.00000000000E+00 -0.23289683659E+03  0.23289683659E+03  0.00000000000E+00 0.  1.
         23    2    1    2    0    0  0.47469678681E+03 -0.72549919178E+03  0.11534063075E+04  0.14458017182E+04  0.91161293913E+02 0.  0.
         13    1    3    3    0    0  0.39717647572E+03 -0.64102090868E+03  0.10391582533E+04  0.12839419121E+04  0.00000000000E+00 0. -1.
        -13    1    3    3    0    0  0.77520311094E+02 -0.84478283102E+02  0.11424805423E+03  0.16185980614E+03  0.00000000000E+00 0.  1.
         22    1    1    2    0    0 -0.47469678681E+03  0.72549919178E+03  0.20808142738E+04  0.22542125363E+04  0.00000000000E+00 0. -1.
<mgrwt>
<rscale>  0 0.17971986E+04</rscale>
<asrwt>0</asrwt>
<pdfrwt beam="1">  1        1 0.53340264E+00 0.17971986E+04</pdfrwt>
<pdfrwt beam="2">  1       -1 0.35830285E-01 0.17971986E+04</pdfrwt>
<totfact> 0.18741799E+00</totfact>
</mgrwt>
</event>
<event>
 6    1  0.1885829E-005  0.3348198E+04  0.7818608E-02  0.8150739E-01
          2   -1    0    0  501    0  0.00000000000E+00  0.00000000000E+00  0.15278493727E+04  0.15278493727E+04  0.00000000000E+00 0. -1.
         -2   -1    0    0    0  501 -0.00000000000E+00 -0.00000000000E+00 -0.18343478771E+04  0.18343478771E+04  0.00000000000E+00 0.  1.
         23    2    1    2    0    0  0.87103112130E+03  0.67891429667E+03 -0.14150957273E+04  0.17973945022E+04  0.92256395313E+02 0.  0.
         13    1    3    3    0    0  0.33982028857E+03  0.21002330354E+03 -0.49486627641E+03  0.63598761630E+03  0.00000000000E+00 0. -1.
        -13    1    3    3    0    0  0.53121083273E+03  0.46889099312E+03 -0.92022945090E+03  0.11614068859E+04  0.00000000000E+00 0.  1.
         22    1    1    2    0    0 -0.87103112130E+03 -0.67891429667E+03  0.11085972229E+04  0.15648027476E+04  0.00000000000E+00 0. -1.
<mgrwt>
<rscale>  0 0.33481979E+04</rscale>
<asrwt>0</asrwt>
<pdfrwt beam="1">  1        2 0.23505375E+00 0.33481979E+04</pdfrwt>
<pdfrwt beam="2">  1       -2 0.28220736E+00 0.33481979E+04</pdfrwt>
<totfact> 0.41580809E-01</totfact>
</mgrwt>
</event>
<event>
 6    1  0.1885829E-005  0.1782451E+04  0.7818608E-02  0.8715688E-01
         -2   -1    0    0    0  501 -0.00000000000E+00  0.00000000000E+00  0.40466416576E+03  0.40466416576E+03  0.00000000000E+00 0. -1.
          2   -1    0    0  501    0  0.00000000000E+00 -0.00000000000E+00 -0.19628203773E+04  0.19628203773E+04  0.00000000000E+00 0.  1.
         23    2    1    2    0    0 -0.56214545290E+03  0.20003030624E+03  0.94085977596E+02  0.61080475290E+03  0.90612589378E+02 0.  0.
         11    1    3    3    0    0 -0.47887969696E+03  0.13626902285E+03  0.66090780567E+02  0.50225790389E+03  0.00000000000E+00 0. -1.
        -11    1    3    3    0    0 -0.83265755940E+02  0.63761283395E+02  0.27995197029E+02  0.10854684901E+03  0.00000000000E+00 0.  1.
         22    1    1    2    0    0  0.56214545290E+03 -0.20003030624E+03 -0.16522421891E+04  0.17566797902E+04  0.00000000000E+00 0.  1.
<mgrwt>
<rscale>  0 0.17824512E+04</rscale>
<asrwt>0</asrwt>
<pdfrwt beam="1">  1        2 0.30197237E+00 0.17824512E+04</pdfrwt>
<pdfrwt beam="2">  1       -2 0.62256025E-01 0.17824512E+04</pdfrwt>
<totfact> 0.15862112E+01</totfact>
</mgrwt>
</event>
<event>
 6    1  0.1885829E-005  0.2737186E+04  0.7818608E-02  0.8323039E-01
         -2   -1    0    0    0  501 -0.00000000000E+00  0.00000000000E+00  0.63030528672E+03  0.63030528672E+03  0.00000000000E+00 0. -1.
          2   -1    0    0  501    0  0.00000000000E+00 -0.00000000000E+00 -0.29716491282E+04  0.29716491282E+04  0.00000000000E+00 0.  1.
         23    2    1    2    0    0  0.48592440815E+03 -0.17618275973E+03  0.49343539157E+03  0.72043811349E+03  0.91595275302E+02 0.  0.
         11    1    3    3    0    0  0.25958924312E+03 -0.45899695180E+02  0.23894401742E+03  0.35579151285E+03  0.00000000000E+00 0. -1.
        -11    1    3    3    0    0  0.22633516504E+03 -0.13028306455E+03  0.25449137415E+03  0.36464660064E+03  0.00000000000E+00 0.  1.
         22    1    1    2    0    0 -0.48592440815E+03  0.17618275973E+03 -0.28347792330E+04  0.28815163014E+04  0.00000000000E+00 0.  1.
<mgrwt>
<rscale>  0 0.27371855E+04</rscale>
<asrwt>0</asrwt>
<pdfrwt beam="1">  1        2 0.45717678E+00 0.27371855E+04</pdfrwt>
<pdfrwt beam="2">  1       -2 0.96970047E-01 0.27371855E+04</pdfrwt>
<totfact> 0.14085506E+00</totfact>
</mgrwt>
</event>
<event>
 6    1  0.1885829E-005  0.2711792E+04  0.7818608E-02  0.8331189E-01
          2   -1    0    0  501    0  0.00000000000E+00  0.00000000000E+00  0.23579942662E+04  0.23579942662E+04  0.00000000000E+00 0.  1.
         -2   -1    0    0    0  501 -0.00000000000E+00 -0.00000000000E+00 -0.77966845901E+03  0.77966845901E+03  0.00000000000E+00 0. -1.
         23    2    1    2    0    0  0.25700958151E+03 -0.48277065574E+03  0.22236658540E+04  0.22917400296E+04  0.90890603832E+02 0.  0.
         13    1    3    3    0    0  0.25054701549E+03 -0.40486782648E+03  0.18924942939E+04  0.19514677595E+04  0.00000000000E+00 0. -1.
        -13    1    3    3    0    0  0.64625660126E+01 -0.77902829254E+02  0.33117156014E+03  0.34027227012E+03  0.00000000000E+00 0.  1.
         22    1    1    2    0    0 -0.25700958151E+03  0.48277065574E+03 -0.64534004679E+03  0.84592269565E+03  0.00000000000E+00 0. -1.
<mgrwt>
<rscale>  0 0.27117918E+04</rscale>
<asrwt>0</asrwt>
<pdfrwt beam="1">  1        2 0.36276835E+00 0.27117918E+04</pdfrwt>
<pdfrwt beam="2">  1       -2 0.11994899E+00 0.27117918E+04</pdfrwt>
<totfact> 0.19572226E+00</totfact>
</mgrwt>
</event>
<event>
 6    1  0.1885829E-005  0.1896720E+04  0.7818608E-02  0.8656491E-01
          2   -1    0    0  501    0  0.00000000000E+00  0.00000000000E+00  0.19729307852E+04  0.19729307852E+04  0.00000000000E+00 0. -1.
         -2   -1    0    0    0  501 -0.00000000000E+00 -0.00000000000E+00 -0.45586327574E+03  0.45586327574E+03  0.00000000000E+00 0.  1.
         23    2    1    2    0    0 -0.43800568368E+03 -0.59506573084E+03  0.39323464684E+01  0.74489079043E+03  0.94311310966E+02 0.  0.
         11    1    3    3    0    0 -0.21776907834E+03 -0.29994512877E+03 -0.45121223216E+02  0.37339841529E+03  0.00000000000E+00 0. -1.
        -11    1    3    3    0    0 -0.22023660534E+03 -0.29512060207E+03  0.49053569684E+02  0.37149237515E+03  0.00000000000E+00 0.  1.
         22    1    1    2    0    0  0.43800568368E+03  0.59506573084E+03  0.15131351629E+04  0.16839032705E+04  0.00000000000E+00 0. -1.
<mgrwt>
<rscale>  0 0.18967200E+04</rscale>
<asrwt>0</asrwt>
<pdfrwt beam="1">  1        2 0.30352781E+00 0.18967200E+04</pdfrwt>
<pdfrwt beam="2">  1       -2 0.70132813E-01 0.18967200E+04</pdfrwt>
<totfact> 0.11994870E+01</totfact>
</mgrwt>
</event>
<event>
 6    1  0.3070240E-005  0.3700627E+04  0.7818608E-02  0.8067823E-01
          2   -1    0    0  501    0  0.00000000000E+00  0.00000000000E+00  0.20965279531E+04  0.20965279531E+04  0.00000000000E+00 0. -1.
         -2   -1    0    0    0  501 -0.00000000000E+00 -0.00000000000E+00 -0.16330142544E+04  0.16330142544E+04  0.00000000000E+00 0.  1.
         23    2    1    2    0    0  0.61051717765E+02  0.16776730197E+04  0.10134935386E+04  0.19629658866E+04  0.88044566113E+02 0.  0.
         13    1    3    3    0    0 -0.11627623005E+02  0.87966578840E+03  0.52379772151E+03  0.10238706725E+04  0.00000000000E+00 0.  1.
        -13    1    3    3    0    0  0.72679340770E+02  0.79800723133E+03  0.48969581708E+03  0.93909521408E+03  0.00000000000E+00 0. -1.
         22    1    1    2    0    0 -0.61051717765E+02 -0.16776730197E+04 -0.54997983985E+03  0.17665763209E+04  0.00000000000E+00 0.  1.
<mgrwt>
<rscale>  0 0.37006270E+04</rscale>
<asrwt>0</asrwt>
<pdfrwt beam="1">  1        2 0.32254276E+00 0.37006270E+04</pdfrwt>
<pdfrwt beam="2">  1       -2 0.25123296E+00 0.37006270E+04</pdfrwt>
<totfact> 0.30130934E-01</totfact>
</mgrwt>
</event>
<event>
 6    1  0.1885829E-005  0.2288669E+04  0.7818608E-02  0.8482402E-01
         -2   -1    0    0    0  501 -0.00000000000E+00  0.00000000000E+00  0.10925217137E+04  0.10925217137E+04  0.00000000000E+00 0.  1.
          2   -1    0    0  501    0  0.00000000000E+00 -0.00000000000E+00 -0.11986045023E+04  0.11986045023E+04  0.00000000000E+00 0. -1.
         23    2    1    2    0    0  0.32853963984E+03  0.51272059613E+03  0.91305608640E+03  0.11039174091E+04  0.11891814189E+03 0.  0.
         11    1    3    3    0    0  0.36003434327E+02  0.12325519666E+03  0.25150763639E+03  0.28239012367E+03  0.00000000000E+00 0. -1.
        -11    1    3    3    0    0  0.29253620551E+03  0.38946539948E+03  0.66154845001E+03  0.82152728539E+03  0.00000000000E+00 0.  1.
         22    1    1    2    0    0 -0.32853963984E+03 -0.51272059613E+03 -0.10191388750E+04  0.11872088069E+04  0.00000000000E+00 0. -1.
<mgrwt>
<rscale>  0 0.22886690E+04</rscale>
<asrwt>0</asrwt>
<pdfrwt beam="1">  1        2 0.18440069E+00 0.22886690E+04</pdfrwt>
<pdfrwt beam="2">  1       -2 0.16808026E+00 0.22886690E+04</pdfrwt>
<totfact> 0.37882623E+00</totfact>
</mgrwt>
</event>
<event>
 6    1  0.1885829E-005  0.4807823E+04  0.7818608E-02  0.7858856E-01
          2   -1    0    0  501    0  0.00000000000E+00  0.00000000000E+00  0.36184060972E+04  0.36184060972E+04  0.00000000000E+00 0.  1.
         -2   -1    0    0    0  501 -0.00000000000E+00 -0.00000000000E+00 -0.15970539866E+04  0.15970539866E+04  0.00000000000E+00 0. -1.
         23    2    1    2    0    0 -0.23530831833E+03 -0.11319683411E+04  0.32962874895E+04  0.34943608566E+04  0.91237343501E+02 0.  0.
         13    1    3    3    0    0 -0.52202189378E+02 -0.15439060412E+03  0.54367667223E+03  0.56757893825E+03  0.00000000000E+00 0. -1.
        -13    1    3    3    0    0 -0.18310612895E+03 -0.97757773694E+03  0.27526108172E+04  0.29267819183E+04  0.00000000000E+00 0.  1.
         22    1    1    2    0    0  0.23530831833E+03  0.11319683411E+04 -0.12749353788E+04  0.17210992272E+04  0.00000000000E+00 0. -1.
<mgrwt>
<rscale>  0 0.48078227E+04</rscale>
<asrwt>0</asrwt>
<pdfrwt beam="1">  1        2 0.55667786E+00 0.48078227E+04</pdfrwt>
<pdfrwt beam="2">  1       -2 0.24570061E+00 0.48078227E+04</pdfrwt>
<totfact> 0.33726755E-02</totfact>
</mgrwt>
</event>
<event>
 6    1  0.1885829E-005  0.9265934E+03  0.7818608E-02  0.9392936E-01
         -2   -1    0    0    0  501 -0.00000000000E+00  0.00000000000E+00  0.61341041618E+03  0.61341041618E+03  0.00000000000E+00 0.  1.
          2   -1    0    0  501    0  0.00000000000E+00 -0.00000000000E+00 -0.34991877574E+03  0.34991877574E+03  0.00000000000E+00 0. -1.
         23    2    1    2    0    0  0.38985255353E+03 -0.50173536114E+02 -0.11309805914E+03  0.41897434530E+03  0.90807124282E+02 0.  0.
         13    1    3    3    0    0  0.14259273191E+03 -0.21810733144E+02 -0.87657033576E+02  0.16879618126E+03  0.00000000000E+00 0.  1.
        -13    1    3    3    0    0  0.24725982162E+03 -0.28362802971E+02 -0.25441025561E+02  0.25017816404E+03  0.00000000000E+00 0. -1.
         22    1    1    2    0    0 -0.38985255353E+03  0.50173536114E+02  0.37658969958E+03  0.54435484663E+03  0.00000000000E+00 0.  1.
<mgrwt>
<rscale>  0 0.92659338E+03</rscale>
<asrwt>0</asrwt>
<pdfrwt beam="1">  1        2 0.53833658E-01 0.92659338E+03</pdfrwt>
<pdfrwt beam="2">  1       -2 0.94370833E-01 0.92659338E+03</pdfrwt>
<totfact> 0.87706619E+01</totfact>
</mgrwt>
</event>
<event>
 6    1  0.1885829E-005  0.1989785E+04  0.7818608E-02  0.8611412E-01
         -2   -1    0    0    0  501 -0.00000000000E+00  0.00000000000E+00  0.11884331731E+04  0.11884331731E+04  0.00000000000E+00 0.  1.
          2   -1    0    0  501    0  0.00000000000E+00 -0.00000000000E+00 -0.83287025709E+03  0.83287025709E+03  0.00000000000E+00 0. -1.
         23    2    1    2    0    0  0.90404436282E+03 -0.59582851001E+02  0.59039603848E+03  0.10853584951E+04  0.92678231196E+02 0.  0.
         13    1    3    3    0    0  0.37955740776E+03 -0.32655005017E+02  0.19492305661E+03  0.42793127151E+03  0.00000000000E+00 0.  1.
        -13    1    3    3    0    0  0.52448695506E+03 -0.26927845984E+02  0.39547298188E+03  0.65742722358E+03  0.00000000000E+00 0. -1.
         22    1    1    2    0    0 -0.90404436282E+03  0.59582851001E+02 -0.23483312249E+03  0.93594493508E+03  0.00000000000E+00 0. -1.
<mgrwt>
<rscale>  0 0.19897846E+04</rscale>
<asrwt>0</asrwt>
<pdfrwt beam="1">  1        2 0.12813388E+00 0.19897846E+04</pdfrwt>
<pdfrwt beam="2">  1       -2 0.18283587E+00 0.19897846E+04</pdfrwt>
<totfact> 0.52573715E+00</totfact>
</mgrwt>
</event>
<event>
 6    1  0.1885829E-005  0.4186289E+04  0.7818608E-02  0.7967986E-01
         -2   -1    0    0    0  501 -0.00000000000E+00  0.00000000000E+00  0.36187705183E+04  0.36187705183E+04  0.00000000000E+00 0.  1.
          2   -1    0    0  501    0  0.00000000000E+00 -0.00000000000E+00 -0.12107021658E+04  0.12107021658E+04  0.00000000000E+00 0. -1.
         23    2    1    2    0    0 -0.16197277032E+04 -0.45220014510E+03 -0.23119543805E+03  0.16999813260E+04  0.92099807566E+02 0.  0.
         13    1    3    3    0    0 -0.95480093696E+03 -0.24165673233E+03 -0.96431500825E+02  0.98961701675E+03  0.00000000000E+00 0. -1.
        -13    1    3    3    0    0 -0.66492676622E+03 -0.21054341277E+03 -0.13476393722E+03  0.71036430927E+03  0.00000000000E+00 0.  1.
         22    1    1    2    0    0  0.16197277032E+04  0.45220014510E+03  0.26392637906E+04  0.31294913580E+04  0.00000000000E+00 0.  1.
<mgrwt>
<rscale>  0 0.41862887E+04</rscale>
<asrwt>0</asrwt>
<pdfrwt beam="1">  1        2 0.18626187E+00 0.41862887E+04</pdfrwt>
<pdfrwt beam="2">  1       -2 0.55673392E+00 0.41862887E+04</pdfrwt>
<totfact> 0.11475915E-02</totfact>
</mgrwt>
</event>
<event>
 6    1  0.1885829E-005  0.1852568E+04  0.7818608E-02  0.8678833E-01
         -2   -1    0    0    0  501 -0.00000000000E+00  0.00000000000E+00  0.19973037727E+04  0.19973037727E+04  0.00000000000E+00 0.  1.
          2   -1    0    0  501    0  0.00000000000E+00 -0.00000000000E+00 -0.42957999913E+03  0.42957999913E+03  0.00000000000E+00 0. -1.
         23    2    1    2    0    0 -0.70527072169E+03 -0.39886502235E+03  0.20351558554E+03  0.84020041426E+03  0.89543540446E+02 0.  0.
         11    1    3    3    0    0 -0.53330564153E+03 -0.28661307487E+03  0.11355319540E+03  0.61600023552E+03  0.00000000000E+00 0.  1.
        -11    1    3    3    0    0 -0.17196508016E+03 -0.11225194748E+03  0.89962390134E+02  0.22420017873E+03  0.00000000000E+00 0. -1.
         22    1    1    2    0    0  0.70527072169E+03  0.39886502235E+03  0.13642081880E+04  0.15866833576E+04  0.00000000000E+00 0. -1.
<mgrwt>
<rscale>  0 0.18525677E+04</rscale>
<asrwt>0</asrwt>
<pdfrwt beam="1">  1        2 0.66089232E-01 0.18525677E+04</pdfrwt>
<pdfrwt beam="2">  1       -2 0.30727750E+00 0.18525677E+04</pdfrwt>
<totfact> 0.19807866E+00</totfact>
</mgrwt>
</event>
<event>
 6    1  0.1885829E-005  0.1798864E+04  0.7818608E-02  0.8706904E-01
          2   -1    0    0  501    0  0.00000000000E+00  0.00000000000E+00  0.76412979609E+03  0.76412979609E+03  0.00000000000E+00 0. -1.
         -2   -1    0    0    0  501 -0.00000000000E+00 -0.00000000000E+00 -0.10586922568E+04  0.10586922568E+04  0.00000000000E+00 0.  1.
         23    2    1    2    0    0  0.47960987992E+03 -0.88128659810E+02  0.61556317939E+03  0.79029070791E+03  0.88595020184E+02 0.  0.
         13    1    3    3    0    0  0.18984246119E+03 -0.58074965931E+02  0.30990248587E+03  0.36803860190E+03  0.00000000000E+00 0. -1.
        -13    1    3    3    0    0  0.28976741873E+03 -0.30053693879E+02  0.30566069351E+03  0.42225210601E+03  0.00000000000E+00 0.  1.
         22    1    1    2    0    0 -0.47960987992E+03  0.88128659810E+02 -0.91012564012E+03  0.10325313450E+04  0.00000000000E+00 0.  1.
<mgrwt>
<rscale>  0 0.17988644E+04</rscale>
<asrwt>0</asrwt>
<pdfrwt beam="1">  1        2 0.11755843E+00 0.17988644E+04</pdfrwt>
<pdfrwt beam="2">  1       -2 0.16287573E+00 0.17988644E+04</pdfrwt>
<totfact> 0.82856805E+00</totfact>
</mgrwt>
</event>
<event>
 6    1  0.1885829E-005  0.1539926E+04  0.7818608E-02  0.8858328E-01
         -2   -1    0    0    0  501 -0.00000000000E+00  0.00000000000E+00  0.11952064490E+04  0.11952064490E+04  0.00000000000E+00 0.  1.
          2   -1    0    0  501    0  0.00000000000E+00 -0.00000000000E+00 -0.49601752101E+03  0.49601752101E+03  0.00000000000E+00 0. -1.
         23    2    1    2    0    0  0.93867803455E+02  0.39958221141E+03 -0.36092053036E+03  0.55442619912E+03  0.92992864405E+02 0.  0.
         13    1    3    3    0    0  0.14906948043E+02  0.25714413788E+03 -0.23318123694E+03  0.34744613108E+03  0.00000000000E+00 0. -1.
        -13    1    3    3    0    0  0.78960855412E+02  0.14243807353E+03 -0.12773929343E+03  0.20698006804E+03  0.00000000000E+00 0.  1.
         22    1    1    2    0    0 -0.93867803455E+02 -0.39958221141E+03  0.10601094583E+04  0.11367977709E+04  0.00000000000E+00 0.  1.
<mgrwt>
<rscale>  0 0.15399264E+04</rscale>
<asrwt>0</asrwt>
<pdfrwt beam="1">  1        2 0.76310388E-01 0.15399264E+04</pdfrwt>
<pdfrwt beam="2">  1       -2 0.18387791E+00 0.15399264E+04</pdfrwt>
<totfact> 0.10199513E+01</totfact>
</mgrwt>
</event>
<event>
 6    1  0.1885829E-005  0.3748068E+04  0.7818608E-02  0.8057392E-01
          2   -1    0    0  501    0  0.00000000000E+00  0.00000000000E+00  0.36079851079E+04  0.36079851079E+04  0.00000000000E+00 0.  1.
         -2   -1    0    0    0  501 -0.00000000000E+00 -0.00000000000E+00 -0.97339740598E+03  0.97339740598E+03  0.00000000000E+00 0. -1.
         23    2    1    2    0    0 -0.16331656301E+04  0.61736759121E+02  0.24362672742E+04  0.29350616476E+04  0.90262070804E+02 0.  0.
         13    1    3    3    0    0 -0.91244562332E+03  0.38498750509E+02  0.12808810285E+04  0.15731164542E+04  0.00000000000E+00 0. -1.
        -13    1    3    3    0    0 -0.72072000675E+03  0.23238008612E+02  0.11553862457E+04  0.13619451934E+04  0.00000000000E+00 0.  1.
         22    1    1    2    0    0  0.16331656301E+04 -0.61736759121E+02  0.19832042774E+03  0.16463208663E+04  0.00000000000E+00 0.  1.
<mgrwt>
<rscale>  0 0.37480680E+04</rscale>
<asrwt>0</asrwt>
<pdfrwt beam="1">  1        2 0.55507462E+00 0.37480680E+04</pdfrwt>
<pdfrwt beam="2">  1       -2 0.14975345E+00 0.37480680E+04</pdfrwt>
<totfact> 0.16475712E-01</totfact>
</mgrwt>
</event>
<event>
 6    1  0.1885829E-005  0.2440754E+04  0.7818608E-02  0.8424402E-01
          4   -1    0    0  501    0  0.00000000000E+00  0.00000000000E+00  0.14495590594E+04  0.14495590594E+04  0.00000000000E+00 0. -1.
         -4   -1    0    0    0  501 -0.00000000000E+00 -0.00000000000E+00 -0.10274295673E+04  0.10274295673E+04  0.00000000000E+00 0.  1.
         23    2    1    2    0    0 -0.97410280019E+03 -0.18840338876E+03 -0.50625228676E+03  0.11182153456E+04  0.98701971353E+02 0.  0.
         13    1    3    3    0    0 -0.28133684294E+03 -0.10040783670E+03 -0.15041489028E+03  0.33444998443E+03  0.00000000000E+00 0.  1.
        -13    1    3    3    0    0 -0.69276595724E+03 -0.87995552060E+02 -0.35583739649E+03  0.78376536121E+03  0.00000000000E+00 0. -1.
         22    1    1    2    0    0  0.97410280019E+03  0.18840338876E+03  0.92838177884E+03  0.13587732811E+04  0.00000000000E+00 0. -1.
<mgrwt>
<rscale>  0 0.24407538E+04</rscale>
<asrwt>0</asrwt>
<pdfrwt beam="1">  1        4 0.22300909E+00 0.24407538E+04</pdfrwt>
<pdfrwt beam="2">  1       -4 0.15806609E+00 0.24407538E+04</pdfrwt>
<totfact> 0.43174542E-02</totfact>
</mgrwt>
</event>
<event>
 6    1  0.1885829E-005  0.3344269E+04  0.7818608E-02  0.8151722E-01
         -2   -1    0    0    0  501 -0.00000000000E+00  0.00000000000E+00  0.78726209050E+03  0.78726209050E+03  0.00000000000E+00 0.  1.
          2   -1    0    0  501    0  0.00000000000E+00 -0.00000000000E+00 -0.35515914977E+04  0.35515914977E+04  0.00000000000E+00 0. -1.
         23    2    1    2    0    0 -0.63503484144E+03 -0.88775368396E+03 -0.30245927068E+04  0.32167516150E+04  0.89185523401E+02 0.  0.
         11    1    3    3    0    0 -0.36375069092E+03 -0.46281112367E+03 -0.15240618421E+04  0.16337910515E+04  0.00000000000E+00 0.  1.
        -11    1    3    3    0    0 -0.27128415051E+03 -0.42494256029E+03 -0.15005308647E+04  0.15829605636E+04  0.00000000000E+00 0. -1.
         22    1    1    2    0    0  0.63503484144E+03  0.88775368396E+03  0.26026329955E+03  0.11221019732E+04  0.00000000000E+00 0.  1.
<mgrwt>
<rscale>  0 0.33442687E+04</rscale>
<asrwt>0</asrwt>
<pdfrwt beam="1">  1        2 0.54639870E+00 0.33442687E+04</pdfrwt>
<pdfrwt beam="2">  1       -2 0.12111724E+00 0.33442687E+04</pdfrwt>
<totfact> 0.32234534E-01</totfact>
</mgrwt>
</event>
<event>
 6    1  0.1885829E-005  0.3679847E+04  0.7818608E-02  0.8072443E-01
         -2   -1    0    0    0  501 -0.00000000000E+00  0.00000000000E+00  0.12497751479E+04  0.12497751479E+04  0.00000000000E+00 0.  1.
          2   -1    0    0  501    0  0.00000000000E+00 -0.00000000000E+00 -0.27087425681E+04  0.27087425681E+04  0.00000000000E+00 0. -1.
         23    2    1    2    0    0 -0.68457792030E+03 -0.56522324654E+03 -0.24621447811E+04  0.26189323081E+04  0.92332355034E+02 0.  0.
         13    1    3    3    0    0 -0.49106109499E+03 -0.35199820192E+03 -0.17044509615E+04  0.18083685502E+04  0.00000000000E+00 0.  1.
        -13    1    3    3    0    0 -0.19351682530E+03 -0.21322504462E+03 -0.75769381962E+03  0.81056375790E+03  0.00000000000E+00 0. -1.
         22    1    1    2    0    0  0.68457792030E+03  0.56522324654E+03  0.10031773609E+04  0.13395854078E+04  0.00000000000E+00 0.  1.
<mgrwt>
<rscale>  0 0.36798474E+04</rscale>
<asrwt>0</asrwt>
<pdfrwt beam="1">  1        2 0.41672963E+00 0.36798474E+04</pdfrwt>
<pdfrwt beam="2">  1       -2 0.19227310E+00 0.36798474E+04</pdfrwt>
<totfact> 0.31788236E-01</totfact>
</mgrwt>
</event>
<event>
 6    1  0.1885829E-005  0.3380175E+04  0.7818608E-02  0.8142789E-01
         -2   -1    0    0    0  501 -0.00000000000E+00  0.00000000000E+00  0.99836515527E+03  0.99836515527E+03  0.00000000000E+00 0.  1.
          2   -1    0    0  501    0  0.00000000000E+00 -0.00000000000E+00 -0.28610738783E+04  0.28610738783E+04  0.00000000000E+00 0. -1.
         23    2    1    2    0    0  0.52955071338E+03  0.14281559340E+04 -0.99146223661E+02  0.15291587888E+04  0.91887419031E+02 0.  0.
         13    1    3    3    0    0  0.29618154874E+03  0.77722268545E+03 -0.88946415587E+01  0.83179187736E+03  0.00000000000E+00 0. -1.
        -13    1    3    3    0    0  0.23336916463E+03  0.65093324860E+03 -0.90251582103E+02  0.69736691146E+03  0.00000000000E+00 0.  1.
         22    1    1    2    0    0 -0.52955071338E+03 -0.14281559340E+04 -0.17635624994E+04  0.23302802448E+04  0.00000000000E+00 0. -1.
<mgrwt>
<rscale>  0 0.33801754E+04</rscale>
<asrwt>0</asrwt>
<pdfrwt beam="1">  1        2 0.44016520E+00 0.33801754E+04</pdfrwt>
<pdfrwt beam="2">  1       -2 0.15359464E+00 0.33801754E+04</pdfrwt>
<totfact> 0.49521337E-01</totfact>
</mgrwt>
</event>
<event>
 6    1  0.1885829E-005  0.3284416E+04  0.7818608E-02  0.8166872E-01
         -2   -1    0    0    0  501 -0.00000000000E+00  0.00000000000E+00  0.10245639228E+04  0.10245639228E+04  0.00000000000E+00 0.  1.
          2   -1    0    0  501    0  0.00000000000E+00 -0.00000000000E+00 -0.26321901883E+04  0.26321901883E+04  0.00000000000E+00 0. -1.
         23    2    1    2    0    0  0.11137248902E+04 -0.89642603498E+03 -0.17011494512E+04  0.22240261698E+04  0.91761547221E+02 0.  0.
         13    1    3    3    0    0  0.80655675152E+03 -0.60188173786E+03 -0.12262937738E+04  0.15863769538E+04  0.00000000000E+00 0. -1.
        -13    1    3    3    0    0  0.30716813871E+03 -0.29454429712E+03 -0.47485567730E+03  0.63764921600E+03  0.00000000000E+00 0.  1.
         22    1    1    2    0    0 -0.11137248902E+04  0.89642603498E+03  0.93523185652E+02  0.14327279412E+04  0.00000000000E+00 0.  1.
<mgrwt>
<rscale>  0 0.32844160E+04</rscale>
<asrwt>0</asrwt>
<pdfrwt beam="1">  1        2 0.40495233E+00 0.32844160E+04</pdfrwt>
<pdfrwt beam="2">  1       -2 0.15762522E+00 0.32844160E+04</pdfrwt>
<totfact> 0.63894187E-01</totfact>
</mgrwt>
</event>
<event>
 6    1  0.1885829E-005  0.8248929E+03  0.7818608E-02  0.9524669E-01
          2   -1    0    0  501    0  0.00000000000E+00  0.00000000000E+00  0.22970388910E+04  0.22970388910E+04  0.00000000000E+00 0. -1.
         -2   -1    0    0    0  501 -0.00000000000E+00 -0.00000000000E+00 -0.74057116156E+02  0.74057116156E+02  0.00000000000E+00 0.  1.
         23    2    1    2    0    0 -0.20956705554E+03 -0.28437468469E+03  0.53963704299E+03  0.65108531000E+03  0.88975449812E+02 0.  0.
         13    1    3    3    0    0 -0.82444349554E+02 -0.10301683957E+03  0.28198151958E+03  0.31132477799E+03  0.00000000000E+00 0. -1.
        -13    1    3    3    0    0 -0.12712270599E+03 -0.18135784512E+03  0.25765552341E+03  0.33976053200E+03  0.00000000000E+00 0.  1.
         22    1    1    2    0    0  0.20956705554E+03  0.28437468469E+03  0.16833447319E+04  0.17200106972E+04  0.00000000000E+00 0.  1.
<mgrwt>
<rscale>  0 0.82489290E+03</rscale>
<asrwt>0</asrwt>
<pdfrwt beam="1">  1        2 0.35339054E+00 0.82489290E+03</pdfrwt>
<pdfrwt beam="2">  1       -2 0.11393404E-01 0.82489290E+03</pdfrwt>
<totfact> 0.25863742E+02</totfact>
</mgrwt>
</event>
<event>
 6    1  0.1885829E-005  0.2867025E+04  0.7818608E-02  0.8282757E-01
          2   -1    0    0  501    0  0.00000000000E+00  0.00000000000E+00  0.19882500897E+04  0.19882500897E+04  0.00000000000E+00 0. -1.
         -2   -1    0    0    0  501 -0.00000000000E+00 -0.00000000000E+00 -0.10335508583E+04  0.10335508583E+04  0.00000000000E+00 0.  1.
         23    2    1    2    0    0 -0.50396367292E+03 -0.83429300344E+03 -0.62813977137E+03  0.11629293796E+04  0.88436250014E+02 0.  0.
         13    1    3    3    0    0 -0.28438573682E+03 -0.47071100134E+03 -0.40619526893E+03  0.68369488121E+03  0.00000000000E+00 0.  1.
        -13    1    3    3    0    0 -0.21957793610E+03 -0.36358200210E+03 -0.22194450244E+03  0.47923449838E+03  0.00000000000E+00 0. -1.
         22    1    1    2    0    0  0.50396367292E+03  0.83429300344E+03  0.15828390027E+04  0.18588715684E+04  0.00000000000E+00 0. -1.
<mgrwt>
<rscale>  0 0.28670247E+04</rscale>
<asrwt>0</asrwt>
<pdfrwt beam="1">  1        2 0.30588463E+00 0.28670247E+04</pdfrwt>
<pdfrwt beam="2">  1       -2 0.15900782E+00 0.28670247E+04</pdfrwt>
<totfact> 0.15038891E+00</totfact>
</mgrwt>
</event>
<event>
 6    1  0.1885829E-005  0.2907247E+04  0.7818608E-02  0.8270724E-01
          2   -1    0    0  501    0  0.00000000000E+00  0.00000000000E+00  0.17686436799E+04  0.17686436799E+04  0.00000000000E+00 0.  1.
         -2   -1    0    0    0  501 -0.00000000000E+00 -0.00000000000E+00 -0.11947129965E+04  0.11947129965E+04  0.00000000000E+00 0. -1.
         23    2    1    2    0    0  0.73365240608E+03 -0.10233913160E+04  0.10248494067E+04  0.16258577665E+04  0.86726765352E+02 0.  0.
         13    1    3    3    0    0  0.52103243849E+03 -0.67957819410E+03  0.73397710337E+03  0.11278402866E+04  0.00000000000E+00 0. -1.
        -13    1    3    3    0    0  0.21261996758E+03 -0.34381312194E+03  0.29087230338E+03  0.49801747992E+03  0.00000000000E+00 0.  1.
         22    1    1    2    0    0 -0.73365240608E+03  0.10233913160E+04 -0.45091872339E+03  0.13374989098E+04  0.00000000000E+00 0.  1.
<mgrwt>
<rscale>  0 0.29072472E+04</rscale>
<asrwt>0</asrwt>
<pdfrwt beam="1">  1        2 0.27209903E+00 0.29072472E+04</pdfrwt>
<pdfrwt beam="2">  1       -2 0.18380200E+00 0.29072472E+04</pdfrwt>
<totfact> 0.13229124E+00</totfact>
</mgrwt>
</event>
<event>
 6    1  0.1885829E-005  0.1896831E+04  0.7818608E-02  0.8656435E-01
          2   -1    0    0  501    0  0.00000000000E+00  0.00000000000E+00  0.11681909172E+04  0.11681909172E+04  0.00000000000E+00 0. -1.
         -2   -1    0    0    0  501 -0.00000000000E+00 -0.00000000000E+00 -0.76998749352E+03  0.76998749352E+03  0.00000000000E+00 0.  1.
         23    2    1    2    0    0 -0.30157798036E+03  0.86441222208E+03  0.44416201750E+03  0.10215160081E+04  0.89762404135E+02 0.  0.
         13    1    3    3    0    0 -0.11314515507E+03  0.38925945932E+03  0.15320289080E+03  0.43335421832E+03  0.00000000000E+00 0. -1.
        -13    1    3    3    0    0 -0.18843282529E+03  0.47515276276E+03  0.29095912670E+03  0.58816178983E+03  0.00000000000E+00 0.  1.
         22    1    1    2    0    0  0.30157798036E+03 -0.86441222208E+03 -0.45958593823E+02  0.91666240256E+03  0.00000000000E+00 0. -1.
<mgrwt>
<rscale>  0 0.18968315E+04</rscale>
<asrwt>0</asrwt>
<pdfrwt beam="1">  1        2 0.17972168E+00 0.18968315E+04</pdfrwt>
<pdfrwt beam="2">  1       -2 0.11845961E+00 0.18968315E+04</pdfrwt>
<totfact> 0.10168897E+01</totfact>
</mgrwt>
</event>
<event>
 6    1  0.1885829E-005  0.1681510E+04  0.7818608E-02  0.8771981E-01
          2   -1    0    0  501    0  0.00000000000E+00  0.00000000000E+00  0.95657565304E+03  0.95657565304E+03  0.00000000000E+00 0. -1.
         -2   -1    0    0    0  501 -0.00000000000E+00 -0.00000000000E+00 -0.73895773978E+03  0.73895773978E+03  0.00000000000E+00 0.  1.
         23    2    1    2    0    0  0.30361832329E+03  0.10836315110E+03  0.89028821520E+03  0.94960310529E+03  0.72154644354E+02 0.  0.
         11    1    3    3    0    0  0.92567200535E+02  0.57226050901E+02  0.22840971789E+03  0.25301088266E+03  0.00000000000E+00 0.  1.
        -11    1    3    3    0    0  0.21105112275E+03  0.51137100202E+02  0.66187849731E+03  0.69659222263E+03  0.00000000000E+00 0. -1.
         22    1    1    2    0    0 -0.30361832329E+03 -0.10836315110E+03 -0.67267030193E+03  0.74593028753E+03  0.00000000000E+00 0.  1.
<mgrwt>
<rscale>  0 0.16815100E+04</rscale>
<asrwt>0</asrwt>
<pdfrwt beam="1">  1        2 0.14716549E+00 0.16815100E+04</pdfrwt>
<pdfrwt beam="2">  1       -2 0.11368581E+00 0.16815100E+04</pdfrwt>
<totfact> 0.15535192E+01</totfact>
</mgrwt>
</event>
<event>
 6    1  0.1885829E-005  0.1415758E+04  0.7818608E-02  0.8942490E-01
          2   -1    0    0  501    0  0.00000000000E+00  0.00000000000E+00  0.10507596695E+04  0.10507596695E+04  0.00000000000E+00 0. -1.
         -2   -1    0    0    0  501 -0.00000000000E+00 -0.00000000000E+00 -0.47688635709E+03  0.47688635709E+03  0.00000000000E+00 0.  1.
         23    2    1    2    0    0 -0.13610377255E+03 -0.20844402473E+03 -0.42351088266E+03  0.49966335119E+03  0.91262524864E+02 0.  0.
         13    1    3    3    0    0 -0.77664070747E+02 -0.58257464040E+02 -0.21687931475E+03  0.23761792266E+03  0.00000000000E+00 0. -1.
        -13    1    3    3    0    0 -0.58439701802E+02 -0.15018656069E+03 -0.20663156791E+03  0.26204542854E+03  0.00000000000E+00 0.  1.
         22    1    1    2    0    0  0.13610377255E+03  0.20844402473E+03  0.99738419508E+03  0.10279826754E+04  0.00000000000E+00 0. -1.
<mgrwt>
<rscale>  0 0.14157584E+04</rscale>
<asrwt>0</asrwt>
<pdfrwt beam="1">  1        2 0.16165533E+00 0.14157584E+04</pdfrwt>
<pdfrwt beam="2">  1       -2 0.73367132E-01 0.14157584E+04</pdfrwt>
<totfact> 0.38120631E+01</totfact>
</mgrwt>
</event>
<event>
 6    1  0.1885829E-005  0.1210997E+04  0.7818608E-02  0.9103285E-01
         -2   -1    0    0    0  501 -0.00000000000E+00  0.00000000000E+00  0.51149216520E+03  0.51149216520E+03  0.00000000000E+00 0.  1.
          2   -1    0    0  501    0  0.00000000000E+00 -0.00000000000E+00 -0.71678210860E+03  0.71678210860E+03  0.00000000000E+00 0. -1.
         23    2    1    2    0    0 -0.23870927842E+03 -0.88290834759E+02  0.45017115650E+03  0.52513371561E+03  0.91290514360E+02 0.  0.
         13    1    3    3    0    0 -0.10764885914E+03 -0.34344460263E+02  0.29013294004E+03  0.31135982676E+03  0.00000000000E+00 0.  1.
        -13    1    3    3    0    0 -0.13106041928E+03 -0.53946374496E+02  0.16003821647E+03  0.21377388885E+03  0.00000000000E+00 0. -1.
         22    1    1    2    0    0  0.23870927842E+03  0.88290834759E+02 -0.65546109989E+03  0.70314055820E+03  0.00000000000E+00 0. -1.
<mgrwt>
<rscale>  0 0.12109970E+04</rscale>
<asrwt>0</asrwt>
<pdfrwt beam="1">  1        2 0.11027417E+00 0.12109970E+04</pdfrwt>
<pdfrwt beam="2">  1       -2 0.78691102E-01 0.12109970E+04</pdfrwt>
<totfact> 0.56260871E+01</totfact>
</mgrwt>
</event>
<event>
 6    1  0.1885829E-005  0.2737325E+04  0.7818608E-02  0.8322995E-01
          2   -1    0    0  501    0  0.00000000000E+00  0.00000000000E+00  0.11571009552E+04  0.11571009552E+04  0.00000000000E+00 0. -1.
         -2   -1    0    0    0  501 -0.00000000000E+00 -0.00000000000E+00 -0.16189048732E+04  0.16189048732E+04  0.00000000000E+00 0.  1.
         23    2    1    2    0    0 -0.94265008856E+03  0.98621227177E+03 -0.14121296249E+03  0.13745842661E+04  0.91307006974E+02 0.  0.
         11    1    3    3    0    0 -0.19382207978E+03  0.17548647334E+03 -0.57959654448E+02  0.26780930245E+03  0.00000000000E+00 0.  1.
        -11    1    3    3    0    0 -0.74882800878E+03  0.81072579843E+03 -0.83253308045E+02  0.11067749637E+04  0.00000000000E+00 0. -1.
         22    1    1    2    0    0  0.94265008856E+03 -0.98621227177E+03 -0.32059095552E+03  0.14014215623E+04  0.00000000000E+00 0.  1.
<mgrwt>
<rscale>  0 0.27373245E+04</rscale>
<asrwt>0</asrwt>
<pdfrwt beam="1">  1        2 0.17801553E+00 0.27373245E+04</pdfrwt>
<pdfrwt beam="2">  1       -2 0.24906229E+00 0.27373245E+04</pdfrwt>
<totfact> 0.11449111E+00</totfact>
</mgrwt>
</event>
<event>
 6    1  0.1885829E-005  0.4091178E+04  0.7818608E-02  0.7986401E-01
          2   -1    0    0  501    0  0.00000000000E+00  0.00000000000E+00  0.42997077615E+04  0.42997077615E+04  0.00000000000E+00 0. -1.
         -2   -1    0    0    0  501 -0.00000000000E+00 -0.00000000000E+00 -0.97319045661E+03  0.97319045661E+03  0.00000000000E+00 0.  1.
         23    2    1    2    0    0  0.16566584958E+04 -0.90783617261E+03  0.26720187531E+04  0.32736352933E+04  0.91213643698E+02 0.  0.
         13    1    3    3    0    0  0.15698102818E+04 -0.88230377268E+03  0.25458216612E+04  0.31183284302E+04  0.00000000000E+00 0. -1.
        -13    1    3    3    0    0  0.86848214050E+02 -0.25532399931E+02  0.12619709193E+03  0.15530686315E+03  0.00000000000E+00 0.  1.
         22    1    1    2    0    0 -0.16566584958E+04  0.90783617261E+03  0.65449855176E+03  0.19992629248E+04  0.00000000000E+00 0.  1.
<mgrwt>
<rscale>  0 0.40911781E+04</rscale>
<asrwt>0</asrwt>
<pdfrwt beam="1">  1        2 0.66149349E+00 0.40911781E+04</pdfrwt>
<pdfrwt beam="2">  1       -2 0.14972161E+00 0.40911781E+04</pdfrwt>
<totfact> 0.44495519E-02</totfact>
</mgrwt>
</event>
<event>
 6    1  0.1885829E-005  0.6635762E+03  0.7818608E-02  0.9781633E-01
          2   -1    0    0  501    0  0.00000000000E+00  0.00000000000E+00  0.36033793710E+03  0.36033793710E+03  0.00000000000E+00 0. -1.
         -2   -1    0    0    0  501 -0.00000000000E+00 -0.00000000000E+00 -0.30550031454E+03  0.30550031454E+03  0.00000000000E+00 0.  1.
         23    2    1    2    0    0  0.24361283723E+03  0.70934369976E+02  0.23241376237E+03  0.35614132765E+03  0.91878120434E+02 0.  0.
         13    1    3    3    0    0  0.98220672435E+02  0.59400681434E+02  0.14912534172E+03  0.18818636771E+03  0.00000000000E+00 0. -1.
        -13    1    3    3    0    0  0.14539216479E+03  0.11533688542E+02  0.83288420653E+02  0.16795495994E+03  0.00000000000E+00 0.  1.
         22    1    1    2    0    0 -0.24361283723E+03 -0.70934369976E+02 -0.17757613980E+03  0.30969692399E+03  0.00000000000E+00 0.  1.
<mgrwt>
<rscale>  0 0.66357623E+03</rscale>
<asrwt>0</asrwt>
<pdfrwt beam="1">  1        2 0.55436606E-01 0.66357623E+03</pdfrwt>
<pdfrwt beam="2">  1       -2 0.47000048E-01 0.66357623E+03</pdfrwt>
<totfact> 0.38727993E+02</totfact>
</mgrwt>
</event>
<event>
 6    1  0.1885829E-005  0.7410632E+03  0.7818608E-02  0.9649476E-01
         -2   -1    0    0    0  501 -0.00000000000E+00  0.00000000000E+00  0.12724043679E+03  0.12724043679E+03  0.00000000000E+00 0. -1.
          2   -1    0    0  501    0  0.00000000000E+00 -0.00000000000E+00 -0.10790096098E+04  0.10790096098E+04  0.00000000000E+00 0.  1.
         23    2    1    2    0    0  0.27758394867E+03  0.45162159375E+02 -0.10564531916E+03  0.31461220237E+03  0.93420742992E+02 0.  0.
         11    1    3    3    0    0  0.98953859333E+02  0.61548974376E+02 -0.49917230223E+02  0.12677488867E+03  0.00000000000E+00 0. -1.
        -11    1    3    3    0    0  0.17863008933E+03 -0.16386815001E+02 -0.55728088940E+02  0.18783731370E+03  0.00000000000E+00 0.  1.
         22    1    1    2    0    0 -0.27758394867E+03 -0.45162159375E+02 -0.84612385382E+03  0.89163784419E+03  0.00000000000E+00 0.  1.
<mgrwt>
<rscale>  0 0.74106317E+03</rscale>
<asrwt>0</asrwt>
<pdfrwt beam="1">  1        2 0.16600148E+00 0.74106317E+03</pdfrwt>
<pdfrwt beam="2">  1       -2 0.19575452E-01 0.74106317E+03</pdfrwt>
<totfact> 0.50082166E+02</totfact>
</mgrwt>
</event>
<event>
 6    1  0.1885829E-005  0.9003000E+03  0.7818608E-02  0.9425206E-01
         -2   -1    0    0    0  501 -0.00000000000E+00  0.00000000000E+00  0.28439854026E+03  0.28439854026E+03  0.00000000000E+00 0.  1.
          2   -1    0    0  501    0  0.00000000000E+00 -0.00000000000E+00 -0.71250379773E+03  0.71250379773E+03  0.00000000000E+00 0. -1.
         23    2    1    2    0    0 -0.41328252079E+03  0.64062444075E+02 -0.48057379319E+02  0.43179807467E+03  0.96091762633E+02 0.  0.
         13    1    3    3    0    0 -0.72854092396E+02 -0.24515813121E+02 -0.16520627429E+02  0.78623628780E+02  0.00000000000E+00 0. -1.
        -13    1    3    3    0    0 -0.34042842840E+03  0.88578257195E+02 -0.31536751891E+02  0.35317444589E+03  0.00000000000E+00 0.  1.
         22    1    1    2    0    0  0.41328252079E+03 -0.64062444075E+02 -0.38004787815E+03  0.56510426332E+03  0.00000000000E+00 0. -1.
<mgrwt>
<rscale>  0 0.90030004E+03</rscale>
<asrwt>0</asrwt>
<pdfrwt beam="1">  1        2 0.10961597E+00 0.90030004E+03</pdfrwt>
<pdfrwt beam="2">  1       -2 0.43753621E-01 0.90030004E+03</pdfrwt>
<totfact> 0.19897482E+02</totfact>
</mgrwt>
</event>
<event>
 6    1  0.1885829E-005  0.1239866E+04  0.7818608E-02  0.9078660E-01
          2   -1    0    0  501    0  0.00000000000E+00  0.00000000000E+00  0.28030087918E+04  0.28030087918E+04  0.00000000000E+00 0. -1.
         -2   -1    0    0    0  501 -0.00000000000E+00 -0.00000000000E+00 -0.13710873400E+03  0.13710873400E+03  0.00000000000E+00 0.  1.
         23    2    1    2    0    0 -0.38687867970E+03 -0.29437772885E+03  0.22395058671E+04  0.22934759203E+04  0.91169668371E+02 0.  0.
         11    1    3    3    0    0 -0.24438196024E+03 -0.12919837344E+03  0.12383698230E+04  0.12688477374E+04  0.00000000000E+00 0. -1.
        -11    1    3    3    0    0 -0.14249671946E+03 -0.16517935542E+03  0.10011360441E+04  0.10246281829E+04  0.00000000000E+00 0.  1.
         22    1    1    2    0    0  0.38687867970E+03  0.29437772885E+03  0.42639419076E+03  0.64664160550E+03  0.00000000000E+00 0.  1.
<mgrwt>
<rscale>  0 0.12398661E+04</rscale>
<asrwt>0</asrwt>
<pdfrwt beam="1">  1        2 0.43123208E+00 0.12398661E+04</pdfrwt>
<pdfrwt beam="2">  1       -2 0.21093654E-01 0.12398661E+04</pdfrwt>
<totfact> 0.44532504E+01</totfact>
</mgrwt>
</event>
<event>
 6    1  0.1885829E-005  0.2252610E+04  0.7818608E-02  0.8496844E-01
          2   -1    0    0  501    0  0.00000000000E+00  0.00000000000E+00  0.12652674233E+04  0.12652674233E+04  0.00000000000E+00 0. -1.
         -2   -1    0    0    0  501 -0.00000000000E+00 -0.00000000000E+00 -0.10026042255E+04  0.10026042255E+04  0.00000000000E+00 0.  1.
         23    2    1    2    0    0  0.91229615127E+03 -0.51192343766E+02  0.79139363905E+03  0.12121913927E+04  0.90549196663E+02 0.  0.
         11    1    3    3    0    0  0.21574191649E+03  0.23893500874E+02  0.20538456362E+03  0.29882819962E+03  0.00000000000E+00 0. -1.
        -11    1    3    3    0    0  0.69655423478E+03 -0.75085844640E+02  0.58600907542E+03  0.91336319312E+03  0.00000000000E+00 0.  1.
         22    1    1    2    0    0 -0.91229615127E+03  0.51192343766E+02 -0.52873044121E+03  0.10556802561E+04  0.00000000000E+00 0.  1.
<mgrwt>
<rscale>  0 0.22526096E+04</rscale>
<asrwt>0</asrwt>
<pdfrwt beam="1">  1        2 0.19465653E+00 0.22526096E+04</pdfrwt>
<pdfrwt beam="2">  1       -2 0.15424680E+00 0.22526096E+04</pdfrwt>
<totfact> 0.43859718E+00</totfact>
</mgrwt>
</event>
<event>
 6    1  0.1885829E-005  0.1966589E+04  0.7818608E-02  0.8622403E-01
         -2   -1    0    0    0  501 -0.00000000000E+00  0.00000000000E+00  0.42465008059E+03  0.42465008059E+03  0.00000000000E+00 0.  1.
          2   -1    0    0  501    0  0.00000000000E+00 -0.00000000000E+00 -0.22768574483E+04  0.22768574483E+04  0.00000000000E+00 0. -1.
         23    2    1    2    0    0 -0.52571140525E+03  0.70557456910E+03 -0.15243289772E+04  0.17625122184E+04  0.93072740691E+02 0.  0.
         13    1    3    3    0    0 -0.37143575259E+03  0.44854375014E+03 -0.10694746794E+04  0.12177569971E+04  0.00000000000E+00 0. -1.
        -13    1    3    3    0    0 -0.15427565266E+03  0.25703081897E+03 -0.45485429780E+03  0.54475522130E+03  0.00000000000E+00 0.  1.
         22    1    1    2    0    0  0.52571140525E+03 -0.70557456910E+03 -0.32787839052E+03  0.93899531050E+03  0.00000000000E+00 0.  1.
<mgrwt>
<rscale>  0 0.19665886E+04</rscale>
<asrwt>0</asrwt>
<pdfrwt beam="1">  1        2 0.35028576E+00 0.19665886E+04</pdfrwt>
<pdfrwt beam="2">  1       -2 0.65330782E-01 0.19665886E+04</pdfrwt>
<totfact> 0.94013929E+00</totfact>
</mgrwt>
</event>
<event>
 6    1  0.1885829E-005  0.1200504E+04  0.7818608E-02  0.9112415E-01
          2   -1    0    0  501    0  0.00000000000E+00  0.00000000000E+00  0.32634888238E+04  0.32634888238E+04  0.00000000000E+00 0. -1.
         -2   -1    0    0    0  501 -0.00000000000E+00 -0.00000000000E+00 -0.11040415583E+03  0.11040415583E+03  0.00000000000E+00 0.  1.
         23    2    1    2    0    0  0.48733850700E+03  0.33223458946E+03  0.18395469524E+04  0.19340110494E+04  0.92666640179E+02 0.  0.
         13    1    3    3    0    0  0.20933949644E+03  0.10690943457E+03  0.84319055246E+03  0.87534162459E+03  0.00000000000E+00 0. -1.
        -13    1    3    3    0    0  0.27799901056E+03  0.22532515489E+03  0.99635639991E+03  0.10586694248E+04  0.00000000000E+00 0.  1.
         22    1    1    2    0    0 -0.48733850700E+03 -0.33223458946E+03  0.13135377155E+04  0.14398819302E+04  0.00000000000E+00 0.  1.
<mgrwt>
<rscale>  0 0.12005044E+04</rscale>
<asrwt>0</asrwt>
<pdfrwt beam="1">  1        2 0.50207513E+00 0.12005044E+04</pdfrwt>
<pdfrwt beam="2">  1       -2 0.16985257E-01 0.12005044E+04</pdfrwt>
<totfact> 0.33676671E+01</totfact>
</mgrwt>
</event>
<event>
 6    1  0.1885829E-005  0.7529283E+03  0.7818608E-02  0.9630767E-01
          2   -1    0    0  501    0  0.00000000000E+00  0.00000000000E+00  0.22217833358E+04  0.22217833358E+04  0.00000000000E+00 0. -1.
         -2   -1    0    0    0  501 -0.00000000000E+00 -0.00000000000E+00 -0.63788967434E+02  0.63788967434E+02  0.00000000000E+00 0.  1.
         23    2    1    2    0    0 -0.77717769439E+02  0.33289254170E+03  0.15330220092E+04  0.15732184966E+04  0.89456478579E+02 0.  0.
         13    1    3    3    0    0 -0.66921316858E+02  0.10141625598E+03  0.54707721169E+03  0.56040806131E+03  0.00000000000E+00 0. -1.
        -13    1    3    3    0    0 -0.10796452581E+02  0.23147628572E+03  0.98594479748E+03  0.10128104353E+04  0.00000000000E+00 0.  1.
         22    1    1    2    0    0  0.77717769439E+02 -0.33289254170E+03  0.62497235916E+03  0.71235380656E+03  0.00000000000E+00 0. -1.
<mgrwt>
<rscale>  0 0.75292832E+03</rscale>
<asrwt>0</asrwt>
<pdfrwt beam="1">  1        2 0.34181276E+00 0.75292832E+03</pdfrwt>
<pdfrwt beam="2">  1       -2 0.98136890E-02 0.75292832E+03</pdfrwt>
<totfact> 0.36568765E+02</totfact>
</mgrwt>
</event>
<event>
 6    1  0.1885829E-005  0.2120251E+04  0.7818608E-02  0.8552375E-01
         -2   -1    0    0    0  501 -0.00000000000E+00  0.00000000000E+00  0.97322672741E+03  0.97322672741E+03  0.00000000000E+00 0.  1.
          2   -1    0    0  501    0  0.00000000000E+00 -0.00000000000E+00 -0.11547833787E+04  0.11547833787E+04  0.00000000000E+00 0. -1.
         23    2    1    2    0    0 -0.18298873680E+03 -0.43919713652E+03  0.85785124316E+03  0.98487941649E+03  0.87747974943E+02 0.  0.
         11    1    3    3    0    0 -0.78479048336E+02 -0.91052624176E+02  0.20389500210E+03  0.23669117702E+03  0.00000000000E+00 0. -1.
        -11    1    3    3    0    0 -0.10450968846E+03 -0.34814451234E+03  0.65395624106E+03  0.74818823947E+03  0.00000000000E+00 0.  1.
         22    1    1    2    0    0  0.18298873680E+03  0.43919713652E+03 -0.10394078945E+04  0.11431306897E+04  0.00000000000E+00 0. -1.
<mgrwt>
<rscale>  0 0.21202510E+04</rscale>
<asrwt>0</asrwt>
<pdfrwt beam="1">  1        2 0.17765898E+00 0.21202510E+04</pdfrwt>
<pdfrwt beam="2">  1       -2 0.14972719E+00 0.21202510E+04</pdfrwt>
<totfact> 0.55863939E+00</totfact>
</mgrwt>
</event>
<event>
 6    1  0.1885829E-005  0.2257355E+04  0.7818608E-02  0.8494928E-01
          2   -1    0    0  501    0  0.00000000000E+00  0.00000000000E+00  0.38583966076E+04  0.38583966076E+04  0.00000000000E+00 0. -1.
         -2   -1    0    0    0  501 -0.00000000000E+00 -0.00000000000E+00 -0.33016639260E+03  0.33016639260E+03  0.00000000000E+00 0.  1.
         23    2    1    2    0    0  0.12688484457E+03  0.79629146797E+03  0.30607039052E+03  0.86704319743E+03  0.88909822404E+02 0.  0.
         13    1    3    3    0    0  0.10071370286E+03  0.40198631209E+03  0.18420851014E+03  0.45350746440E+03  0.00000000000E+00 0. -1.
        -13    1    3    3    0    0  0.26171141705E+02  0.39430515587E+03  0.12186188038E+03  0.41353573303E+03  0.00000000000E+00 0.  1.
         22    1    1    2    0    0 -0.12688484457E+03 -0.79629146797E+03  0.32221598245E+04  0.33215198028E+04  0.00000000000E+00 0. -1.
<mgrwt>
<rscale>  0 0.22573550E+04</rscale>
<asrwt>0</asrwt>
<pdfrwt beam="1">  1        2 0.59359945E+00 0.22573550E+04</pdfrwt>
<pdfrwt beam="2">  1       -2 0.50794832E-01 0.22573550E+04</pdfrwt>
<totfact> 0.14843735E+00</totfact>
</mgrwt>
</event>
<event>
 6    1  0.1885829E-005  0.4705389E+04  0.7818608E-02  0.7875634E-01
          2   -1    0    0  501    0  0.00000000000E+00  0.00000000000E+00  0.44406217975E+04  0.44406217975E+04  0.00000000000E+00 0. -1.
         -2   -1    0    0    0  501 -0.00000000000E+00 -0.00000000000E+00 -0.12464856018E+04  0.12464856018E+04  0.00000000000E+00 0.  1.
         23    2    1    2    0    0  0.81837644619E+03 -0.64790046479E+03  0.41448375895E+04  0.42752475763E+04  0.92456344151E+02 0.  0.
         11    1    3    3    0    0  0.37566179550E+03 -0.29993297776E+03  0.17222669316E+04  0.17880953441E+04  0.00000000000E+00 0. -1.
        -11    1    3    3    0    0  0.44271465069E+03 -0.34796748702E+03  0.24225706578E+04  0.24871522322E+04  0.00000000000E+00 0.  1.
         22    1    1    2    0    0 -0.81837644619E+03  0.64790046479E+03 -0.95070139377E+03  0.14118598231E+04  0.00000000000E+00 0.  1.
<mgrwt>
<rscale>  0 0.47053889E+04</rscale>
<asrwt>0</asrwt>
<pdfrwt beam="1">  1        2 0.68317258E+00 0.47053889E+04</pdfrwt>
<pdfrwt beam="2">  1       -2 0.19176702E+00 0.47053889E+04</pdfrwt>
<totfact> 0.15656985E-02</totfact>
</mgrwt>
</event>
<event>
 6    1  0.1885829E-005  0.1175723E+04  0.7818608E-02  0.9134376E-01
          2   -1    0    0  501    0  0.00000000000E+00  0.00000000000E+00  0.16237285441E+04  0.16237285441E+04  0.00000000000E+00 0.  1.
         -2   -1    0    0    0  501 -0.00000000000E+00 -0.00000000000E+00 -0.21283182790E+03  0.21283182790E+03  0.00000000000E+00 0. -1.
         23    2    1    2    0    0 -0.43361635263E+03  0.24287387288E+03  0.22956556158E+03  0.55493868199E+03  0.90806025747E+02 0.  0.
         13    1    3    3    0    0 -0.35991388677E+03  0.23701708590E+03  0.18855380360E+03  0.47039094565E+03  0.00000000000E+00 0.  1.
        -13    1    3    3    0    0 -0.73702465859E+02  0.58567869770E+01  0.41011757983E+02  0.84547736340E+02  0.00000000000E+00 0. -1.
         22    1    1    2    0    0  0.43361635263E+03 -0.24287387288E+03  0.11813311546E+04  0.12816216900E+04  0.00000000000E+00 0.  1.
<mgrwt>
<rscale>  0 0.11757230E+04</rscale>
<asrwt>0</asrwt>
<pdfrwt beam="1">  1        2 0.24980438E+00 0.11757230E+04</pdfrwt>
<pdfrwt beam="2">  1       -2 0.32743359E-01 0.11757230E+04</pdfrwt>
<totfact> 0.92941013E+01</totfact>
</mgrwt>
</event>
<event>
 6    1  0.1885829E-005  0.3074539E+04  0.7818608E-02  0.8222761E-01
         -2   -1    0    0    0  501 -0.00000000000E+00  0.00000000000E+00  0.69588721219E+03  0.69588721219E+03  0.00000000000E+00 0.  1.
          2   -1    0    0  501    0  0.00000000000E+00 -0.00000000000E+00 -0.33959480067E+04  0.33959480067E+04  0.00000000000E+00 0. -1.
         23    2    1    2    0    0  0.12745361545E+04 -0.85180850913E+03 -0.14780443244E+04  0.21313902698E+04  0.90494816536E+02 0.  0.
         13    1    3    3    0    0  0.26367789597E+03 -0.14725544620E+03 -0.32893109319E+03  0.44654883644E+03  0.00000000000E+00 0. -1.
        -13    1    3    3    0    0  0.10108582585E+04 -0.70455306293E+03 -0.11491132312E+04  0.16848414333E+04  0.00000000000E+00 0.  1.
         22    1    1    2    0    0 -0.12745361545E+04  0.85180850913E+03 -0.12220164701E+04  0.19604449491E+04  0.00000000000E+00 0. -1.
<mgrwt>
<rscale>  0 0.30745385E+04</rscale>
<asrwt>0</asrwt>
<pdfrwt beam="1">  1        2 0.52245353E+00 0.30745385E+04</pdfrwt>
<pdfrwt beam="2">  1       -2 0.10705957E+00 0.30745385E+04</pdfrwt>
<totfact> 0.57211811E-01</totfact>
</mgrwt>
</event>
<event>
 6    1  0.2658363E-005  0.3845797E+04  0.7818608E-02  0.8036398E-01
         -2   -1    0    0    0  501 -0.00000000000E+00  0.00000000000E+00  0.20595438170E+04  0.20595438170E+04  0.00000000000E+00 0.  1.
          2   -1    0    0  501    0  0.00000000000E+00 -0.00000000000E+00 -0.17953193977E+04  0.17953193977E+04  0.00000000000E+00 0. -1.
         23    2    1    2    0    0 -0.55753932340E+03 -0.12426004147E+04 -0.12269428090E+04  0.18353371340E+04  0.90376164504E+02 0.  0.
         11    1    3    3    0    0 -0.26739091078E+03 -0.51475293450E+03 -0.56225927533E+03  0.80783907769E+03  0.00000000000E+00 0. -1.
        -11    1    3    3    0    0 -0.29014841262E+03 -0.72784748021E+03 -0.66468353363E+03  0.10274980563E+04  0.00000000000E+00 0.  1.
         22    1    1    2    0    0  0.55753932340E+03  0.12426004147E+04  0.14911672283E+04  0.20195260807E+04  0.00000000000E+00 0.  1.
<mgrwt>
<rscale>  0 0.38457972E+04</rscale>
<asrwt>0</asrwt>
<pdfrwt beam="1">  1        2 0.27620298E+00 0.38457972E+04</pdfrwt>
<pdfrwt beam="2">  1       -2 0.31685290E+00 0.38457972E+04</pdfrwt>
<totfact> 0.17361252E-01</totfact>
</mgrwt>
</event>
<event>
 6    1  0.1885829E-005  0.1842929E+04  0.7818608E-02  0.8683798E-01
         -2   -1    0    0    0  501 -0.00000000000E+00  0.00000000000E+00  0.25213159127E+03  0.25213159127E+03  0.00000000000E+00 0.  1.
          2   -1    0    0  501    0  0.00000000000E+00 -0.00000000000E+00 -0.33676720106E+04  0.33676720106E+04  0.00000000000E+00 0. -1.
         23    2    1    2    0    0 -0.98977312977E+02  0.66972540866E+03 -0.27828916006E+04  0.28654934083E+04  0.90764426027E+02 0.  0.
         11    1    3    3    0    0 -0.72623253834E+02  0.27936211740E+03 -0.10473535299E+04  0.10864008221E+04  0.00000000000E+00 0. -1.
        -11    1    3    3    0    0 -0.26354059143E+02  0.39036329125E+03 -0.17355380706E+04  0.17790925862E+04  0.00000000000E+00 0.  1.
         22    1    1    2    0    0  0.98977312977E+02 -0.66972540866E+03 -0.33264881876E+03  0.75431019356E+03  0.00000000000E+00 0.  1.
<mgrwt>
<rscale>  0 0.18429287E+04</rscale>
<asrwt>0</asrwt>
<pdfrwt beam="1">  1        2 0.51810334E+00 0.18429287E+04</pdfrwt>
<pdfrwt beam="2">  1       -2 0.38789479E-01 0.18429287E+04</pdfrwt>
<totfact> 0.59640391E+00</totfact>
</mgrwt>
</event>
<event>
 6    1  0.1885829E-005  0.2884586E+04  0.7818608E-02  0.8277478E-01
          2   -1    0    0  501    0  0.00000000000E+00  0.00000000000E+00  0.47164437489E+04  0.47164437489E+04  0.00000000000E+00 0.  1.
         -2   -1    0    0    0  501 -0.00000000000E+00 -0.00000000000E+00 -0.44105462777E+03  0.44105462777E+03  0.00000000000E+00 0. -1.
         23    2    1    2    0    0  0.17125598276E+02  0.14409304808E+04  0.21471829569E+04  0.25873163959E+04  0.85073766311E+02 0.  0.
         11    1    3    3    0    0 -0.34714347326E+02  0.55255648823E+03  0.82825131014E+03  0.99625498309E+03  0.00000000000E+00 0. -1.
        -11    1    3    3    0    0  0.51839945602E+02  0.88837399256E+03  0.13189316468E+04  0.15910614128E+04  0.00000000000E+00 0.  1.
         22    1    1    2    0    0 -0.17125598276E+02 -0.14409304808E+04  0.21282061642E+04  0.25701819807E+04  0.00000000000E+00 0. -1.
<mgrwt>
<rscale>  0 0.28845862E+04</rscale>
<asrwt>0</asrwt>
<pdfrwt beam="1">  1        2 0.72560669E+00 0.28845862E+04</pdfrwt>
<pdfrwt beam="2">  1       -2 0.67854561E-01 0.28845862E+04</pdfrwt>
<totfact> 0.12674364E-01</totfact>
</mgrwt>
</event>
<event>
 6    1  0.1885829E-005  0.3321129E+04  0.7818608E-02  0.8157540E-01
          2   -1    0    0  501    0  0.00000000000E+00  0.00000000000E+00  0.15650312656E+04  0.15650312656E+04  0.00000000000E+00 0. -1.
         -2   -1    0    0    0  501 -0.00000000000E+00 -0.00000000000E+00 -0.17619298276E+04  0.17619298276E+04  0.00000000000E+00 0.  1.
         23    2    1    2    0    0  0.34589376747E+03 -0.64711866604E+03  0.13924063985E+04  0.15764482187E+04  0.89377521732E+02 0.  0.
         11    1    3    3    0    0  0.20726613649E+03 -0.44678234683E+03  0.86238005318E+03  0.99311281983E+03  0.00000000000E+00 0.  1.
        -11    1    3    3    0    0  0.13862763098E+03 -0.20033631921E+03  0.53002634533E+03  0.58333539890E+03  0.00000000000E+00 0. -1.
         22    1    1    2    0    0 -0.34589376747E+03  0.64711866604E+03 -0.15893049605E+04  0.17505128745E+04  0.00000000000E+00 0.  1.
<mgrwt>
<rscale>  0 0.33211295E+04</rscale>
<asrwt>0</asrwt>
<pdfrwt beam="1">  1        2 0.24077404E+00 0.33211295E+04</pdfrwt>
<pdfrwt beam="2">  1       -2 0.27106613E+00 0.33211295E+04</pdfrwt>
<totfact> 0.46444575E-01</totfact>
</mgrwt>
</event>
<event>
 6    1  0.1885829E-005  0.1807497E+04  0.7818608E-02  0.8702323E-01
         -2   -1    0    0    0  501 -0.00000000000E+00  0.00000000000E+00  0.21978793060E+03  0.21978793060E+03  0.00000000000E+00 0.  1.
          2   -1    0    0  501    0  0.00000000000E+00 -0.00000000000E+00 -0.37161319316E+04  0.37161319316E+04  0.00000000000E+00 0. -1.
         23    2    1    2    0    0 -0.38486244880E+03 -0.44110405830E+03 -0.32455251596E+04  0.32990509699E+04  0.87245894703E+02 0.  0.
         11    1    3    3    0    0 -0.75553321743E+02 -0.11224939920E+03 -0.94598296636E+03  0.95561080189E+03  0.00000000000E+00 0.  1.
        -11    1    3    3    0    0 -0.30930912705E+03 -0.32885465910E+03 -0.22995421932E+04  0.23434401680E+04  0.00000000000E+00 0. -1.
         22    1    1    2    0    0  0.38486244880E+03  0.44110405830E+03 -0.25081884147E+03  0.63686889230E+03  0.00000000000E+00 0.  1.
<mgrwt>
<rscale>  0 0.18074966E+04</rscale>
<asrwt>0</asrwt>
<pdfrwt beam="1">  1        2 0.57171259E+00 0.18074966E+04</pdfrwt>
<pdfrwt beam="2">  1       -2 0.33813529E-01 0.18074966E+04</pdfrwt>
<totfact> 0.44307197E+00</totfact>
</mgrwt>
</event>
<event>
 6    1  0.1885829E-005  0.5442987E+04  0.7818608E-02  0.7763583E-01
          2   -1    0    0  501    0  0.00000000000E+00  0.00000000000E+00  0.27995289596E+04  0.27995289596E+04  0.00000000000E+00 0. -1.
         -2   -1    0    0    0  501 -0.00000000000E+00 -0.00000000000E+00 -0.26456329143E+04  0.26456329143E+04  0.00000000000E+00 0.  1.
         23    2    1    2    0    0  0.38138114249E+03 -0.19395746334E+04 -0.17932430139E+04  0.26704993988E+04  0.91897758870E+02 0.  0.
         13    1    3    3    0    0  0.10226043193E+03 -0.75072014427E+03 -0.68141751532E+03  0.10190033175E+04  0.00000000000E+00 0. -1.
        -13    1    3    3    0    0  0.27912071056E+03 -0.11888544891E+04 -0.11118254986E+04  0.16514960813E+04  0.00000000000E+00 0.  1.
         22    1    1    2    0    0 -0.38138114249E+03  0.19395746334E+04  0.19471390592E+04  0.27746624750E+04  0.00000000000E+00 0. -1.
<mgrwt>
<rscale>  0 0.54429867E+04</rscale>
<asrwt>0</asrwt>
<pdfrwt beam="1">  1        2 0.43069676E+00 0.54429867E+04</pdfrwt>
<pdfrwt beam="2">  1       -2 0.40702045E+00 0.54429867E+04</pdfrwt>
<totfact> 0.10871361E-02</totfact>
</mgrwt>
</event>
<event>
 6    1  0.1885829E-005  0.5072751E+04  0.7818608E-02  0.7817382E-01
          2   -1    0    0  501    0  0.00000000000E+00  0.00000000000E+00  0.15118010097E+04  0.15118010097E+04  0.00000000000E+00 0. -1.
         -2   -1    0    0    0  501 -0.00000000000E+00 -0.00000000000E+00 -0.42553217475E+04  0.42553217475E+04  0.00000000000E+00 0.  1.
         23    2    1    2    0    0 -0.31422066008E+03  0.11048208358E+04  0.11976969968E+04  0.16619356807E+04  0.90489823897E+02 0.  0.
         11    1    3    3    0    0 -0.16795455255E+03  0.72156928281E+03  0.80565637757E+03  0.10945104661E+04  0.00000000000E+00 0.  1.
        -11    1    3    3    0    0 -0.14626610753E+03  0.38325155296E+03  0.39204061920E+03  0.56742521460E+03  0.00000000000E+00 0. -1.
         22    1    1    2    0    0  0.31422066008E+03 -0.11048208358E+04 -0.39412177346E+04  0.41051870766E+04  0.00000000000E+00 0.  1.
<mgrwt>
<rscale>  0 0.50727506E+04</rscale>
<asrwt>0</asrwt>
<pdfrwt beam="1">  1        2 0.23258478E+00 0.50727506E+04</pdfrwt>
<pdfrwt beam="2">  1       -2 0.65466487E+00 0.50727506E+04</pdfrwt>
<totfact> 0.29653144E-03</totfact>
</mgrwt>
</event>
<event>
 6    1  0.1885829E-005  0.1828023E+04  0.7818608E-02  0.8691538E-01
          2   -1    0    0  501    0  0.00000000000E+00  0.00000000000E+00  0.99315562061E+03  0.99315562061E+03  0.00000000000E+00 0. -1.
         -2   -1    0    0    0  501 -0.00000000000E+00 -0.00000000000E+00 -0.84117434249E+03  0.84117434249E+03  0.00000000000E+00 0.  1.
         23    2    1    2    0    0 -0.69838745067E+03  0.95493449282E+02 -0.50403592589E+03  0.87140597748E+03  0.91826645847E+02 0.  0.
         11    1    3    3    0    0 -0.14398879416E+03  0.14070646509E+02 -0.60714168572E+02  0.15689794836E+03  0.00000000000E+00 0. -1.
        -11    1    3    3    0    0 -0.55439865652E+03  0.81422802773E+02 -0.44332175732E+03  0.71450802912E+03  0.00000000000E+00 0.  1.
         22    1    1    2    0    0  0.69838745067E+03 -0.95493449282E+02  0.65601720401E+03  0.96292398561E+03  0.00000000000E+00 0. -1.
<mgrwt>
<rscale>  0 0.18280230E+04</rscale>
<asrwt>0</asrwt>
<pdfrwt beam="1">  1        2 0.15279317E+00 0.18280230E+04</pdfrwt>
<pdfrwt beam="2">  1       -2 0.12941144E+00 0.18280230E+04</pdfrwt>
<totfact> 0.10530074E+01</totfact>
</mgrwt>
</event>
<event>
 6    1  0.1885829E-005  0.6519523E+03  0.7818608E-02  0.9803123E-01
         -2   -1    0    0    0  501 -0.00000000000E+00  0.00000000000E+00  0.12937562444E+03  0.12937562444E+03  0.00000000000E+00 0.  1.
          2   -1    0    0  501    0  0.00000000000E+00 -0.00000000000E+00 -0.82133293474E+03  0.82133293474E+03  0.00000000000E+00 0. -1.
         23    2    1    2    0    0  0.14127705016E+03 -0.80046128415E+00 -0.77085974758E+03  0.78888940010E+03  0.90343176372E+02 0.  0.
         11    1    3    3    0    0  0.30247477329E+02 -0.29412587212E+02 -0.35550944538E+03  0.35800415630E+03  0.00000000000E+00 0. -1.
        -11    1    3    3    0    0  0.11102957283E+03  0.28612125928E+02 -0.41535030219E+03  0.43088524380E+03  0.00000000000E+00 0.  1.
         22    1    1    2    0    0 -0.14127705016E+03  0.80046128415E+00  0.78902437275E+02  0.16181915909E+03  0.00000000000E+00 0.  1.
<mgrwt>
<rscale>  0 0.65195233E+03</rscale>
<asrwt>0</asrwt>
<pdfrwt beam="1">  1        2 0.12635892E+00 0.65195233E+03</pdfrwt>
<pdfrwt beam="2">  1       -2 0.19903942E-01 0.65195233E+03</pdfrwt>
<totfact> 0.71992635E+02</totfact>
</mgrwt>
</event>
<event>
 6    1  0.1885829E-005  0.2860541E+04  0.7818608E-02  0.8284715E-01
          2   -1    0    0  501    0  0.00000000000E+00  0.00000000000E+00  0.10933106262E+04  0.10933106262E+04  0.00000000000E+00 0.  1.
         -2   -1    0    0    0  501 -0.00000000000E+00 -0.00000000000E+00 -0.18710819787E+04  0.18710819787E+04  0.00000000000E+00 0. -1.
         23    2    1    2    0    0  0.11990370503E+04  0.12172180017E+03 -0.11846459917E+04  0.16923654760E+04  0.90602064652E+02 0.  0.
         11    1    3    3    0    0  0.82061070192E+03  0.96489955702E+02 -0.75483782487E+03  0.11191480588E+04  0.00000000000E+00 0. -1.
        -11    1    3    3    0    0  0.37842634836E+03  0.25231844468E+02 -0.42980816682E+03  0.57321741720E+03  0.00000000000E+00 0.  1.
         22    1    1    2    0    0 -0.11990370503E+04 -0.12172180017E+03  0.40687463914E+03  0.12720271289E+04  0.00000000000E+00 0.  1.
<mgrwt>
<rscale>  0 0.28605411E+04</rscale>
<asrwt>0</asrwt>
<pdfrwt beam="1">  1        2 0.16820164E+00 0.28605411E+04</pdfrwt>
<pdfrwt beam="2">  1       -2 0.28785876E+00 0.28605411E+04</pdfrwt>
<totfact> 0.71811391E-01</totfact>
</mgrwt>
</event>
<event>
 6    1  0.1885829E-005  0.1134852E+04  0.7818608E-02  0.9171873E-01
         -2   -1    0    0    0  501 -0.00000000000E+00  0.00000000000E+00  0.13457131997E+03  0.13457131997E+03  0.00000000000E+00 0.  1.
          2   -1    0    0  501    0  0.00000000000E+00 -0.00000000000E+00 -0.23925780342E+04  0.23925780342E+04  0.00000000000E+00 0. -1.
         23    2    1    2    0    0  0.19329885351E+03  0.36912940919E+03 -0.29076228841E+03  0.51626109312E+03  0.91443099274E+02 0.  0.
         11    1    3    3    0    0  0.15243297557E+03  0.20706512687E+03 -0.20224423227E+03  0.32713072050E+03  0.00000000000E+00 0.  1.
        -11    1    3    3    0    0  0.40865877942E+02  0.16206428232E+03 -0.88518056142E+02  0.18913037262E+03  0.00000000000E+00 0. -1.
         22    1    1    2    0    0 -0.19329885351E+03 -0.36912940919E+03 -0.19672444258E+04  0.20108882611E+04  0.00000000000E+00 0. -1.
<mgrwt>
<rscale>  0 0.11348522E+04</rscale>
<asrwt>0</asrwt>
<pdfrwt beam="1">  1        2 0.36808894E+00 0.11348522E+04</pdfrwt>
<pdfrwt beam="2">  1       -2 0.20703279E-01 0.11348522E+04</pdfrwt>
<totfact> 0.80500091E+01</totfact>
</mgrwt>
</event>
<event>
 6    1  0.1885829E-005  0.2511422E+04  0.7818608E-02  0.8398928E-01
         -1   -1    0    0    0  501 -0.00000000000E+00  0.00000000000E+00  0.11954961604E+04  0.11954961604E+04  0.00000000000E+00 0.  1.
          1   -1    0    0  501    0  0.00000000000E+00 -0.00000000000E+00 -0.13189590401E+04  0.13189590401E+04  0.00000000000E+00 0. -1.
         23    2    1    2    0    0 -0.90296803259E+03 -0.15970112253E+03  0.79475987520E+03  0.12167692816E+04  0.89601946999E+02 0.  0.
         13    1    3    3    0    0 -0.34993352783E+03 -0.10284083674E+03  0.33760657879E+03  0.49699890709E+03  0.00000000000E+00 0. -1.
        -13    1    3    3    0    0 -0.55303450476E+03 -0.56860285785E+02  0.45715329641E+03  0.71977037447E+03  0.00000000000E+00 0.  1.
         22    1    1    2    0    0  0.90296803259E+03  0.15970112253E+03 -0.91822275493E+03  0.12976859189E+04  0.00000000000E+00 0. -1.
<mgrwt>
<rscale>  0 0.25114223E+04</rscale>
<asrwt>0</asrwt>
<pdfrwt beam="1">  1        1 0.20291677E+00 0.25114223E+04</pdfrwt>
<pdfrwt beam="2">  1       -1 0.18392249E+00 0.25114223E+04</pdfrwt>
<totfact> 0.15181814E+00</totfact>
</mgrwt>
</event>
<event>
 6    1  0.1885829E-005  0.4927877E+03  0.7818608E-02  0.1015679E+00
          2   -1    0    0  501    0  0.00000000000E+00  0.00000000000E+00  0.81313854663E+03  0.81313854663E+03  0.00000000000E+00 0. -1.
         -2   -1    0    0    0  501 -0.00000000000E+00 -0.00000000000E+00 -0.74661251621E+02  0.74661251621E+02  0.00000000000E+00 0.  1.
         23    2    1    2    0    0  0.60900800935E+02  0.16896656295E+03  0.10781560219E+03  0.23206145277E+03  0.99848419295E+02 0.  0.
         13    1    3    3    0    0  0.36455271831E+02  0.78788999770E+02  0.10807993127E+03  0.13862887460E+03  0.00000000000E+00 0. -1.
        -13    1    3    3    0    0  0.24445529104E+02  0.90177563178E+02 -0.26432907635E+00  0.93432578172E+02  0.00000000000E+00 0.  1.
         22    1    1    2    0    0 -0.60900800935E+02 -0.16896656295E+03  0.63066169282E+03  0.65573834548E+03  0.00000000000E+00 0. -1.
<mgrwt>
<rscale>  0 0.49278775E+03</rscale>
<asrwt>0</asrwt>
<pdfrwt beam="1">  1        2 0.12509823E+00 0.49278775E+03</pdfrwt>
<pdfrwt beam="2">  1       -2 0.11486347E-01 0.49278775E+03</pdfrwt>
<totfact> 0.18479158E+03</totfact>
</mgrwt>
</event>
<event>
 6    1  0.1885829E-005  0.3979390E+04  0.7818608E-02  0.8008717E-01
         -2   -1    0    0    0  501 -0.00000000000E+00  0.00000000000E+00  0.16217094081E+04  0.16217094081E+04  0.00000000000E+00 0.  1.
          2   -1    0    0  501    0  0.00000000000E+00 -0.00000000000E+00 -0.24411808801E+04  0.24411808801E+04  0.00000000000E+00 0. -1.
         23    2    1    2    0    0  0.10460001869E+04 -0.11690793239E+04 -0.16578488450E+04  0.22841999058E+04  0.90794052807E+02 0.  0.
         11    1    3    3    0    0  0.29649905676E+03 -0.32021128272E+03 -0.40419501825E+03  0.59482818445E+03  0.00000000000E+00 0.  1.
        -11    1    3    3    0    0  0.74950113017E+03 -0.84886804122E+03 -0.12536538268E+04  0.16893717214E+04  0.00000000000E+00 0. -1.
         22    1    1    2    0    0 -0.10460001869E+04  0.11690793239E+04  0.83837737304E+03  0.17786903824E+04  0.00000000000E+00 0.  1.
<mgrwt>
<rscale>  0 0.39793899E+04</rscale>
<asrwt>0</asrwt>
<pdfrwt beam="1">  1        2 0.37556629E+00 0.39793899E+04</pdfrwt>
<pdfrwt beam="2">  1       -2 0.24949376E+00 0.39793899E+04</pdfrwt>
<totfact> 0.19254681E-01</totfact>
</mgrwt>
</event>
<event>
 6    1  0.1885829E-005  0.7793010E+03  0.7818608E-02  0.9590471E-01
          2   -1    0    0  501    0  0.00000000000E+00  0.00000000000E+00  0.32965963623E+03  0.32965963623E+03  0.00000000000E+00 0. -1.
         -2   -1    0    0    0  501 -0.00000000000E+00 -0.00000000000E+00 -0.46055836135E+03  0.46055836135E+03  0.00000000000E+00 0.  1.
         23    2    1    2    0    0 -0.81909593554E+02 -0.30123659070E+03 -0.29314050966E+03  0.43840119619E+03  0.93870044870E+02 0.  0.
         11    1    3    3    0    0 -0.66534642524E+01 -0.10183895944E+03 -0.15089057198E+03  0.18216313282E+03  0.00000000000E+00 0. -1.
        -11    1    3    3    0    0 -0.75256129302E+02 -0.19939763126E+03 -0.14224993768E+03  0.25623806337E+03  0.00000000000E+00 0.  1.
         22    1    1    2    0    0  0.81909593554E+02  0.30123659070E+03  0.16224178454E+03  0.35181680139E+03  0.00000000000E+00 0.  1.
<mgrwt>
<rscale>  0 0.77930097E+03</rscale>
<asrwt>0</asrwt>
<pdfrwt beam="1">  1        2 0.50716867E-01 0.77930097E+03</pdfrwt>
<pdfrwt beam="2">  1       -2 0.70855132E-01 0.77930097E+03</pdfrwt>
<totfact> 0.18036128E+02</totfact>
</mgrwt>
</event>
<event>
 6    1  0.1885829E-005  0.2705552E+04  0.7818608E-02  0.8333206E-01
          2   -1    0    0  501    0  0.00000000000E+00  0.00000000000E+00  0.69089066703E+03  0.69089066703E+03  0.00000000000E+00 0.  1.
         -2   -1    0    0    0  501 -0.00000000000E+00 -0.00000000000E+00 -0.26487590159E+04  0.26487590159E+04  0.00000000000E+00 0. -1.
         23    2    1    2    0    0 -0.82818768168E+03  0.53386363845E+03  0.16117966273E+03  0.10027137197E+04  0.92469992649E+02 0.  0.
         11    1    3    3    0    0 -0.82229519828E+02  0.88814869628E+02  0.18554949670E+02  0.12245023951E+03  0.00000000000E+00 0. -1.
        -11    1    3    3    0    0 -0.74595816186E+03  0.44504876883E+03  0.14262471306E+03  0.88026348024E+03  0.00000000000E+00 0.  1.
         22    1    1    2    0    0  0.82818768168E+03 -0.53386363845E+03 -0.21190480116E+04  0.23369359632E+04  0.00000000000E+00 0. -1.
<mgrwt>
<rscale>  0 0.27055520E+04</rscale>
<asrwt>0</asrwt>
<pdfrwt beam="1">  1        2 0.10629087E+00 0.27055520E+04</pdfrwt>
<pdfrwt beam="2">  1       -2 0.40750139E+00 0.27055520E+04</pdfrwt>
<totfact> 0.24202200E-01</totfact>
</mgrwt>
</event>
<event>
 6    1  0.1885829E-005  0.2505130E+04  0.7818608E-02  0.8401160E-01
         -2   -1    0    0    0  501 -0.00000000000E+00  0.00000000000E+00  0.94062300158E+03  0.94062300158E+03  0.00000000000E+00 0.  1.
          2   -1    0    0  501    0  0.00000000000E+00 -0.00000000000E+00 -0.16679572902E+04  0.16679572902E+04  0.00000000000E+00 0. -1.
         23    2    1    2    0    0  0.38045619929E+03  0.79890504027E+03  0.55650402193E+03  0.10493378505E+04  0.91744292488E+02 0.  0.
         13    1    3    3    0    0  0.30023155563E+03  0.64351318271E+03  0.48749306757E+03  0.86133483282E+03  0.00000000000E+00 0. -1.
        -13    1    3    3    0    0  0.80224643666E+02  0.15539185756E+03  0.69010954363E+02  0.18800301771E+03  0.00000000000E+00 0.  1.
         22    1    1    2    0    0 -0.38045619929E+03 -0.79890504027E+03 -0.12838383105E+04  0.15592424412E+04  0.00000000000E+00 0. -1.
<mgrwt>
<rscale>  0 0.25051299E+04</rscale>
<asrwt>0</asrwt>
<pdfrwt beam="1">  1        2 0.25660881E+00 0.25051299E+04</pdfrwt>
<pdfrwt beam="2">  1       -2 0.14471123E+00 0.25051299E+04</pdfrwt>
<totfact> 0.30012093E+00</totfact>
</mgrwt>
</event>
<event>
 6    1  0.1885829E-005  0.2664451E+04  0.7818608E-02  0.8346632E-01
          1   -1    0    0  501    0  0.00000000000E+00  0.00000000000E+00  0.22580783428E+04  0.22580783428E+04  0.00000000000E+00 0. -1.
         -1   -1    0    0    0  501 -0.00000000000E+00 -0.00000000000E+00 -0.78598879159E+03  0.78598879159E+03  0.00000000000E+00 0.  1.
         23    2    1    2    0    0  0.31945370523E+03  0.10937256397E+03  0.22073876626E+04  0.22349464141E+04  0.91717793549E+02 0.  0.
         11    1    3    3    0    0  0.10398887571E+03  0.29176322296E+02  0.10041239861E+04  0.10099158002E+04  0.00000000000E+00 0.  1.
        -11    1    3    3    0    0  0.21546482952E+03  0.80196241675E+02  0.12032636764E+04  0.12250306139E+04  0.00000000000E+00 0. -1.
         22    1    1    2    0    0 -0.31945370523E+03 -0.10937256397E+03 -0.73529811131E+03  0.80912072031E+03  0.00000000000E+00 0.  1.
<mgrwt>
<rscale>  0 0.26644506E+04</rscale>
<asrwt>0</asrwt>
<pdfrwt beam="1">  1        1 0.34739667E+00 0.26644506E+04</pdfrwt>
<pdfrwt beam="2">  1       -1 0.12092135E+00 0.26644506E+04</pdfrwt>
<totfact> 0.10577003E+00</totfact>
</mgrwt>
</event>
<event>
 6    1  0.1885829E-005  0.1002078E+04  0.7818608E-02  0.9306268E-01
         -2   -1    0    0    0  501 -0.00000000000E+00  0.00000000000E+00  0.22719856380E+03  0.22719856380E+03  0.00000000000E+00 0.  1.
          2   -1    0    0  501    0  0.00000000000E+00 -0.00000000000E+00 -0.11049374107E+04  0.11049374107E+04  0.00000000000E+00 0. -1.
         23    2    1    2    0    0  0.87361082304E+01  0.46405803624E+03 -0.67872363904E+03  0.82712782252E+03  0.89713299027E+02 0.  0.
         13    1    3    3    0    0  0.41053845226E+02  0.11608315718E+03 -0.18542796400E+03  0.22258537109E+03  0.00000000000E+00 0. -1.
        -13    1    3    3    0    0 -0.32317736995E+02  0.34797487905E+03 -0.49329567503E+03  0.60454245143E+03  0.00000000000E+00 0.  1.
         22    1    1    2    0    0 -0.87361082304E+01 -0.46405803624E+03 -0.19901520784E+03  0.50500815195E+03  0.00000000000E+00 0.  1.
<mgrwt>
<rscale>  0 0.10020782E+04</rscale>
<asrwt>0</asrwt>
<pdfrwt beam="1">  1        2 0.16999037E+00 0.10020782E+04</pdfrwt>
<pdfrwt beam="2">  1       -2 0.34953625E-01 0.10020782E+04</pdfrwt>
<totfact> 0.16565626E+02</totfact>
</mgrwt>
</event>
<event>
 6    1  0.1885829E-005  0.4570235E+04  0.7818608E-02  0.7898455E-01
          2   -1    0    0  501    0  0.00000000000E+00  0.00000000000E+00  0.41826537004E+04  0.41826537004E+04  0.00000000000E+00 0. -1.
         -2   -1    0    0    0  501 -0.00000000000E+00 -0.00000000000E+00 -0.12484328732E+04  0.12484328732E+04  0.00000000000E+00 0.  1.
         23    2    1    2    0    0 -0.87185162251E+03 -0.87564805550E+03 -0.81534237127E+03  0.14831619354E+04  0.90007641498E+02 0.  0.
         11    1    3    3    0    0 -0.44861024582E+03 -0.40286895123E+03 -0.43303198986E+03  0.74234173314E+03  0.00000000000E+00 0.  1.
        -11    1    3    3    0    0 -0.42324137669E+03 -0.47277910427E+03 -0.38231038141E+03  0.74082020228E+03  0.00000000000E+00 0. -1.
         22    1    1    2    0    0  0.87185162251E+03  0.87564805550E+03  0.37495631985E+04  0.39479246381E+04  0.00000000000E+00 0. -1.
<mgrwt>
<rscale>  0 0.45702352E+04</rscale>
<asrwt>0</asrwt>
<pdfrwt beam="1">  1        2 0.64348518E+00 0.45702352E+04</pdfrwt>
<pdfrwt beam="2">  1       -2 0.19206660E+00 0.45702352E+04</pdfrwt>
<totfact> 0.27075531E-02</totfact>
</mgrwt>
</event>
<event>
 6    1  0.1885829E-005  0.5207613E+04  0.7818608E-02  0.7797255E-01
          1   -1    0    0  501    0  0.00000000000E+00  0.00000000000E+00  0.26452225925E+04  0.26452225925E+04  0.00000000000E+00 0. -1.
         -1   -1    0    0    0  501 -0.00000000000E+00 -0.00000000000E+00 -0.25630392498E+04  0.25630392498E+04  0.00000000000E+00 0.  1.
         23    2    1    2    0    0 -0.61577685423E+03  0.25213479815E+04  0.23942300118E+03  0.26080501031E+04  0.90692826227E+02 0.  0.
         13    1    3    3    0    0 -0.25933526115E+03  0.12315927666E+04  0.95152490875E+02  0.12621923454E+04  0.00000000000E+00 0. -1.
        -13    1    3    3    0    0 -0.35644159308E+03  0.12897552150E+04  0.14427051031E+03  0.13458577577E+04  0.00000000000E+00 0.  1.
         22    1    1    2    0    0  0.61577685423E+03 -0.25213479815E+04 -0.15723965849E+03  0.26002117391E+04  0.00000000000E+00 0. -1.
<mgrwt>
<rscale>  0 0.52076134E+04</rscale>
<asrwt>0</asrwt>
<pdfrwt beam="1">  1        1 0.40695732E+00 0.52076134E+04</pdfrwt>
<pdfrwt beam="2">  1       -1 0.39431373E+00 0.52076134E+04</pdfrwt>
<totfact> 0.59625810E-03</totfact>
</mgrwt>
</event>
<event>
 6    1  0.1885829E-005  0.2538903E+04  0.7818608E-02  0.8389256E-01
         -2   -1    0    0    0  501 -0.00000000000E+00  0.00000000000E+00  0.18202558650E+04  0.18202558650E+04  0.00000000000E+00 0.  1.
          2   -1    0    0  501    0  0.00000000000E+00 -0.00000000000E+00 -0.88531906064E+03  0.88531906064E+03  0.00000000000E+00 0. -1.
         23    2    1    2    0    0 -0.56230072287E+03  0.17156622460E+03  0.16650984959E+04  0.17681565729E+04  0.90595764962E+02 0.  0.
         13    1    3    3    0    0 -0.50133302598E+03  0.15612341658E+03  0.13877199623E+04  0.14837371795E+04  0.00000000000E+00 0. -1.
        -13    1    3    3    0    0 -0.60967696886E+02  0.15442808027E+02  0.27737853366E+03  0.28441939336E+03  0.00000000000E+00 0.  1.
         22    1    1    2    0    0  0.56230072287E+03 -0.17156622460E+03 -0.73016169155E+03  0.93741835280E+03  0.00000000000E+00 0. -1.
<mgrwt>
<rscale>  0 0.25389031E+04</rscale>
<asrwt>0</asrwt>
<pdfrwt beam="1">  1        2 0.13620293E+00 0.25389031E+04</pdfrwt>
<pdfrwt beam="2">  1       -2 0.28003936E+00 0.25389031E+04</pdfrwt>
<totfact> 0.11227205E+00</totfact>
</mgrwt>
</event>
<event>
 6    1  0.2138849E-005  0.4901101E+04  0.7818608E-02  0.7843947E-01
         -2   -1    0    0    0  501 -0.00000000000E+00  0.00000000000E+00  0.25048870326E+04  0.25048870326E+04  0.00000000000E+00 0. -1.
          2   -1    0    0  501    0  0.00000000000E+00 -0.00000000000E+00 -0.23973922113E+04  0.23973922113E+04  0.00000000000E+00 0.  1.
         23    2    1    2    0    0  0.54765711816E+03 -0.18726240820E+04 -0.14278765982E+04  0.24195358687E+04  0.93128775215E+02 0.  0.
         11    1    3    3    0    0  0.45957089957E+03 -0.14650639845E+04 -0.10931291942E+04  0.18848207675E+04  0.00000000000E+00 0.  1.
        -11    1    3    3    0    0  0.88086218592E+02 -0.40756009747E+03 -0.33474740399E+03  0.53471510118E+03  0.00000000000E+00 0. -1.
         22    1    1    2    0    0 -0.54765711816E+03  0.18726240820E+04  0.15353714195E+04  0.24827433753E+04  0.00000000000E+00 0. -1.
<mgrwt>
<rscale>  0 0.49011006E+04</rscale>
<asrwt>0</asrwt>
<pdfrwt beam="1">  1        2 0.36882957E+00 0.49011006E+04</pdfrwt>
<pdfrwt beam="2">  1       -2 0.38536724E+00 0.49011006E+04</pdfrwt>
<totfact> 0.27065731E-02</totfact>
</mgrwt>
</event>
<event>
 6    1  0.1885829E-005  0.1218829E+04  0.7818608E-02  0.9096533E-01
          2   -1    0    0  501    0  0.00000000000E+00  0.00000000000E+00  0.10386276585E+04  0.10386276585E+04  0.00000000000E+00 0. -1.
         -2   -1    0    0    0  501 -0.00000000000E+00 -0.00000000000E+00 -0.35757401460E+03  0.35757401460E+03  0.00000000000E+00 0.  1.
         23    2    1    2    0    0 -0.94903114732E+02  0.56389040993E+03  0.11254267689E+03  0.58986197100E+03  0.91062039946E+02 0.  0.
         11    1    3    3    0    0 -0.23896210831E+02  0.60028497197E+02  0.39704148361E+02  0.75834482690E+02  0.00000000000E+00 0.  1.
        -11    1    3    3    0    0 -0.71006903901E+02  0.50386191273E+03  0.72838528528E+02  0.51402748831E+03  0.00000000000E+00 0. -1.
         22    1    1    2    0    0  0.94903114732E+02 -0.56389040993E+03  0.56851096706E+03  0.80633970215E+03  0.00000000000E+00 0. -1.
<mgrwt>
<rscale>  0 0.12188294E+04</rscale>
<asrwt>0</asrwt>
<pdfrwt beam="1">  1        2 0.15978887E+00 0.12188294E+04</pdfrwt>
<pdfrwt beam="2">  1       -2 0.55011387E-01 0.12188294E+04</pdfrwt>
<totfact> 0.72885302E+01</totfact>
</mgrwt>
</event>
<event>
 6    1  0.1885829E-005  0.1851669E+04  0.7818608E-02  0.8679295E-01
         -2   -1    0    0    0  501 -0.00000000000E+00  0.00000000000E+00  0.29355128490E+03  0.29355128490E+03  0.00000000000E+00 0.  1.
          2   -1    0    0  501    0  0.00000000000E+00 -0.00000000000E+00 -0.29199992920E+04  0.29199992920E+04  0.00000000000E+00 0. -1.
         23    2    1    2    0    0 -0.24569487817E+02 -0.91926250567E+03 -0.11672534538E+04  0.14887619063E+04  0.91017438089E+02 0.  0.
         13    1    3    3    0    0  0.19198945256E+02 -0.51399876023E+03 -0.60098857228E+03  0.79104398678E+03  0.00000000000E+00 0. -1.
        -13    1    3    3    0    0 -0.43768433072E+02 -0.40526374544E+03 -0.56626488156E+03  0.69771791950E+03  0.00000000000E+00 0.  1.
         22    1    1    2    0    0  0.24569487817E+02  0.91926250567E+03 -0.14591945533E+04  0.17247886706E+04  0.00000000000E+00 0. -1.
<mgrwt>
<rscale>  0 0.18516690E+04</rscale>
<asrwt>0</asrwt>
<pdfrwt beam="1">  1        2 0.44923064E+00 0.18516690E+04</pdfrwt>
<pdfrwt beam="2">  1       -2 0.45161738E-01 0.18516690E+04</pdfrwt>
<totfact> 0.85615271E+00</totfact>
</mgrwt>
</event>
<event>
 6    1  0.1885829E-005  0.1060030E+04  0.7818608E-02  0.9245049E-01
         -2   -1    0    0    0  501 -0.00000000000E+00  0.00000000000E+00  0.14834980075E+04  0.14834980075E+04  0.00000000000E+00 0. -1.
          2   -1    0    0  501    0  0.00000000000E+00 -0.00000000000E+00 -0.18936063891E+03  0.18936063891E+03  0.00000000000E+00 0.  1.
         23    2    1    2    0    0 -0.63653738454E+02  0.10225874747E+03  0.14600275395E+04  0.14678508450E+04  0.91635348884E+02 0.  0.
         11    1    3    3    0    0 -0.77205601450E+02  0.39079069257E+02  0.79854930305E+03  0.80322404593E+03  0.00000000000E+00 0.  1.
        -11    1    3    3    0    0  0.13551862996E+02  0.63179678217E+02  0.66147823646E+03  0.66462679907E+03  0.00000000000E+00 0. -1.
         22    1    1    2    0    0  0.63653738454E+02 -0.10225874747E+03 -0.16589017089E+03  0.20500780144E+03  0.00000000000E+00 0.  1.
<mgrwt>
<rscale>  0 0.10600304E+04</rscale>
<asrwt>0</asrwt>
<pdfrwt beam="1">  1        2 0.29132407E-01 0.10600304E+04</pdfrwt>
<pdfrwt beam="2">  1       -2 0.22823045E+00 0.10600304E+04</pdfrwt>
<totfact> 0.16114616E+01</totfact>
</mgrwt>
</event>
<event>
 6    1  0.1885829E-005  0.1489206E+04  0.7818608E-02  0.8891663E-01
          2   -1    0    0  501    0  0.00000000000E+00  0.00000000000E+00  0.10600656761E+04  0.10600656761E+04  0.00000000000E+00 0. -1.
         -2   -1    0    0    0  501 -0.00000000000E+00 -0.00000000000E+00 -0.52301831310E+03  0.52301831310E+03  0.00000000000E+00 0.  1.
         23    2    1    2    0    0 -0.31316173380E+03  0.66545694310E+03  0.37239859122E+03  0.82941799375E+03  0.91379882731E+02 0.  0.
         13    1    3    3    0    0 -0.77372112037E+02  0.12794423231E+03  0.39579214044E+02  0.15466959781E+03  0.00000000000E+00 0.  1.
        -13    1    3    3    0    0 -0.23578962176E+03  0.53751271080E+03  0.33281937718E+03  0.67474839594E+03  0.00000000000E+00 0. -1.
         22    1    1    2    0    0  0.31316173380E+03 -0.66545694310E+03  0.16464877176E+03  0.75366599544E+03  0.00000000000E+00 0. -1.
<mgrwt>
<rscale>  0 0.14892062E+04</rscale>
<asrwt>0</asrwt>
<pdfrwt beam="1">  1        2 0.16308703E+00 0.14892062E+04</pdfrwt>
<pdfrwt beam="2">  1       -2 0.80464356E-01 0.14892062E+04</pdfrwt>
<totfact> 0.30443218E+01</totfact>
</mgrwt>
</event>
<event>
 6    1  0.1885829E-005  0.4178553E+04  0.7818608E-02  0.7969465E-01
         -2   -1    0    0    0  501 -0.00000000000E+00  0.00000000000E+00  0.35382913486E+04  0.35382913486E+04  0.00000000000E+00 0. -1.
          2   -1    0    0  501    0  0.00000000000E+00 -0.00000000000E+00 -0.12336676271E+04  0.12336676271E+04  0.00000000000E+00 0.  1.
         23    2    1    2    0    0  0.34493780074E+03 -0.10687628209E+04  0.31635705648E+04  0.33580899105E+04  0.85750070252E+02 0.  0.
         13    1    3    3    0    0  0.34879577049E+03 -0.10394246663E+04  0.30662951000E+04  0.32564133286E+04  0.00000000000E+00 0.  1.
        -13    1    3    3    0    0 -0.38579697562E+01 -0.29338154670E+02  0.97275464887E+02  0.10167658196E+03  0.00000000000E+00 0. -1.
         22    1    1    2    0    0 -0.34493780074E+03  0.10687628209E+04 -0.85894684332E+03  0.14138690652E+04  0.00000000000E+00 0.  1.
<mgrwt>
<rscale>  0 0.41785526E+04</rscale>
<asrwt>0</asrwt>
<pdfrwt beam="1">  1        2 0.18979502E+00 0.41785526E+04</pdfrwt>
<pdfrwt beam="2">  1       -2 0.54435251E+00 0.41785526E+04</pdfrwt>
<totfact> 0.12883240E-02</totfact>
</mgrwt>
</event>
<event>
 6    1  0.1885829E-005  0.1012167E+04  0.7818608E-02  0.9295300E-01
         -2   -1    0    0    0  501 -0.00000000000E+00  0.00000000000E+00  0.72676072113E+03  0.72676072113E+03  0.00000000000E+00 0.  1.
          2   -1    0    0  501    0  0.00000000000E+00 -0.00000000000E+00 -0.35241400862E+03  0.35241400862E+03  0.00000000000E+00 0. -1.
         23    2    1    2    0    0  0.46707884833E+03 -0.14439589636E+03  0.31036080232E+03  0.58611588727E+03  0.90527234886E+02 0.  0.
         11    1    3    3    0    0  0.29328665278E+03 -0.12527096287E+03  0.16690537600E+03  0.35995455182E+03  0.00000000000E+00 0. -1.
        -11    1    3    3    0    0  0.17379219554E+03 -0.19124933492E+02  0.14345542631E+03  0.22616133545E+03  0.00000000000E+00 0.  1.
         22    1    1    2    0    0 -0.46707884833E+03  0.14439589636E+03  0.63985910194E+02  0.49305884248E+03  0.00000000000E+00 0. -1.
<mgrwt>
<rscale>  0 0.10121673E+04</rscale>
<asrwt>0</asrwt>
<pdfrwt beam="1">  1        2 0.54217540E-01 0.10121673E+04</pdfrwt>
<pdfrwt beam="2">  1       -2 0.11180934E+00 0.10121673E+04</pdfrwt>
<totfact> 0.57771836E+01</totfact>
</mgrwt>
</event>
<event>
 6    1  0.1885829E-005  0.5771161E+04  0.7818608E-02  0.7719441E-01
         -2   -1    0    0    0  501 -0.00000000000E+00  0.00000000000E+00  0.21352432840E+04  0.21352432840E+04  0.00000000000E+00 0.  1.
          2   -1    0    0  501    0  0.00000000000E+00 -0.00000000000E+00 -0.38995913149E+04  0.38995913149E+04  0.00000000000E+00 0. -1.
         23    2    1    2    0    0 -0.18888934896E+04 -0.11468616258E+04 -0.28216263646E+04  0.35851310089E+04  0.91535818218E+02 0.  0.
         13    1    3    3    0    0 -0.17181486780E+04 -0.10527559008E+04 -0.26109203370E+04  0.32980653227E+04  0.00000000000E+00 0.  1.
        -13    1    3    3    0    0 -0.17074481157E+03 -0.94105725087E+02 -0.21070602754E+03  0.28706568624E+03  0.00000000000E+00 0. -1.
         22    1    1    2    0    0  0.18888934896E+04  0.11468616258E+04  0.10572783337E+04  0.24497035900E+04  0.00000000000E+00 0.  1.
<mgrwt>
<rscale>  0 0.57711615E+04</rscale>
<asrwt>0</asrwt>
<pdfrwt beam="1">  1        2 0.59993712E+00 0.57711615E+04</pdfrwt>
<pdfrwt beam="2">  1       -2 0.32849897E+00 0.57711615E+04</pdfrwt>
<totfact> 0.59507115E-03</totfact>
</mgrwt>
</event>
<event>
 6    1  0.1885829E-005  0.1333770E+04  0.7818608E-02  0.9003206E-01
          2   -1    0    0  501    0  0.00000000000E+00  0.00000000000E+00  0.11165055530E+04  0.11165055530E+04  0.00000000000E+00 0. -1.
         -2   -1    0    0    0  501 -0.00000000000E+00 -0.00000000000E+00 -0.39832804804E+03  0.39832804804E+03  0.00000000000E+00 0.  1.
         23    2    1    2    0    0 -0.21153626282E+03  0.10943550741E+03  0.10638106891E+04  0.10950884180E+04  0.10393142059E+03 0.  0.
         11    1    3    3    0    0 -0.50826960885E+02 -0.94752207507E+01  0.12580435672E+03  0.13601432252E+03  0.00000000000E+00 0. -1.
        -11    1    3    3    0    0 -0.16070930194E+03  0.11891072816E+03  0.93800633239E+03  0.95907409548E+03  0.00000000000E+00 0.  1.
         22    1    1    2    0    0  0.21153626282E+03 -0.10943550741E+03 -0.34563318411E+03  0.41974518309E+03  0.00000000000E+00 0.  1.
<mgrwt>
<rscale>  0 0.13337698E+04</rscale>
<asrwt>0</asrwt>
<pdfrwt beam="1">  1        2 0.17177008E+00 0.13337698E+04</pdfrwt>
<pdfrwt beam="2">  1       -2 0.61281239E-01 0.13337698E+04</pdfrwt>
<totfact> 0.51539963E+01</totfact>
</mgrwt>
</event>
<event>
 6    1  0.1885829E-005  0.3470782E+04  0.7818608E-02  0.8120749E-01
         -1   -1    0    0    0  501 -0.00000000000E+00  0.00000000000E+00  0.14842851332E+04  0.14842851332E+04  0.00000000000E+00 0.  1.
          1   -1    0    0  501    0  0.00000000000E+00 -0.00000000000E+00 -0.20289785757E+04  0.20289785757E+04  0.00000000000E+00 0. -1.
         23    2    1    2    0    0  0.14846893053E+03  0.63428531560E+03 -0.18994418774E+04  0.20100324536E+04  0.89387549278E+02 0.  0.
         13    1    3    3    0    0  0.14167173080E+03  0.43547609544E+03 -0.12818495775E+04  0.13611938321E+04  0.00000000000E+00 0. -1.
        -13    1    3    3    0    0  0.67971997293E+01  0.19880922017E+03 -0.61759229990E+03  0.64883862157E+03  0.00000000000E+00 0.  1.
         22    1    1    2    0    0 -0.14846893053E+03 -0.63428531560E+03  0.13547484350E+04  0.15032312553E+04  0.00000000000E+00 0.  1.
<mgrwt>
<rscale>  0 0.34707825E+04</rscale>
<asrwt>0</asrwt>
<pdfrwt beam="1">  1        1 0.31215055E+00 0.34707825E+04</pdfrwt>
<pdfrwt beam="2">  1       -1 0.22835156E+00 0.34707825E+04</pdfrwt>
<totfact> 0.22548904E-01</totfact>
</mgrwt>
</event>
<event>
 6    1  0.1885829E-005  0.7441240E+03  0.7818608E-02  0.9644614E-01
          2   -1    0    0  501    0  0.00000000000E+00  0.00000000000E+00  0.18694500656E+03  0.18694500656E+03  0.00000000000E+00 0. -1.
         -2   -1    0    0    0  501 -0.00000000000E+00 -0.00000000000E+00 -0.74048583106E+03  0.74048583106E+03  0.00000000000E+00 0.  1.
         23    2    1    2    0    0  0.16908874369E+03  0.16069778273E+03  0.73179806025E+02  0.25870553576E+03  0.84607857836E+02 0.  0.
         11    1    3    3    0    0  0.72157610717E+02  0.15901060432E+02  0.22509049562E+02  0.77241321968E+02  0.00000000000E+00 0.  1.
        -11    1    3    3    0    0  0.96931132974E+02  0.14479672230E+03  0.50670756462E+02  0.18146421380E+03  0.00000000000E+00 0. -1.
         22    1    1    2    0    0 -0.16908874369E+03 -0.16069778273E+03 -0.62672063053E+03  0.66872530186E+03  0.00000000000E+00 0.  1.
<mgrwt>
<rscale>  0 0.74412399E+03</rscale>
<asrwt>0</asrwt>
<pdfrwt beam="1">  1        2 0.28760770E-01 0.74412399E+03</pdfrwt>
<pdfrwt beam="2">  1       -2 0.11392090E+00 0.74412399E+03</pdfrwt>
<totfact> 0.11369805E+02</totfact>
</mgrwt>
</event>
<event>
 6    1  0.1885829E-005  0.3069048E+04  0.7818608E-02  0.8224284E-01
          2   -1    0    0  501    0  0.00000000000E+00  0.00000000000E+00  0.11093167098E+04  0.11093167098E+04  0.00000000000E+00 0.  1.
         -2   -1    0    0    0  501 -0.00000000000E+00 -0.00000000000E+00 -0.21227150962E+04  0.21227150962E+04  0.00000000000E+00 0. -1.
         23    2    1    2    0    0  0.10495045391E+03  0.89572951162E+03  0.79857652069E+03  0.12080261192E+04  0.90866328273E+02 0.  0.
         11    1    3    3    0    0  0.11268558939E+03  0.61907696410E+03  0.53768927069E+03  0.82768597992E+03  0.00000000000E+00 0. -1.
        -11    1    3    3    0    0 -0.77351354817E+01  0.27665254752E+03  0.26088725000E+03  0.38034013933E+03  0.00000000000E+00 0.  1.
         22    1    1    2    0    0 -0.10495045391E+03 -0.89572951162E+03 -0.18119749072E+04  0.20240056867E+04  0.00000000000E+00 0. -1.
<mgrwt>
<rscale>  0 0.30690476E+04</rscale>
<asrwt>0</asrwt>
<pdfrwt beam="1">  1        2 0.17066411E+00 0.30690476E+04</pdfrwt>
<pdfrwt beam="2">  1       -2 0.32657155E+00 0.30690476E+04</pdfrwt>
<totfact> 0.39890530E-01</totfact>
</mgrwt>
</event>
<event>
 6    1  0.1885829E-005  0.1226741E+04  0.7818608E-02  0.9089767E-01
         -1   -1    0    0    0  501 -0.00000000000E+00  0.00000000000E+00  0.67914177519E+03  0.67914177519E+03  0.00000000000E+00 0.  1.
          1   -1    0    0  501    0  0.00000000000E+00 -0.00000000000E+00 -0.55396847885E+03  0.55396847885E+03  0.00000000000E+00 0. -1.
         23    2    1    2    0    0  0.59737675418E+03  0.94857065436E+02  0.14047794470E+03  0.62805564365E+03  0.94143450490E+02 0.  0.
         11    1    3    3    0    0  0.28809938753E+03  0.88707875423E+02  0.48430989576E+02  0.30531279863E+03  0.00000000000E+00 0. -1.
        -11    1    3    3    0    0  0.30927736665E+03  0.61491900126E+01  0.92046955126E+02  0.32274284501E+03  0.00000000000E+00 0.  1.
         22    1    1    2    0    0 -0.59737675418E+03 -0.94857065436E+02 -0.15304648363E+02  0.60505461039E+03  0.00000000000E+00 0.  1.
<mgrwt>
<rscale>  0 0.12267406E+04</rscale>
<asrwt>0</asrwt>
<pdfrwt beam="1">  1        1 0.85225920E-01 0.12267406E+04</pdfrwt>
<pdfrwt beam="2">  1       -1 0.10448335E+00 0.12267406E+04</pdfrwt>
<totfact> 0.32683317E+01</totfact>
</mgrwt>
</event>
<event>
 6    1  0.1885829E-005  0.2876378E+04  0.7818608E-02  0.8279941E-01
         -2   -1    0    0    0  501 -0.00000000000E+00  0.00000000000E+00  0.15749356055E+04  0.15749356055E+04  0.00000000000E+00 0.  1.
          2   -1    0    0  501    0  0.00000000000E+00 -0.00000000000E+00 -0.13133154515E+04  0.13133154515E+04  0.00000000000E+00 0. -1.
         23    2    1    2    0    0  0.53130457842E+03 -0.53493453824E+03 -0.10959775641E+04  0.13353469776E+04  0.11638390934E+03 0.  0.
         13    1    3    3    0    0  0.47881247865E+03 -0.43679671580E+03 -0.97703767837E+03  0.11724569867E+04  0.00000000000E+00 0.  1.
        -13    1    3    3    0    0  0.52492099772E+02 -0.98137822438E+02 -0.11893988577E+03  0.16288999097E+03  0.00000000000E+00 0. -1.
         22    1    1    2    0    0 -0.53130457842E+03  0.53493453824E+03  0.13575977182E+04  0.15529040794E+04  0.00000000000E+00 0.  1.
<mgrwt>
<rscale>  0 0.28763778E+04</rscale>
<asrwt>0</asrwt>
<pdfrwt beam="1">  1        2 0.20204853E+00 0.28763778E+04</pdfrwt>
<pdfrwt beam="2">  1       -2 0.24229779E+00 0.28763778E+04</pdfrwt>
<totfact> 0.10066685E+00</totfact>
</mgrwt>
</event>
<event>
 6    1  0.1885829E-005  0.8188973E+03  0.7818608E-02  0.9533060E-01
         -2   -1    0    0    0  501 -0.00000000000E+00  0.00000000000E+00  0.79493813625E+03  0.79493813625E+03  0.00000000000E+00 0.  1.
          2   -1    0    0  501    0  0.00000000000E+00 -0.00000000000E+00 -0.21089465767E+03  0.21089465767E+03  0.00000000000E+00 0. -1.
         23    2    1    2    0    0  0.71143338868E+02 -0.25886899370E+03  0.66699314736E+03  0.72484315334E+03  0.91886929180E+02 0.  0.
         11    1    3    3    0    0  0.38099368370E+01 -0.89670447713E+02  0.32771180134E+03  0.33977982511E+03  0.00000000000E+00 0. -1.
        -11    1    3    3    0    0  0.67333402031E+02 -0.16919854598E+03  0.33928134602E+03  0.38506332823E+03  0.00000000000E+00 0.  1.
         22    1    1    2    0    0 -0.71143338868E+02  0.25886899370E+03 -0.82949668785E+02  0.28098964058E+03  0.00000000000E+00 0. -1.
<mgrwt>
<rscale>  0 0.81889732E+03</rscale>
<asrwt>0</asrwt>
<pdfrwt beam="1">  1        2 0.32445332E-01 0.81889732E+03</pdfrwt>
<pdfrwt beam="2">  1       -2 0.12229817E+00 0.81889732E+03</pdfrwt>
<totfact> 0.83033982E+01</totfact>
</mgrwt>
</event>
<event>
 6    1  0.1885829E-005  0.2510128E+04  0.7818608E-02  0.8399386E-01
          1   -1    0    0  501    0  0.00000000000E+00  0.00000000000E+00  0.18067835365E+04  0.18067835365E+04  0.00000000000E+00 0. -1.
         -1   -1    0    0    0  501 -0.00000000000E+00 -0.00000000000E+00 -0.87181768088E+03  0.87181768088E+03  0.00000000000E+00 0.  1.
         23    2    1    2    0    0  0.59877887724E+03  0.92949647847E+02 -0.70277316806E+03  0.93235813851E+03  0.90696151249E+02 0.  0.
         13    1    3    3    0    0  0.58998269459E+02  0.40738490433E+01 -0.11554750776E+03  0.12980222877E+03  0.00000000000E+00 0. -1.
        -13    1    3    3    0    0  0.53978060778E+03  0.88875798804E+02 -0.58722566030E+03  0.80255590974E+03  0.00000000000E+00 0.  1.
         22    1    1    2    0    0 -0.59877887724E+03 -0.92949647847E+02  0.16377390237E+04  0.17462430789E+04  0.00000000000E+00 0. -1.
<mgrwt>
<rscale>  0 0.25101282E+04</rscale>
<asrwt>0</asrwt>
<pdfrwt beam="1">  1        1 0.27796670E+00 0.25101282E+04</pdfrwt>
<pdfrwt beam="2">  1       -1 0.13412580E+00 0.25101282E+04</pdfrwt>
<totfact> 0.16757403E+00</totfact>
</mgrwt>
</event>
<event>
 6    1  0.1885829E-005  0.1134179E+04  0.7818608E-02  0.9172505E-01
         -2   -1    0    0    0  501 -0.00000000000E+00  0.00000000000E+00  0.27707028693E+03  0.27707028693E+03  0.00000000000E+00 0.  1.
          2   -1    0    0  501    0  0.00000000000E+00 -0.00000000000E+00 -0.11606810828E+04  0.11606810828E+04  0.00000000000E+00 0. -1.
         23    2    1    2    0    0 -0.28848859454E+03  0.33750992823E+03 -0.50973084633E+01  0.45341170864E+03  0.91747338599E+02 0.  0.
         13    1    3    3    0    0 -0.91720697330E+02  0.17691511606E+03 -0.74275134716E+01  0.19941617930E+03  0.00000000000E+00 0.  1.
        -13    1    3    3    0    0 -0.19676789721E+03  0.16059481217E+03  0.23302050083E+01  0.25399552934E+03  0.00000000000E+00 0. -1.
         22    1    1    2    0    0  0.28848859454E+03 -0.33750992823E+03 -0.87851348740E+03  0.98433966108E+03  0.00000000000E+00 0. -1.
<mgrwt>
<rscale>  0 0.11341785E+04</rscale>
<asrwt>0</asrwt>
<pdfrwt beam="1">  1        2 0.17856632E+00 0.11341785E+04</pdfrwt>
<pdfrwt beam="2">  1       -2 0.42626198E-01 0.11341785E+04</pdfrwt>
<totfact> 0.10333509E+02</totfact>
</mgrwt>
</event>
<event>
 6    1  0.1885829E-005  0.2702757E+04  0.7818608E-02  0.8334111E-01
          2   -1    0    0  501    0  0.00000000000E+00  0.00000000000E+00  0.26405542789E+04  0.26405542789E+04  0.00000000000E+00 0.  1.
         -2   -1    0    0    0  501 -0.00000000000E+00 -0.00000000000E+00 -0.69160643098E+03  0.69160643098E+03  0.00000000000E+00 0. -1.
         23    2    1    2    0    0 -0.87239740717E+03  0.88014753355E+03  0.31608056432E+03  0.12822844983E+04  0.92788440253E+02 0.  0.
         11    1    3    3    0    0 -0.19751618153E+03  0.16691218519E+03  0.35212128554E+02  0.26098316714E+03  0.00000000000E+00 0. -1.
        -11    1    3    3    0    0 -0.67488122563E+03  0.71323534836E+03  0.28086843576E+03  0.10213013312E+04  0.00000000000E+00 0.  1.
         22    1    1    2    0    0  0.87239740717E+03 -0.88014753355E+03  0.16328672836E+04  0.20498762115E+04  0.00000000000E+00 0.  1.
<mgrwt>
<rscale>  0 0.27027573E+04</rscale>
<asrwt>0</asrwt>
<pdfrwt beam="1">  1        2 0.40623911E+00 0.27027573E+04</pdfrwt>
<pdfrwt beam="2">  1       -2 0.10640099E+00 0.27027573E+04</pdfrwt>
<totfact> 0.17982230E+00</totfact>
</mgrwt>
</event>
<event>
 6    1  0.1885829E-005  0.3308318E+04  0.7818608E-02  0.8160782E-01
          2   -1    0    0  501    0  0.00000000000E+00  0.00000000000E+00  0.18301899483E+04  0.18301899483E+04  0.00000000000E+00 0. -1.
         -2   -1    0    0    0  501 -0.00000000000E+00 -0.00000000000E+00 -0.14950590707E+04  0.14950590707E+04  0.00000000000E+00 0.  1.
         23    2    1    2    0    0  0.32221561187E+03 -0.15011476848E+04  0.78281541543E+03  0.17259714579E+04  0.94393998470E+02 0.  0.
         11    1    3    3    0    0  0.15617301106E+02 -0.12924859250E+03  0.93740240259E+02  0.16042546993E+03  0.00000000000E+00 0.  1.
        -11    1    3    3    0    0  0.30659831077E+03 -0.13718990923E+04  0.68907517517E+03  0.15655459880E+04  0.00000000000E+00 0. -1.
         22    1    1    2    0    0 -0.32221561187E+03  0.15011476848E+04 -0.44768453782E+03  0.15992775611E+04  0.00000000000E+00 0. -1.
<mgrwt>
<rscale>  0 0.33083181E+04</rscale>
<asrwt>0</asrwt>
<pdfrwt beam="1">  1        2 0.28156768E+00 0.33083181E+04</pdfrwt>
<pdfrwt beam="2">  1       -2 0.23000909E+00 0.33083181E+04</pdfrwt>
<totfact> 0.59241549E-01</totfact>
</mgrwt>
</event>
<event>
 6    1  0.1885829E-005  0.3330820E+04  0.7818608E-02  0.8155097E-01
         -2   -1    0    0    0  501 -0.00000000000E+00  0.00000000000E+00  0.24721298935E+04  0.24721298935E+04  0.00000000000E+00 0.  1.
          2   -1    0    0  501    0  0.00000000000E+00 -0.00000000000E+00 -0.11219439345E+04  0.11219439345E+04  0.00000000000E+00 0. -1.
         23    2    1    2    0    0 -0.11279183452E+04  0.22255659373E+02  0.19957162893E+04  0.22943028808E+04  0.90813509478E+02 0.  0.
         11    1    3    3    0    0 -0.42363661536E+03  0.31533315575E+02  0.67615603760E+03  0.79852947288E+03  0.00000000000E+00 0. -1.
        -11    1    3    3    0    0 -0.70428172983E+03 -0.92776562020E+01  0.13195602517E+04  0.14957734079E+04  0.00000000000E+00 0.  1.
         22    1    1    2    0    0  0.11279183452E+04 -0.22255659373E+02 -0.64553033039E+03  0.12997709472E+04  0.00000000000E+00 0. -1.
<mgrwt>
<rscale>  0 0.33308204E+04</rscale>
<asrwt>0</asrwt>
<pdfrwt beam="1">  1        2 0.17260676E+00 0.33308204E+04</pdfrwt>
<pdfrwt beam="2">  1       -2 0.38032767E+00 0.33308204E+04</pdfrwt>
<totfact> 0.17518011E-01</totfact>
</mgrwt>
</event>
<event>
 6    1  0.1885829E-005  0.1450799E+04  0.7818608E-02  0.8917847E-01
          2   -1    0    0  501    0  0.00000000000E+00  0.00000000000E+00  0.24094580712E+04  0.24094580712E+04  0.00000000000E+00 0. -1.
         -2   -1    0    0    0  501 -0.00000000000E+00 -0.00000000000E+00 -0.21839105857E+03  0.21839105857E+03  0.00000000000E+00 0.  1.
         23    2    1    2    0    0 -0.26178354627E+03 -0.67223121319E+03  0.11704074330E+04  0.13779805741E+04  0.92474180994E+02 0.  0.
         11    1    3    3    0    0 -0.20232290276E+03 -0.39766349962E+03  0.73393851383E+03  0.85891592021E+03  0.00000000000E+00 0. -1.
        -11    1    3    3    0    0 -0.59460643514E+02 -0.27456771357E+03  0.43646891921E+03  0.51906465387E+03  0.00000000000E+00 0.  1.
         22    1    1    2    0    0  0.26178354627E+03  0.67223121319E+03  0.10206595796E+04  0.12498685557E+04  0.00000000000E+00 0.  1.
<mgrwt>
<rscale>  0 0.14507985E+04</rscale>
<asrwt>0</asrwt>
<pdfrwt beam="1">  1        2 0.37068584E+00 0.14507985E+04</pdfrwt>
<pdfrwt beam="2">  1       -2 0.33598626E-01 0.14507985E+04</pdfrwt>
<totfact> 0.31613520E+01</totfact>
</mgrwt>
</event>
<event>
 6    1  0.1885829E-005  0.2983169E+04  0.7818608E-02  0.8248554E-01
         -2   -1    0    0    0  501 -0.00000000000E+00  0.00000000000E+00  0.13597945500E+04  0.13597945500E+04  0.00000000000E+00 0.  1.
          2   -1    0    0  501    0  0.00000000000E+00 -0.00000000000E+00 -0.16361472017E+04  0.16361472017E+04  0.00000000000E+00 0. -1.
         23    2    1    2    0    0 -0.56415405764E+03 -0.72258237441E+03 -0.13183203869E+04  0.16081046396E+04  0.87388792271E+02 0.  0.
         11    1    3    3    0    0 -0.93332592346E+02 -0.17102089138E+03 -0.30847544242E+03  0.36485095130E+03  0.00000000000E+00 0.  1.
        -11    1    3    3    0    0 -0.47082146529E+03 -0.55156148303E+03 -0.10098449445E+04  0.12432536883E+04  0.00000000000E+00 0. -1.
         22    1    1    2    0    0  0.56415405764E+03  0.72258237441E+03  0.10419677352E+04  0.13878371121E+04  0.00000000000E+00 0.  1.
<mgrwt>
<rscale>  0 0.29831688E+04</rscale>
<asrwt>0</asrwt>
<pdfrwt beam="1">  1        2 0.25171495E+00 0.29831688E+04</pdfrwt>
<pdfrwt beam="2">  1       -2 0.20919916E+00 0.29831688E+04</pdfrwt>
<totfact> 0.10574487E+00</totfact>
</mgrwt>
</event>
<event>
 6    1  0.1885829E-005  0.1817900E+04  0.7818608E-02  0.8696838E-01
          2   -1    0    0  501    0  0.00000000000E+00  0.00000000000E+00  0.13443184176E+04  0.13443184176E+04  0.00000000000E+00 0. -1.
         -2   -1    0    0    0  501 -0.00000000000E+00 -0.00000000000E+00 -0.61457899724E+03  0.61457899724E+03  0.00000000000E+00 0.  1.
         23    2    1    2    0    0  0.69796686957E+03  0.56057695646E+02 -0.25488601009E+03  0.75068077261E+03  0.90854432897E+02 0.  0.
         11    1    3    3    0    0  0.17692128956E+03  0.19852088545E+02 -0.24072556059E+02  0.17965170768E+03  0.00000000000E+00 0.  1.
        -11    1    3    3    0    0  0.52104558001E+03  0.36205607101E+02 -0.23081345403E+03  0.57102906493E+03  0.00000000000E+00 0. -1.
         22    1    1    2    0    0 -0.69796686957E+03 -0.56057695646E+02  0.98462543049E+03  0.12082166423E+04  0.00000000000E+00 0. -1.
<mgrwt>
<rscale>  0 0.18178997E+04</rscale>
<asrwt>0</asrwt>
<pdfrwt beam="1">  1        2 0.20681822E+00 0.18178997E+04</pdfrwt>
<pdfrwt beam="2">  1       -2 0.94550615E-01 0.18178997E+04</pdfrwt>
<totfact> 0.13842732E+01</totfact>
</mgrwt>
</event>
<event>
 6    1  0.1885829E-005  0.3446804E+04  0.7818608E-02  0.8126514E-01
          2   -1    0    0  501    0  0.00000000000E+00  0.00000000000E+00  0.14561055343E+04  0.14561055343E+04  0.00000000000E+00 0. -1.
         -2   -1    0    0    0  501 -0.00000000000E+00 -0.00000000000E+00 -0.20397664138E+04  0.20397664138E+04  0.00000000000E+00 0.  1.
         23    2    1    2    0    0 -0.95905047698E+03 -0.41935049744E+03 -0.16791263289E+04  0.19807227120E+04  0.90358044745E+02 0.  0.
         13    1    3    3    0    0 -0.66856446587E+03 -0.30413313204E+03 -0.12509052838E+04  0.14505996816E+04  0.00000000000E+00 0. -1.
        -13    1    3    3    0    0 -0.29048601111E+03 -0.11521736539E+03 -0.42822104506E+03  0.53012303042E+03  0.00000000000E+00 0.  1.
         22    1    1    2    0    0  0.95905047698E+03  0.41935049744E+03  0.10954654494E+04  0.15151492362E+04  0.00000000000E+00 0. -1.
<mgrwt>
<rscale>  0 0.34468044E+04</rscale>
<asrwt>0</asrwt>
<pdfrwt beam="1">  1        2 0.22401624E+00 0.34468044E+04</pdfrwt>
<pdfrwt beam="2">  1       -2 0.31381022E+00 0.34468044E+04</pdfrwt>
<totfact> 0.28998853E-01</totfact>
</mgrwt>
</event>
<event>
 6    1  0.1885829E-005  0.2078984E+04  0.7818608E-02  0.8570558E-01
         -2   -1    0    0    0  501 -0.00000000000E+00  0.00000000000E+00  0.81027499813E+03  0.81027499813E+03  0.00000000000E+00 0.  1.
          2   -1    0    0  501    0  0.00000000000E+00 -0.00000000000E+00 -0.13335521399E+04  0.13335521399E+04  0.00000000000E+00 0. -1.
         23    2    1    2    0    0 -0.43788254390E+03 -0.78909626728E+03 -0.79105221775E+03  0.12024889774E+04  0.76171439994E+02 0.  0.
         13    1    3    3    0    0 -0.48143304962E+02 -0.80622300037E+02 -0.53682298946E+02  0.10816433005E+03  0.00000000000E+00 0.  1.
        -13    1    3    3    0    0 -0.38973923894E+03 -0.70847396725E+03 -0.73736991880E+03  0.10943246473E+04  0.00000000000E+00 0. -1.
         22    1    1    2    0    0  0.43788254390E+03  0.78909626728E+03  0.26777507600E+03  0.94133816061E+03  0.00000000000E+00 0.  1.
<mgrwt>
<rscale>  0 0.20789843E+04</rscale>
<asrwt>0</asrwt>
<pdfrwt beam="1">  1        2 0.20516187E+00 0.20789843E+04</pdfrwt>
<pdfrwt beam="2">  1       -2 0.12465769E+00 0.20789843E+04</pdfrwt>
<totfact> 0.70451218E+00</totfact>
</mgrwt>
</event>
<event>
 6    1  0.1885829E-005  0.7474368E+03  0.7818608E-02  0.9639380E-01
          2   -1    0    0  501    0  0.00000000000E+00  0.00000000000E+00  0.11837063329E+04  0.11837063329E+04  0.00000000000E+00 0. -1.
         -2   -1    0    0    0  501 -0.00000000000E+00 -0.00000000000E+00 -0.11798994339E+03  0.11798994339E+03  0.00000000000E+00 0.  1.
         23    2    1    2    0    0  0.15976110455E+03 -0.33133694395E+03  0.62467385155E+03  0.72739121690E+03  0.59772741755E+02 0.  0.
         13    1    3    3    0    0  0.10141167877E+03 -0.26789810074E+03  0.48365610169E+03  0.56211826662E+03  0.00000000000E+00 0. -1.
        -13    1    3    3    0    0  0.58349425782E+02 -0.63438843218E+02  0.14101774986E+03  0.16527295028E+03  0.00000000000E+00 0.  1.
         22    1    1    2    0    0 -0.15976110455E+03  0.33133694395E+03  0.44104253796E+03  0.57430505940E+03  0.00000000000E+00 0.  1.
<mgrwt>
<rscale>  0 0.74743680E+03</rscale>
<asrwt>0</asrwt>
<pdfrwt beam="1">  1        2 0.18210866E+00 0.74743680E+03</pdfrwt>
<pdfrwt beam="2">  1       -2 0.18152300E-01 0.74743680E+03</pdfrwt>
<totfact> 0.49333122E+02</totfact>
</mgrwt>
</event>
<event>
 6    1  0.1885829E-005  0.1952658E+04  0.7818608E-02  0.8629080E-01
          2   -1    0    0  501    0  0.00000000000E+00  0.00000000000E+00  0.11570079230E+04  0.11570079230E+04  0.00000000000E+00 0. -1.
         -2   -1    0    0    0  501 -0.00000000000E+00 -0.00000000000E+00 -0.82386485234E+03  0.82386485234E+03  0.00000000000E+00 0.  1.
         23    2    1    2    0    0  0.52845793883E+02  0.57591283244E+03 -0.62780873987E+03  0.85931285689E+03  0.99027792379E+02 0.  0.
         13    1    3    3    0    0 -0.54513421920E+01  0.27363325391E+03 -0.23874664331E+03  0.36318705163E+03  0.00000000000E+00 0. -1.
        -13    1    3    3    0    0  0.58297136075E+02  0.30227957853E+03 -0.38906209657E+03  0.49612580527E+03  0.00000000000E+00 0.  1.
         22    1    1    2    0    0 -0.52845793883E+02 -0.57591283244E+03  0.96095181055E+03  0.11215599185E+04  0.00000000000E+00 0. -1.
<mgrwt>
<rscale>  0 0.19526578E+04</rscale>
<asrwt>0</asrwt>
<pdfrwt beam="1">  1        2 0.17800122E+00 0.19526578E+04</pdfrwt>
<pdfrwt beam="2">  1       -2 0.12674844E+00 0.19526578E+04</pdfrwt>
<totfact> 0.86825113E+00</totfact>
</mgrwt>
</event>
<event>
 6    1  0.1885829E-005  0.1162794E+04  0.7818608E-02  0.9146061E-01
          1   -1    0    0  501    0  0.00000000000E+00  0.00000000000E+00  0.74101599443E+03  0.74101599443E+03  0.00000000000E+00 0. -1.
         -1   -1    0    0    0  501 -0.00000000000E+00 -0.00000000000E+00 -0.45616102967E+03  0.45616102967E+03  0.00000000000E+00 0.  1.
         23    2    1    2    0    0 -0.28946931654E+03 -0.48344056412E+02  0.65575061121E+03  0.72421485483E+03  0.91370995633E+02 0.  0.
         13    1    3    3    0    0 -0.21257003139E+03 -0.73970791929E+02  0.45212786237E+03  0.50505177976E+03  0.00000000000E+00 0. -1.
        -13    1    3    3    0    0 -0.76899285150E+02  0.25626735517E+02  0.20362274883E+03  0.21916307507E+03  0.00000000000E+00 0.  1.
         22    1    1    2    0    0  0.28946931654E+03  0.48344056412E+02 -0.37089564645E+03  0.47296216927E+03  0.00000000000E+00 0.  1.
<mgrwt>
<rscale>  0 0.11627943E+04</rscale>
<asrwt>0</asrwt>
<pdfrwt beam="1">  1        1 0.11400246E+00 0.11627943E+04</pdfrwt>
<pdfrwt beam="2">  1       -1 0.70178620E-01 0.11627943E+04</pdfrwt>
<totfact> 0.50846672E+01</totfact>
</mgrwt>
</event>
<event>
 6    1  0.1885829E-005  0.2060090E+04  0.7818608E-02  0.8579031E-01
         -2   -1    0    0    0  501 -0.00000000000E+00  0.00000000000E+00  0.36358652190E+03  0.36358652190E+03  0.00000000000E+00 0.  1.
          2   -1    0    0  501    0  0.00000000000E+00 -0.00000000000E+00 -0.29181301750E+04  0.29181301750E+04  0.00000000000E+00 0. -1.
         23    2    1    2    0    0 -0.53032149837E+03  0.80406329202E+03 -0.70753455515E+03  0.11986417397E+04  0.91532531474E+02 0.  0.
         11    1    3    3    0    0 -0.14703897608E+03  0.30204672008E+03 -0.24535267719E+03  0.41599353096E+03  0.00000000000E+00 0.  1.
        -11    1    3    3    0    0 -0.38328252229E+03  0.50201657194E+03 -0.46218187797E+03  0.78264820879E+03  0.00000000000E+00 0. -1.
         22    1    1    2    0    0  0.53032149837E+03 -0.80406329202E+03 -0.18470090979E+04  0.20830749571E+04  0.00000000000E+00 0. -1.
<mgrwt>
<rscale>  0 0.20600901E+04</rscale>
<asrwt>0</asrwt>
<pdfrwt beam="1">  1        2 0.44894310E+00 0.20600901E+04</pdfrwt>
<pdfrwt beam="2">  1       -2 0.55936388E-01 0.20600901E+04</pdfrwt>
<totfact> 0.54424388E+00</totfact>
</mgrwt>
</event>
<event>
 6    1  0.1885829E-005  0.3279532E+04  0.7818608E-02  0.8168123E-01
         -2   -1    0    0    0  501 -0.00000000000E+00  0.00000000000E+00  0.95453672847E+03  0.95453672847E+03  0.00000000000E+00 0.  1.
          2   -1    0    0  501    0  0.00000000000E+00 -0.00000000000E+00 -0.28168985653E+04  0.28168985653E+04  0.00000000000E+00 0. -1.
         23    2    1    2    0    0 -0.94992359314E+02 -0.15772226499E+04 -0.14318113957E+04  0.21337452992E+04  0.78296190472E+02 0.  0.
         11    1    3    3    0    0 -0.22262859061E+02 -0.33375092833E+03 -0.34717682603E+03  0.48209653140E+03  0.00000000000E+00 0.  1.
        -11    1    3    3    0    0 -0.72729500253E+02 -0.12434717216E+04 -0.10846345696E+04  0.16516487678E+04  0.00000000000E+00 0. -1.
         22    1    1    2    0    0  0.94992359314E+02  0.15772226499E+04 -0.43055044116E+03  0.16376899945E+04  0.00000000000E+00 0.  1.
<mgrwt>
<rscale>  0 0.32795324E+04</rscale>
<asrwt>0</asrwt>
<pdfrwt beam="1">  1        2 0.43336901E+00 0.32795324E+04</pdfrwt>
<pdfrwt beam="2">  1       -2 0.14685180E+00 0.32795324E+04</pdfrwt>
<totfact> 0.59848831E-01</totfact>
</mgrwt>
</event>
<event>
 6    1  0.1885829E-005  0.3175390E+04  0.7818608E-02  0.8195347E-01
          2   -1    0    0  501    0  0.00000000000E+00  0.00000000000E+00  0.10649563364E+04  0.10649563364E+04  0.00000000000E+00 0. -1.
         -2   -1    0    0    0  501 -0.00000000000E+00 -0.00000000000E+00 -0.23670221451E+04  0.23670221451E+04  0.00000000000E+00 0.  1.
         23    2    1    2    0    0  0.14171376834E+04 -0.37922048019E+03 -0.13035630225E+04  0.19649782675E+04  0.98871896055E+02 0.  0.
         11    1    3    3    0    0  0.10906156473E+04 -0.28785177834E+03 -0.10562206229E+04  0.15452841618E+04  0.00000000000E+00 0.  1.
        -11    1    3    3    0    0  0.32652203608E+03 -0.91368701852E+02 -0.24734239961E+03  0.41969410571E+03  0.00000000000E+00 0. -1.
         22    1    1    2    0    0 -0.14171376834E+04  0.37922048019E+03  0.14972137965E+01  0.14670002140E+04  0.00000000000E+00 0.  1.
<mgrwt>
<rscale>  0 0.31753899E+04</rscale>
<asrwt>0</asrwt>
<pdfrwt beam="1">  1        2 0.16383944E+00 0.31753899E+04</pdfrwt>
<pdfrwt beam="2">  1       -2 0.36415725E+00 0.31753899E+04</pdfrwt>
<totfact> 0.24442986E-01</totfact>
</mgrwt>
</event>
<event>
 6    1  0.1885829E-005  0.2291181E+04  0.7818608E-02  0.8481407E-01
         -2   -1    0    0    0  501 -0.00000000000E+00  0.00000000000E+00  0.91171906319E+03  0.91171906319E+03  0.00000000000E+00 0.  1.
          2   -1    0    0  501    0  0.00000000000E+00 -0.00000000000E+00 -0.14394533686E+04  0.14394533686E+04  0.00000000000E+00 0. -1.
         23    2    1    2    0    0  0.66205494567E+03 -0.30267473568E+03  0.63921882513E+03  0.97577854073E+03  0.11668036440E+03 0.  0.
         13    1    3    3    0    0  0.25618220058E+03 -0.74366705047E+02  0.28755108120E+03  0.39223124685E+03  0.00000000000E+00 0. -1.
        -13    1    3    3    0    0  0.40587274510E+03 -0.22830803063E+03  0.35166774393E+03  0.58354729387E+03  0.00000000000E+00 0.  1.
         22    1    1    2    0    0 -0.66205494567E+03  0.30267473568E+03 -0.11669531306E+04  0.13753938911E+04  0.00000000000E+00 0. -1.
<mgrwt>
<rscale>  0 0.22911805E+04</rscale>
<asrwt>0</asrwt>
<pdfrwt beam="1">  1        2 0.22145436E+00 0.22911805E+04</pdfrwt>
<pdfrwt beam="2">  1       -2 0.14026447E+00 0.22911805E+04</pdfrwt>
<totfact> 0.44556781E+00</totfact>
</mgrwt>
</event>
<event>
 6    1  0.1885829E-005  0.8473694E+03  0.7818608E-02  0.9493874E-01
          3   -1    0    0  501    0  0.00000000000E+00  0.00000000000E+00  0.18257682987E+03  0.18257682987E+03  0.00000000000E+00 0. -1.
         -3   -1    0    0    0  501 -0.00000000000E+00 -0.00000000000E+00 -0.98319564218E+03  0.98319564218E+03  0.00000000000E+00 0.  1.
         23    2    1    2    0    0  0.17328425914E+03  0.33201393710E+03 -0.66277580408E+03  0.76669681029E+03  0.91057913071E+02 0.  0.
         13    1    3    3    0    0  0.12782989947E+03  0.24252683287E+03 -0.39577190187E+03  0.48145108388E+03  0.00000000000E+00 0.  1.
        -13    1    3    3    0    0  0.45454359668E+02  0.89487104231E+02 -0.26700390221E+03  0.28524572640E+03  0.00000000000E+00 0. -1.
         22    1    1    2    0    0 -0.17328425914E+03 -0.33201393710E+03 -0.13784300823E+03  0.39907566176E+03  0.00000000000E+00 0. -1.
<mgrwt>
<rscale>  0 0.84736944E+03</rscale>
<asrwt>0</asrwt>
<pdfrwt beam="1">  1        3 0.28088743E-01 0.84736944E+03</pdfrwt>
<pdfrwt beam="2">  1       -3 0.15126087E+00 0.84736944E+03</pdfrwt>
<totfact> 0.10210416E+01</totfact>
</mgrwt>
</event>
<event>
 6    1  0.1885829E-005  0.1608980E+04  0.7818608E-02  0.8815050E-01
          2   -1    0    0  501    0  0.00000000000E+00  0.00000000000E+00  0.12714507052E+04  0.12714507052E+04  0.00000000000E+00 0. -1.
         -2   -1    0    0    0  501 -0.00000000000E+00 -0.00000000000E+00 -0.50902824818E+03  0.50902824818E+03  0.00000000000E+00 0.  1.
         23    2    1    2    0    0  0.32308016236E+03  0.14586812232E+03 -0.41334308248E+03  0.55243868355E+03  0.93154145524E+02 0.  0.
         11    1    3    3    0    0  0.92839080480E+02  0.19202079363E+02 -0.60394372776E+02  0.11240682799E+03  0.00000000000E+00 0.  1.
        -11    1    3    3    0    0  0.23024108188E+03  0.12666604296E+03 -0.35294870971E+03  0.44003185556E+03  0.00000000000E+00 0. -1.
         22    1    1    2    0    0 -0.32308016236E+03 -0.14586812232E+03  0.11757655395E+04  0.12280402698E+04  0.00000000000E+00 0. -1.
<mgrwt>
<rscale>  0 0.16089802E+04</rscale>
<asrwt>0</asrwt>
<pdfrwt beam="1">  1        2 0.19560780E+00 0.16089802E+04</pdfrwt>
<pdfrwt beam="2">  1       -2 0.78312038E-01 0.16089802E+04</pdfrwt>
<totfact> 0.23876009E+01</totfact>
</mgrwt>
</event>
<event>
 6    1  0.1885829E-005  0.2262882E+04  0.7818608E-02  0.8492702E-01
         -2   -1    0    0    0  501 -0.00000000000E+00  0.00000000000E+00  0.19359620100E+04  0.19359620100E+04  0.00000000000E+00 0.  1.
          2   -1    0    0  501    0  0.00000000000E+00 -0.00000000000E+00 -0.66125212863E+03  0.66125212863E+03  0.00000000000E+00 0. -1.
         23    2    1    2    0    0 -0.83007927341E+03 -0.74608598607E+03  0.43820649112E+03  0.12024332165E+04  0.90248615584E+02 0.  0.
         13    1    3    3    0    0 -0.79047070855E+03 -0.68066745666E+03  0.40377213710E+03  0.11185633940E+04  0.00000000000E+00 0. -1.
        -13    1    3    3    0    0 -0.39608564858E+02 -0.65418529410E+02  0.34434354020E+02  0.83869822564E+02  0.00000000000E+00 0.  1.
         22    1    1    2    0    0  0.83007927341E+03  0.74608598607E+03  0.83650339024E+03  0.13947809221E+04  0.00000000000E+00 0.  1.
<mgrwt>
<rscale>  0 0.22628822E+04</rscale>
<asrwt>0</asrwt>
<pdfrwt beam="1">  1        2 0.10173110E+00 0.22628822E+04</pdfrwt>
<pdfrwt beam="2">  1       -2 0.29784031E+00 0.22628822E+04</pdfrwt>
<totfact> 0.13119791E+00</totfact>
</mgrwt>
</event>
<event>
 6    1  0.1885829E-005  0.4577113E+04  0.7818608E-02  0.7897274E-01
          2   -1    0    0  501    0  0.00000000000E+00  0.00000000000E+00  0.34617678349E+04  0.34617678349E+04  0.00000000000E+00 0. -1.
         -2   -1    0    0    0  501 -0.00000000000E+00 -0.00000000000E+00 -0.15129525540E+04  0.15129525540E+04  0.00000000000E+00 0.  1.
         23    2    1    2    0    0  0.42151269941E+03  0.13435901996E+04 -0.98490704239E+03  0.17205485665E+04  0.85661584260E+02 0.  0.
         13    1    3    3    0    0  0.32571489430E+03  0.90497215132E+03 -0.67131408307E+03  0.11729140570E+04  0.00000000000E+00 0.  1.
        -13    1    3    3    0    0  0.95797805111E+02  0.43861804833E+03 -0.31359295932E+03  0.54763450943E+03  0.00000000000E+00 0. -1.
         22    1    1    2    0    0 -0.42151269941E+03 -0.13435901996E+04  0.29337223233E+04  0.32541718225E+04  0.00000000000E+00 0. -1.
<mgrwt>
<rscale>  0 0.45771128E+04</rscale>
<asrwt>0</asrwt>
<pdfrwt beam="1">  1        2 0.53257966E+00 0.45771128E+04</pdfrwt>
<pdfrwt beam="2">  1       -2 0.23276193E+00 0.45771128E+04</pdfrwt>
<totfact> 0.53388782E-02</totfact>
</mgrwt>
</event>
<event>
 6    1  0.1885829E-005  0.2428742E+04  0.7818608E-02  0.8428821E-01
         -1   -1    0    0    0  501 -0.00000000000E+00  0.00000000000E+00  0.80316868343E+03  0.80316868343E+03  0.00000000000E+00 0. -1.
          1   -1    0    0  501    0  0.00000000000E+00 -0.00000000000E+00 -0.18360981869E+04  0.18360981869E+04  0.00000000000E+00 0.  1.
         23    2    1    2    0    0 -0.35751731435E+03 -0.52881071994E+03  0.60326818639E+03  0.88296328386E+03  0.90731738381E+02 0.  0.
         11    1    3    3    0    0 -0.60404639842E+02 -0.12610122200E+03  0.17710047725E+03  0.22564312032E+03  0.00000000000E+00 0. -1.
        -11    1    3    3    0    0 -0.29711267451E+03 -0.40270949794E+03  0.42616770914E+03  0.65732016354E+03  0.00000000000E+00 0.  1.
         22    1    1    2    0    0  0.35751731435E+03  0.52881071994E+03 -0.16361976898E+04  0.17563035865E+04  0.00000000000E+00 0.  1.
<mgrwt>
<rscale>  0 0.24287417E+04</rscale>
<asrwt>0</asrwt>
<pdfrwt beam="1">  1        1 0.28247664E+00 0.24287417E+04</pdfrwt>
<pdfrwt beam="2">  1       -1 0.12356441E+00 0.24287417E+04</pdfrwt>
<totfact> 0.19819973E+00</totfact>
</mgrwt>
</event>
<event>
 6    1  0.1885829E-005  0.3314504E+04  0.7818608E-02  0.8159215E-01
          2   -1    0    0  501    0  0.00000000000E+00  0.00000000000E+00  0.33769197662E+04  0.33769197662E+04  0.00000000000E+00 0. -1.
         -2   -1    0    0    0  501 -0.00000000000E+00 -0.00000000000E+00 -0.81331067122E+03  0.81331067122E+03  0.00000000000E+00 0.  1.
         23    2    1    2    0    0  0.11851941485E+04 -0.98143135405E+03  0.50925580258E+03  0.16234698092E+04  0.91760975841E+02 0.  0.
         11    1    3    3    0    0  0.40915921920E+03 -0.39630905305E+03  0.18767488271E+03  0.59974494061E+03  0.00000000000E+00 0. -1.
        -11    1    3    3    0    0  0.77603492930E+03 -0.58512230101E+03  0.32158091987E+03  0.10237248686E+04  0.00000000000E+00 0.  1.
         22    1    1    2    0    0 -0.11851941485E+04  0.98143135405E+03  0.20543532924E+04  0.25667606282E+04  0.00000000000E+00 0. -1.
<mgrwt>
<rscale>  0 0.33145044E+04</rscale>
<asrwt>0</asrwt>
<pdfrwt beam="1">  1        2 0.51952611E+00 0.33145044E+04</pdfrwt>
<pdfrwt beam="2">  1       -2 0.12512472E+00 0.33145044E+04</pdfrwt>
<totfact> 0.39393673E-01</totfact>
</mgrwt>
</event>
<event>
 6    1  0.1885829E-005  0.2618556E+04  0.7818608E-02  0.8361925E-01
          2   -1    0    0  501    0  0.00000000000E+00  0.00000000000E+00  0.24587770158E+04  0.24587770158E+04  0.00000000000E+00 0. -1.
         -2   -1    0    0    0  501 -0.00000000000E+00 -0.00000000000E+00 -0.69717954786E+03  0.69717954786E+03  0.00000000000E+00 0.  1.
         23    2    1    2    0    0 -0.50477675325E+03 -0.71202831157E+03  0.20555894073E+04  0.22349705988E+04  0.88667238241E+02 0.  0.
         11    1    3    3    0    0 -0.35583423662E+02 -0.21159364015E+02  0.78833913468E+02  0.89043161656E+02  0.00000000000E+00 0. -1.
        -11    1    3    3    0    0 -0.46919332959E+03 -0.69086894756E+03  0.19767554938E+04  0.21459274372E+04  0.00000000000E+00 0.  1.
         22    1    1    2    0    0  0.50477675325E+03  0.71202831157E+03 -0.29399193932E+03  0.92098596487E+03  0.00000000000E+00 0.  1.
<mgrwt>
<rscale>  0 0.26185561E+04</rscale>
<asrwt>0</asrwt>
<pdfrwt beam="1">  1        2 0.37827338E+00 0.26185561E+04</pdfrwt>
<pdfrwt beam="2">  1       -2 0.10725839E+00 0.26185561E+04</pdfrwt>
<totfact> 0.22679204E+00</totfact>
</mgrwt>
</event>
<event>
 6    1  0.1885829E-005  0.1287537E+04  0.7818608E-02  0.9039507E-01
         -2   -1    0    0    0  501 -0.00000000000E+00  0.00000000000E+00  0.29928186330E+03  0.29928186330E+03  0.00000000000E+00 0.  1.
          2   -1    0    0  501    0  0.00000000000E+00 -0.00000000000E+00 -0.13847744342E+04  0.13847744342E+04  0.00000000000E+00 0. -1.
         23    2    1    2    0    0  0.46457342892E+03 -0.43710965066E+03 -0.47215350182E+03  0.79913927810E+03  0.93815451564E+02 0.  0.
         13    1    3    3    0    0  0.22190120765E+03 -0.17792481700E+03 -0.26105659402E+03  0.38606726324E+03  0.00000000000E+00 0.  1.
        -13    1    3    3    0    0  0.24267222128E+03 -0.25918483366E+03 -0.21109690780E+03  0.41307201486E+03  0.00000000000E+00 0. -1.
         22    1    1    2    0    0 -0.46457342892E+03  0.43710965066E+03 -0.61333906906E+03  0.88491701939E+03  0.00000000000E+00 0. -1.
<mgrwt>
<rscale>  0 0.12875370E+04</rscale>
<asrwt>0</asrwt>
<pdfrwt beam="1">  1        2 0.21304222E+00 0.12875370E+04</pdfrwt>
<pdfrwt beam="2">  1       -2 0.46043364E-01 0.12875370E+04</pdfrwt>
<totfact> 0.64758142E+01</totfact>
</mgrwt>
</event>
<event>
 6    1  0.1885829E-005  0.1053012E+04  0.7818608E-02  0.9252240E-01
          1   -1    0    0  501    0  0.00000000000E+00  0.00000000000E+00  0.13708944676E+04  0.13708944676E+04  0.00000000000E+00 0. -1.
         -1   -1    0    0    0  501 -0.00000000000E+00 -0.00000000000E+00 -0.20220999991E+03  0.20220999991E+03  0.00000000000E+00 0.  1.
         23    2    1    2    0    0 -0.44362194743E+03  0.23659200038E+03  0.80069492044E+03  0.95005349545E+03  0.93343889521E+02 0.  0.
         11    1    3    3    0    0 -0.12645854164E+03  0.10389621788E+03  0.31513521377E+03  0.35510053478E+03  0.00000000000E+00 0.  1.
        -11    1    3    3    0    0 -0.31716340580E+03  0.13269578250E+03  0.48555970667E+03  0.59495296067E+03  0.00000000000E+00 0. -1.
         22    1    1    2    0    0  0.44362194743E+03 -0.23659200038E+03  0.36798954725E+03  0.62305097205E+03  0.00000000000E+00 0.  1.
<mgrwt>
<rscale>  0 0.10530120E+04</rscale>
<asrwt>0</asrwt>
<pdfrwt beam="1">  1        1 0.21090684E+00 0.10530120E+04</pdfrwt>
<pdfrwt beam="2">  1       -1 0.31109232E-01 0.10530120E+04</pdfrwt>
<totfact> 0.77000656E+01</totfact>
</mgrwt>
</event>
<event>
 6    1  0.1885829E-005  0.4846770E+04  0.7818608E-02  0.7852589E-01
          2   -1    0    0  501    0  0.00000000000E+00  0.00000000000E+00  0.38871127893E+04  0.38871127893E+04  0.00000000000E+00 0. -1.
         -2   -1    0    0    0  501 -0.00000000000E+00 -0.00000000000E+00 -0.15108372052E+04  0.15108372052E+04  0.00000000000E+00 0.  1.
         23    2    1    2    0    0  0.53050027229E+01  0.23633917672E+04  0.59611779174E+03  0.24391308798E+04  0.91401524484E+02 0.  0.
         13    1    3    3    0    0  0.23880919763E+02  0.16297027885E+04  0.44920946567E+03  0.16906479885E+04  0.00000000000E+00 0.  1.
        -13    1    3    3    0    0 -0.18575917040E+02  0.73368897870E+03  0.14690832606E+03  0.74848289121E+03  0.00000000000E+00 0. -1.
         22    1    1    2    0    0 -0.53050027229E+01 -0.23633917672E+04  0.17801577924E+04  0.29588191148E+04  0.00000000000E+00 0.  1.
<mgrwt>
<rscale>  0 0.48467699E+04</rscale>
<asrwt>0</asrwt>
<pdfrwt beam="1">  1        2 0.59801735E+00 0.48467699E+04</pdfrwt>
<pdfrwt beam="2">  1       -2 0.23243649E+00 0.48467699E+04</pdfrwt>
<totfact> 0.25497085E-02</totfact>
</mgrwt>
</event>
<event>
 6    1  0.1885829E-005  0.1259940E+04  0.7818608E-02  0.9061951E-01
         -2   -1    0    0    0  501 -0.00000000000E+00  0.00000000000E+00  0.79023497528E+03  0.79023497528E+03  0.00000000000E+00 0.  1.
          2   -1    0    0  501    0  0.00000000000E+00 -0.00000000000E+00 -0.50220769251E+03  0.50220769251E+03  0.00000000000E+00 0. -1.
         23    2    1    2    0    0  0.13925162465E+03 -0.46856275629E+03 -0.25873500656E+03  0.55903209206E+03  0.81430981760E+02 0.  0.
         11    1    3    3    0    0  0.34250009718E+02 -0.25436419994E+03 -0.14448348464E+03  0.29453299767E+03  0.00000000000E+00 0.  1.
        -11    1    3    3    0    0  0.10500161493E+03 -0.21419855634E+03 -0.11425152192E+03  0.26449909440E+03  0.00000000000E+00 0. -1.
         22    1    1    2    0    0 -0.13925162465E+03  0.46856275629E+03  0.54676228933E+03  0.73341057572E+03  0.00000000000E+00 0.  1.
<mgrwt>
<rscale>  0 0.12599398E+04</rscale>
<asrwt>0</asrwt>
<pdfrwt beam="1">  1        2 0.77262722E-01 0.12599398E+04</pdfrwt>
<pdfrwt beam="2">  1       -2 0.12157461E+00 0.12599398E+04</pdfrwt>
<totfact> 0.30941139E+01</totfact>
</mgrwt>
</event>
<event>
 6    1  0.1885829E-005  0.9219183E+03  0.7818608E-02  0.9398590E-01
         -2   -1    0    0    0  501 -0.00000000000E+00  0.00000000000E+00  0.51627495858E+02  0.51627495858E+02  0.00000000000E+00 0.  1.
          2   -1    0    0  501    0  0.00000000000E+00 -0.00000000000E+00 -0.41157006311E+04  0.41157006311E+04  0.00000000000E+00 0. -1.
         23    2    1    2    0    0  0.36356497762E+02 -0.13508080012E+03 -0.40156632834E+04  0.40193006591E+04  0.98272910789E+02 0.  0.
         11    1    3    3    0    0 -0.33652738762E+02 -0.39060336180E+02 -0.10701107233E+04  0.10713520322E+04  0.00000000000E+00 0.  1.
        -11    1    3    3    0    0  0.70009236524E+02 -0.96020463935E+02 -0.29455525601E+04  0.29479486269E+04  0.00000000000E+00 0. -1.
         22    1    1    2    0    0 -0.36356497762E+02  0.13508080012E+03 -0.48409851842E+02  0.14802746787E+03  0.00000000000E+00 0.  1.
<mgrwt>
<rscale>  0 0.92191826E+03</rscale>
<asrwt>0</asrwt>
<pdfrwt beam="1">  1        2 0.63318485E+00 0.92191826E+03</pdfrwt>
<pdfrwt beam="2">  1       -2 0.79426900E-02 0.92191826E+03</pdfrwt>
<totfact> 0.29450191E+01</totfact>
</mgrwt>
</event>
<event>
 6    1  0.1885829E-005  0.3965884E+04  0.7818608E-02  0.8011464E-01
         -1   -1    0    0    0  501 -0.00000000000E+00  0.00000000000E+00  0.27387817424E+04  0.27387817424E+04  0.00000000000E+00 0.  1.
          1   -1    0    0  501    0  0.00000000000E+00 -0.00000000000E+00 -0.14356961306E+04  0.14356961306E+04  0.00000000000E+00 0. -1.
         23    2    1    2    0    0 -0.13861983180E+03 -0.11852825250E+04 -0.10136848441E+04  0.15684204165E+04  0.90969873751E+02 0.  0.
         11    1    3    3    0    0  0.17544445639E+00 -0.51650236582E+02 -0.69391046086E+02  0.86503728223E+02  0.00000000000E+00 0. -1.
        -11    1    3    3    0    0 -0.13879527626E+03 -0.11336322884E+04 -0.94429379800E+03  0.14819166883E+04  0.00000000000E+00 0.  1.
         22    1    1    2    0    0  0.13861983180E+03  0.11852825250E+04  0.23167704558E+04  0.26060574566E+04  0.00000000000E+00 0.  1.
<mgrwt>
<rscale>  0 0.39658837E+04</rscale>
<asrwt>0</asrwt>
<pdfrwt beam="1">  1        1 0.22087633E+00 0.39658837E+04</pdfrwt>
<pdfrwt beam="2">  1       -1 0.42135104E+00 0.39658837E+04</pdfrwt>
<totfact> 0.29028775E-02</totfact>
</mgrwt>
</event>
<event>
 6    1  0.1885829E-005  0.3520298E+04  0.7818608E-02  0.8108996E-01
          2   -1    0    0  501    0  0.00000000000E+00  0.00000000000E+00  0.29309963709E+04  0.29309963709E+04  0.00000000000E+00 0. -1.
         -2   -1    0    0    0  501 -0.00000000000E+00 -0.00000000000E+00 -0.10570208673E+04  0.10570208673E+04  0.00000000000E+00 0.  1.
         23    2    1    2    0    0 -0.82499194980E+03 -0.15072707642E+04  0.13627539467E+04  0.21953029961E+04  0.98894142811E+02 0.  0.
         13    1    3    3    0    0 -0.31672121306E+03 -0.49031988818E+03  0.43715721793E+03  0.72926836812E+03  0.00000000000E+00 0. -1.
        -13    1    3    3    0    0 -0.50827073674E+03 -0.10169508760E+04  0.92559672881E+03  0.14660346280E+04  0.00000000000E+00 0.  1.
         22    1    1    2    0    0  0.82499194980E+03  0.15072707642E+04  0.51122155685E+03  0.17927142421E+04  0.00000000000E+00 0.  1.
<mgrwt>
<rscale>  0 0.35202979E+04</rscale>
<asrwt>0</asrwt>
<pdfrwt beam="1">  1        2 0.45092252E+00 0.35202979E+04</pdfrwt>
<pdfrwt beam="2">  1       -2 0.16261860E+00 0.35202979E+04</pdfrwt>
<totfact> 0.37977549E-01</totfact>
</mgrwt>
</event>
<event>
 6    1  0.1885829E-005  0.1351805E+04  0.7818608E-02  0.8989463E-01
         -2   -1    0    0    0  501 -0.00000000000E+00  0.00000000000E+00  0.14664092837E+03  0.14664092837E+03  0.00000000000E+00 0.  1.
          2   -1    0    0  501    0  0.00000000000E+00 -0.00000000000E+00 -0.31153928779E+04  0.31153928779E+04  0.00000000000E+00 0. -1.
         23    2    1    2    0    0  0.26560737061E+03  0.54622864600E+03 -0.79221961181E+03  0.10023422286E+04  0.90360505107E+02 0.  0.
         13    1    3    3    0    0  0.18565009221E+03  0.29460063892E+03 -0.41203215770E+03  0.53946824946E+03  0.00000000000E+00 0.  1.
        -13    1    3    3    0    0  0.79957278396E+02  0.25162800708E+03 -0.38018745411E+03  0.46287397916E+03  0.00000000000E+00 0. -1.
         22    1    1    2    0    0 -0.26560737061E+03 -0.54622864600E+03 -0.21765323377E+04  0.22596915776E+04  0.00000000000E+00 0. -1.
<mgrwt>
<rscale>  0 0.13518049E+04</rscale>
<asrwt>0</asrwt>
<pdfrwt beam="1">  1        2 0.47929118E+00 0.13518049E+04</pdfrwt>
<pdfrwt beam="2">  1       -2 0.22560144E-01 0.13518049E+04</pdfrwt>
<totfact> 0.25099773E+01</totfact>
</mgrwt>
</event>
<event>
 6    1  0.1885829E-005  0.2510654E+04  0.7818608E-02  0.8399200E-01
         -2   -1    0    0    0  501 -0.00000000000E+00  0.00000000000E+00  0.11056208503E+04  0.11056208503E+04  0.00000000000E+00 0.  1.
          2   -1    0    0  501    0  0.00000000000E+00 -0.00000000000E+00 -0.14253039636E+04  0.14253039636E+04  0.00000000000E+00 0. -1.
         23    2    1    2    0    0  0.16964755552E+03  0.60728196661E+03  0.93226008882E+03  0.11291639707E+04  0.91272774530E+02 0.  0.
         13    1    3    3    0    0  0.58245768673E+02  0.36410377126E+03  0.51064164499E+03  0.62985634506E+03  0.00000000000E+00 0. -1.
        -13    1    3    3    0    0  0.11140178685E+03  0.24317819535E+03  0.42161844383E+03  0.49930762560E+03  0.00000000000E+00 0.  1.
         22    1    1    2    0    0 -0.16964755552E+03 -0.60728196661E+03 -0.12519432022E+04  0.14017608432E+04  0.00000000000E+00 0. -1.
<mgrwt>
<rscale>  0 0.25106539E+04</rscale>
<asrwt>0</asrwt>
<pdfrwt beam="1">  1        2 0.21927753E+00 0.25106539E+04</pdfrwt>
<pdfrwt beam="2">  1       -2 0.17009552E+00 0.25106539E+04</pdfrwt>
<totfact> 0.26544231E+00</totfact>
</mgrwt>
</event>
<event>
 6    1  0.1885829E-005  0.1197473E+04  0.7818608E-02  0.9115071E-01
         -1   -1    0    0    0  501 -0.00000000000E+00  0.00000000000E+00  0.58126788359E+03  0.58126788359E+03  0.00000000000E+00 0.  1.
          1   -1    0    0  501    0  0.00000000000E+00 -0.00000000000E+00 -0.61673016642E+03  0.61673016642E+03  0.00000000000E+00 0. -1.
         23    2    1    2    0    0  0.58574752240E+03  0.81675962732E+02 -0.93400033575E+02  0.60375238882E+03  0.77603207698E+02 0.  0.
         13    1    3    3    0    0  0.21079798965E+03  0.25442956969E+02  0.37489359348E+01  0.21236099223E+03  0.00000000000E+00 0. -1.
        -13    1    3    3    0    0  0.37494953274E+03  0.56233005763E+02 -0.97148969510E+02  0.39139139658E+03  0.00000000000E+00 0.  1.
         22    1    1    2    0    0 -0.58574752240E+03 -0.81675962732E+02  0.57937750742E+02  0.59424566119E+03  0.00000000000E+00 0. -1.
<mgrwt>
<rscale>  0 0.11974731E+04</rscale>
<asrwt>0</asrwt>
<pdfrwt beam="1">  1        1 0.94881565E-01 0.11974731E+04</pdfrwt>
<pdfrwt beam="2">  1       -1 0.89425828E-01 0.11974731E+04</pdfrwt>
<totfact> 0.39929135E+01</totfact>
</mgrwt>
</event>
<event>
 6    1  0.1885829E-005  0.2433156E+04  0.7818608E-02  0.8427194E-01
         -2   -1    0    0    0  501 -0.00000000000E+00  0.00000000000E+00  0.46441608589E+03  0.46441608589E+03  0.00000000000E+00 0.  1.
          2   -1    0    0  501    0  0.00000000000E+00 -0.00000000000E+00 -0.31869305431E+04  0.31869305431E+04  0.00000000000E+00 0. -1.
         23    2    1    2    0    0 -0.13176190554E+03 -0.65629702389E+03  0.15845837993E+03  0.69362935521E+03  0.89026068700E+02 0.  0.
         13    1    3    3    0    0 -0.72859747816E+02 -0.42156354304E+03  0.58527398531E+02  0.43179835578E+03  0.00000000000E+00 0.  1.
        -13    1    3    3    0    0 -0.58902157728E+02 -0.23473348085E+03  0.99930981398E+02  0.26183099943E+03  0.00000000000E+00 0. -1.
         22    1    1    2    0    0  0.13176190554E+03  0.65629702389E+03 -0.28809728371E+04  0.29577172738E+04  0.00000000000E+00 0. -1.
<mgrwt>
<rscale>  0 0.24331558E+04</rscale>
<asrwt>0</asrwt>
<pdfrwt beam="1">  1        2 0.49029700E+00 0.24331558E+04</pdfrwt>
<pdfrwt beam="2">  1       -2 0.71448629E-01 0.24331558E+04</pdfrwt>
<totfact> 0.21094621E+00</totfact>
</mgrwt>
</event>
<event>
 6    1  0.1885829E-005  0.2289004E+04  0.7818608E-02  0.8482269E-01
         -2   -1    0    0    0  501 -0.00000000000E+00  0.00000000000E+00  0.59485300489E+03  0.59485300489E+03  0.00000000000E+00 0.  1.
          2   -1    0    0  501    0  0.00000000000E+00 -0.00000000000E+00 -0.22020305967E+04  0.22020305967E+04  0.00000000000E+00 0. -1.
         23    2    1    2    0    0 -0.39971788662E+03  0.91979715183E+03 -0.14741240386E+04  0.17851996403E+04  0.89971580214E+02 0.  0.
         13    1    3    3    0    0 -0.95058554015E+02  0.13551857095E+03 -0.24613012107E+03  0.29661666889E+03  0.00000000000E+00 0. -1.
        -13    1    3    3    0    0 -0.30465933261E+03  0.78427858088E+03 -0.12279939176E+04  0.14885829715E+04  0.00000000000E+00 0.  1.
         22    1    1    2    0    0  0.39971788662E+03 -0.91979715183E+03 -0.13305355316E+03  0.10116839612E+04  0.00000000000E+00 0.  1.
<mgrwt>
<rscale>  0 0.22890037E+04</rscale>
<asrwt>0</asrwt>
<pdfrwt beam="1">  1        2 0.33877393E+00 0.22890037E+04</pdfrwt>
<pdfrwt beam="2">  1       -2 0.91515848E-01 0.22890037E+04</pdfrwt>
<totfact> 0.47510863E+00</totfact>
</mgrwt>
</event>
<event>
 6    1  0.1885829E-005  0.7546934E+04  0.7818608E-02  0.7523517E-01
         -2   -1    0    0    0  501 -0.00000000000E+00  0.00000000000E+00  0.46626848276E+04  0.46626848276E+04  0.00000000000E+00 0.  1.
          2   -1    0    0  501    0  0.00000000000E+00 -0.00000000000E+00 -0.30538313887E+04  0.30538313887E+04  0.00000000000E+00 0. -1.
         23    2    1    2    0    0 -0.29718974423E+04 -0.26294090016E+03 -0.15567555355E+04  0.33665285723E+04  0.93351521827E+02 0.  0.
         11    1    3    3    0    0 -0.32275434845E+03 -0.52989637732E+02 -0.15268796631E+03  0.36095967393E+03  0.00000000000E+00 0. -1.
        -11    1    3    3    0    0 -0.26491430938E+04 -0.20995126243E+03 -0.14040675692E+04  0.30055688984E+04  0.00000000000E+00 0.  1.
         22    1    1    2    0    0  0.29718974423E+04  0.26294090016E+03  0.31656089744E+04  0.43499876440E+04  0.00000000000E+00 0.  1.
<mgrwt>
<rscale>  0 0.75469340E+04</rscale>
<asrwt>0</asrwt>
<pdfrwt beam="1">  1        2 0.46982021E+00 0.75469340E+04</pdfrwt>
<pdfrwt beam="2">  1       -2 0.71733613E+00 0.75469340E+04</pdfrwt>
<totfact> 0.19422460E-04</totfact>
</mgrwt>
</event>
<event>
 6    1  0.1885829E-005  0.5046159E+04  0.7818608E-02  0.7821426E-01
          1   -1    0    0  501    0  0.00000000000E+00  0.00000000000E+00  0.34333599427E+04  0.34333599427E+04  0.00000000000E+00 0. -1.
         -1   -1    0    0    0  501 -0.00000000000E+00 -0.00000000000E+00 -0.18541403382E+04  0.18541403382E+04  0.00000000000E+00 0.  1.
         23    2    1    2    0    0  0.78254027526E+03 -0.16951244377E+04  0.25667171039E+04  0.31754000340E+04  0.96501514565E+02 0.  0.
         13    1    3    3    0    0  0.15521206845E+03 -0.43262304081E+03  0.64750536329E+03  0.79405080261E+03  0.00000000000E+00 0. -1.
        -13    1    3    3    0    0  0.62732820681E+03 -0.12625013969E+04  0.19192117407E+04  0.23813492314E+04  0.00000000000E+00 0.  1.
         22    1    1    2    0    0 -0.78254027526E+03  0.16951244377E+04 -0.98749749938E+03  0.21121002469E+04  0.00000000000E+00 0.  1.
<mgrwt>
<rscale>  0 0.50461594E+04</rscale>
<asrwt>0</asrwt>
<pdfrwt beam="1">  1        1 0.52820922E+00 0.50461594E+04</pdfrwt>
<pdfrwt beam="2">  1       -1 0.28525236E+00 0.50461594E+04</pdfrwt>
<totfact> 0.83361724E-03</totfact>
</mgrwt>
</event>
<event>
 6    1  0.1885829E-005  0.1582869E+04  0.7818608E-02  0.8831142E-01
          2   -1    0    0  501    0  0.00000000000E+00  0.00000000000E+00  0.14087410170E+04  0.14087410170E+04  0.00000000000E+00 0. -1.
         -2   -1    0    0    0  501 -0.00000000000E+00 -0.00000000000E+00 -0.44462977581E+03  0.44462977581E+03  0.00000000000E+00 0.  1.
         23    2    1    2    0    0  0.50026638615E+03 -0.75977391526E+02 -0.22428260117E+03  0.56173657767E+03  0.95949342738E+02 0.  0.
         13    1    3    3    0    0  0.15673583443E+03 -0.69133205198E+02 -0.80242856301E+02  0.18916775054E+03  0.00000000000E+00 0. -1.
        -13    1    3    3    0    0  0.34353055172E+03 -0.68441863280E+01 -0.14403974487E+03  0.37256882714E+03  0.00000000000E+00 0.  1.
         22    1    1    2    0    0 -0.50026638615E+03  0.75977391526E+02  0.11883938423E+04  0.12916342151E+04  0.00000000000E+00 0. -1.
<mgrwt>
<rscale>  0 0.15828685E+04</rscale>
<asrwt>0</asrwt>
<pdfrwt beam="1">  1        2 0.21672938E+00 0.15828685E+04</pdfrwt>
<pdfrwt beam="2">  1       -2 0.68404582E-01 0.15828685E+04</pdfrwt>
<totfact> 0.26848413E+01</totfact>
</mgrwt>
</event>
<event>
 6    1  0.1885829E-005  0.3373919E+04  0.7818608E-02  0.8144337E-01
         -2   -1    0    0    0  501 -0.00000000000E+00  0.00000000000E+00  0.10284675869E+04  0.10284675869E+04  0.00000000000E+00 0. -1.
          2   -1    0    0  501    0  0.00000000000E+00 -0.00000000000E+00 -0.27670610316E+04  0.27670610316E+04  0.00000000000E+00 0.  1.
         23    2    1    2    0    0  0.13078881804E+04  0.69507270263E+03 -0.17755182560E+04  0.23139547945E+04  0.90687148256E+02 0.  0.
         11    1    3    3    0    0  0.46373883213E+03  0.28178209432E+03 -0.69799778930E+03  0.88411298315E+03  0.00000000000E+00 0. -1.
        -11    1    3    3    0    0  0.84414934829E+03  0.41329060831E+03 -0.10775204667E+04  0.14298418113E+04  0.00000000000E+00 0.  1.
         22    1    1    2    0    0 -0.13078881804E+04 -0.69507270263E+03  0.36924811316E+02  0.14815738241E+04  0.00000000000E+00 0. -1.
<mgrwt>
<rscale>  0 0.33739191E+04</rscale>
<asrwt>0</asrwt>
<pdfrwt beam="1">  1        2 0.42570170E+00 0.33739191E+04</pdfrwt>
<pdfrwt beam="2">  1       -2 0.15822578E+00 0.33739191E+04</pdfrwt>
<totfact> 0.52161377E-01</totfact>
</mgrwt>
</event>
<event>
 6    1  0.1885829E-005  0.1753441E+04  0.7818608E-02  0.8731458E-01
          2   -1    0    0  501    0  0.00000000000E+00  0.00000000000E+00  0.11594225143E+04  0.11594225143E+04  0.00000000000E+00 0.  1.
         -2   -1    0    0    0  501 -0.00000000000E+00 -0.00000000000E+00 -0.66294984073E+03  0.66294984073E+03  0.00000000000E+00 0. -1.
         23    2    1    2    0    0 -0.85068649806E+03  0.10844278637E+03  0.42610388970E+03  0.96191949653E+03  0.91089171080E+02 0.  0.
         13    1    3    3    0    0 -0.33519524437E+03  0.73730516182E+02  0.20637155425E+03  0.40047629052E+03  0.00000000000E+00 0. -1.
        -13    1    3    3    0    0 -0.51549125369E+03  0.34712270184E+02  0.21973233545E+03  0.56144320601E+03  0.00000000000E+00 0.  1.
         22    1    1    2    0    0  0.85068649806E+03 -0.10844278637E+03  0.70368783821E+02  0.86045285846E+03  0.00000000000E+00 0. -1.
<mgrwt>
<rscale>  0 0.17534412E+04</rscale>
<asrwt>0</asrwt>
<pdfrwt beam="1">  1        2 0.17837269E+00 0.17534412E+04</pdfrwt>
<pdfrwt beam="2">  1       -2 0.10199228E+00 0.17534412E+04</pdfrwt>
<totfact> 0.14965437E+01</totfact>
</mgrwt>
</event>
<event>
 6    1  0.1885829E-005  0.1687952E+04  0.7818608E-02  0.8768266E-01
          2   -1    0    0  501    0  0.00000000000E+00  0.00000000000E+00  0.14116837533E+04  0.14116837533E+04  0.00000000000E+00 0. -1.
         -2   -1    0    0    0  501 -0.00000000000E+00 -0.00000000000E+00 -0.50457170870E+03  0.50457170870E+03  0.00000000000E+00 0.  1.
         23    2    1    2    0    0  0.68494916627E+03 -0.69376598064E+02  0.10036303154E+04  0.12210689768E+04  0.98828959817E+02 0.  0.
         11    1    3    3    0    0  0.39118074754E+03 -0.85994349531E+02  0.55037395560E+03  0.68068266938E+03  0.00000000000E+00 0. -1.
        -11    1    3    3    0    0  0.29376841873E+03  0.16617751467E+02  0.45325635979E+03  0.54038630737E+03  0.00000000000E+00 0.  1.
         22    1    1    2    0    0 -0.68494916627E+03  0.69376598064E+02 -0.96518270756E+02  0.69518648528E+03  0.00000000000E+00 0.  1.
<mgrwt>
<rscale>  0 0.16879522E+04</rscale>
<asrwt>0</asrwt>
<pdfrwt beam="1">  1        2 0.21718211E+00 0.16879522E+04</pdfrwt>
<pdfrwt beam="2">  1       -2 0.77626417E-01 0.16879522E+04</pdfrwt>
<totfact> 0.20072134E+01</totfact>
</mgrwt>
</event>
<event>
 6    1  0.1885829E-005  0.7154306E+03  0.7818608E-02  0.9691202E-01
         -2   -1    0    0    0  501 -0.00000000000E+00  0.00000000000E+00  0.19645939200E+03  0.19645939200E+03  0.00000000000E+00 0.  1.
          2   -1    0    0  501    0  0.00000000000E+00 -0.00000000000E+00 -0.65133171869E+03  0.65133171869E+03  0.00000000000E+00 0. -1.
         23    2    1    2    0    0 -0.32988410460E+03  0.31950795397E+02 -0.37142095704E+03  0.50601851541E+03  0.90867127220E+02 0.  0.
         11    1    3    3    0    0 -0.16721206014E+03  0.60393118976E+02 -0.17600580215E+03  0.25017043044E+03  0.00000000000E+00 0. -1.
        -11    1    3    3    0    0 -0.16267204446E+03 -0.28442323579E+02 -0.19541515489E+03  0.25584808496E+03  0.00000000000E+00 0.  1.
         22    1    1    2    0    0  0.32988410460E+03 -0.31950795397E+02 -0.83451369647E+02  0.34177259529E+03  0.00000000000E+00 0.  1.
<mgrwt>
<rscale>  0 0.71543059E+03</rscale>
<asrwt>0</asrwt>
<pdfrwt beam="1">  1        2 0.10020488E+00 0.71543059E+03</pdfrwt>
<pdfrwt beam="2">  1       -2 0.30224522E-01 0.71543059E+03</pdfrwt>
<totfact> 0.45621285E+02</totfact>
</mgrwt>
</event>
<event>
 6    1  0.1885829E-005  0.3532704E+04  0.7818608E-02  0.8106083E-01
          1   -1    0    0  501    0  0.00000000000E+00  0.00000000000E+00  0.18994717686E+04  0.18994717686E+04  0.00000000000E+00 0. -1.
         -1   -1    0    0    0  501 -0.00000000000E+00 -0.00000000000E+00 -0.16425611845E+04  0.16425611845E+04  0.00000000000E+00 0.  1.
         23    2    1    2    0    0 -0.62117014575E+03 -0.76912314185E+03  0.15947046848E+04  0.18785739626E+04  0.92489697848E+02 0.  0.
         13    1    3    3    0    0 -0.58522891396E+03 -0.74792419584E+03  0.15040606057E+04  0.17787866061E+04  0.00000000000E+00 0. -1.
        -13    1    3    3    0    0 -0.35941231786E+02 -0.21198946014E+02  0.90644079059E+02  0.99787356528E+02  0.00000000000E+00 0.  1.
         22    1    1    2    0    0  0.62117014575E+03  0.76912314185E+03 -0.13377941007E+04  0.16634589905E+04  0.00000000000E+00 0.  1.
<mgrwt>
<rscale>  0 0.35327036E+04</rscale>
<asrwt>0</asrwt>
<pdfrwt beam="1">  1        1 0.29222643E+00 0.35327036E+04</pdfrwt>
<pdfrwt beam="2">  1       -1 0.25270172E+00 0.35327036E+04</pdfrwt>
<totfact> 0.18993138E-01</totfact>
</mgrwt>
</event>
<event>
 6    1  0.1885829E-005  0.3259631E+04  0.7818608E-02  0.8173244E-01
         -2   -1    0    0    0  501 -0.00000000000E+00  0.00000000000E+00  0.17799328271E+04  0.17799328271E+04  0.00000000000E+00 0.  1.
          2   -1    0    0  501    0  0.00000000000E+00 -0.00000000000E+00 -0.14923586110E+04  0.14923586110E+04  0.00000000000E+00 0. -1.
         23    2    1    2    0    0  0.64754035583E+03  0.14278075741E+03 -0.13492856367E+04  0.15062209314E+04  0.91841753879E+02 0.  0.
         13    1    3    3    0    0  0.32885923154E+03  0.33929114853E+02 -0.72751597202E+03  0.79911142436E+03  0.00000000000E+00 0. -1.
        -13    1    3    3    0    0  0.31868112429E+03  0.10885164255E+03 -0.62176966464E+03  0.70710950703E+03  0.00000000000E+00 0.  1.
         22    1    1    2    0    0 -0.64754035583E+03 -0.14278075741E+03  0.16368598528E+04  0.17660705067E+04  0.00000000000E+00 0.  1.
<mgrwt>
<rscale>  0 0.32596307E+04</rscale>
<asrwt>0</asrwt>
<pdfrwt beam="1">  1        2 0.22959363E+00 0.32596307E+04</pdfrwt>
<pdfrwt beam="2">  1       -2 0.27383582E+00 0.32596307E+04</pdfrwt>
<totfact> 0.49334009E-01</totfact>
</mgrwt>
</event>
<event>
 6    1  0.1885829E-005  0.3682616E+04  0.7818608E-02  0.8071825E-01
         -1   -1    0    0    0  501 -0.00000000000E+00  0.00000000000E+00  0.27263506989E+04  0.27263506989E+04  0.00000000000E+00 0.  1.
          1   -1    0    0  501    0  0.00000000000E+00 -0.00000000000E+00 -0.12435728962E+04  0.12435728962E+04  0.00000000000E+00 0. -1.
         23    2    1    2    0    0 -0.31146823955E+02 -0.17359286792E+04  0.13987828392E+04  0.22316849297E+04  0.96982937515E+02 0.  0.
         11    1    3    3    0    0 -0.59061967135E+02 -0.83146738051E+03  0.64506058116E+03  0.10540063919E+04  0.00000000000E+00 0.  1.
        -11    1    3    3    0    0  0.27915143180E+02 -0.90446129873E+03  0.75372225803E+03  0.11776785378E+04  0.00000000000E+00 0. -1.
         22    1    1    2    0    0  0.31146823955E+02  0.17359286792E+04  0.83994963568E+02  0.17382386654E+04  0.00000000000E+00 0. -1.
<mgrwt>
<rscale>  0 0.36826164E+04</rscale>
<asrwt>0</asrwt>
<pdfrwt beam="1">  1        1 0.19131891E+00 0.36826164E+04</pdfrwt>
<pdfrwt beam="2">  1       -1 0.41943857E+00 0.36826164E+04</pdfrwt>
<totfact> 0.41947604E-02</totfact>
</mgrwt>
</event>
<event>
 6    1  0.1885829E-005  0.1946003E+04  0.7818608E-02  0.8632291E-01
         -2   -1    0    0    0  501 -0.00000000000E+00  0.00000000000E+00  0.59606503611E+03  0.59606503611E+03  0.00000000000E+00 0.  1.
          2   -1    0    0  501    0  0.00000000000E+00 -0.00000000000E+00 -0.15883026122E+04  0.15883026122E+04  0.00000000000E+00 0. -1.
         23    2    1    2    0    0  0.73380272084E+03  0.90274670699E+02  0.20921075771E+03  0.77366071628E+03  0.90364890803E+02 0.  0.
         11    1    3    3    0    0  0.45776966904E+03  0.87360705947E+02  0.16334162481E+03  0.49382734760E+03  0.00000000000E+00 0. -1.
        -11    1    3    3    0    0  0.27603305180E+03  0.29139647518E+01  0.45869132903E+02  0.27983336868E+03  0.00000000000E+00 0.  1.
         22    1    1    2    0    0 -0.73380272084E+03 -0.90274670699E+02 -0.12014483338E+04  0.14107069320E+04  0.00000000000E+00 0. -1.
<mgrwt>
<rscale>  0 0.19460027E+04</rscale>
<asrwt>0</asrwt>
<pdfrwt beam="1">  1        2 0.24435425E+00 0.19460027E+04</pdfrwt>
<pdfrwt beam="2">  1       -2 0.91702313E-01 0.19460027E+04</pdfrwt>
<totfact> 0.10690868E+01</totfact>
</mgrwt>
</event>
<event>
 6    1  0.1885829E-005  0.2387645E+04  0.7818608E-02  0.8444144E-01
          2   -1    0    0  501    0  0.00000000000E+00  0.00000000000E+00  0.26683382409E+04  0.26683382409E+04  0.00000000000E+00 0. -1.
         -2   -1    0    0    0  501 -0.00000000000E+00 -0.00000000000E+00 -0.53411954513E+03  0.53411954513E+03  0.00000000000E+00 0.  1.
         23    2    1    2    0    0  0.67211518435E+03  0.20716268290E+03 -0.22245854327E+03  0.74307111304E+03  0.89507973572E+02 0.  0.
         13    1    3    3    0    0  0.37772533267E+03  0.10094144429E+03 -0.16734655165E+03  0.42528869073E+03  0.00000000000E+00 0. -1.
        -13    1    3    3    0    0  0.29438985169E+03  0.10622123861E+03 -0.55111991622E+02  0.31778242231E+03  0.00000000000E+00 0.  1.
         22    1    1    2    0    0 -0.67211518435E+03 -0.20716268290E+03  0.23566772390E+04  0.24593866730E+04  0.00000000000E+00 0. -1.
<mgrwt>
<rscale>  0 0.23876445E+04</rscale>
<asrwt>0</asrwt>
<pdfrwt beam="1">  1        2 0.41051357E+00 0.23876445E+04</pdfrwt>
<pdfrwt beam="2">  1       -2 0.82172239E-01 0.23876445E+04</pdfrwt>
<totfact> 0.32480989E+00</totfact>
</mgrwt>
</event>
<event>
 6    1  0.2444394E-005  0.4497396E+04  0.7818608E-02  0.7911093E-01
         -2   -1    0    0    0  501 -0.00000000000E+00  0.00000000000E+00  0.22459140189E+04  0.22459140189E+04  0.00000000000E+00 0.  1.
          2   -1    0    0  501    0  0.00000000000E+00 -0.00000000000E+00 -0.22514856709E+04  0.22514856709E+04  0.00000000000E+00 0. -1.
         23    2    1    2    0    0  0.14400928952E+04 -0.69280266464E+03 -0.15834968760E+04  0.22515833367E+04  0.91225471602E+02 0.  0.
         13    1    3    3    0    0  0.92341915407E+03 -0.44553477657E+03 -0.10767229377E+04  0.14867872934E+04  0.00000000000E+00 0. -1.
        -13    1    3    3    0    0  0.51667374117E+03 -0.24726788807E+03 -0.50677393830E+03  0.76479604328E+03  0.00000000000E+00 0.  1.
         22    1    1    2    0    0 -0.14400928952E+04  0.69280266464E+03  0.15779252240E+04  0.22458163530E+04  0.00000000000E+00 0.  1.
<mgrwt>
<rscale>  0 0.44973962E+04</rscale>
<asrwt>0</asrwt>
<pdfrwt beam="1">  1        2 0.34638241E+00 0.44973962E+04</pdfrwt>
<pdfrwt beam="2">  1       -2 0.34552524E+00 0.44973962E+04</pdfrwt>
<totfact> 0.60764954E-02</totfact>
</mgrwt>
</event>
<event>
 6    1  0.1885829E-005  0.2816211E+04  0.7818608E-02  0.8298253E-01
         -2   -1    0    0    0  501 -0.00000000000E+00  0.00000000000E+00  0.19449907298E+04  0.19449907298E+04  0.00000000000E+00 0.  1.
          2   -1    0    0  501    0  0.00000000000E+00 -0.00000000000E+00 -0.10194190459E+04  0.10194190459E+04  0.00000000000E+00 0. -1.
         23    2    1    2    0    0 -0.60276667181E+03  0.12654716205E+04  0.34151231936E+03  0.14459001694E+04  0.96179792895E+02 0.  0.
         11    1    3    3    0    0 -0.32055541953E+03  0.68557046468E+03  0.23334038403E+03  0.79196614439E+03  0.00000000000E+00 0. -1.
        -11    1    3    3    0    0 -0.28221125228E+03  0.57990115586E+03  0.10817193533E+03  0.65393402502E+03  0.00000000000E+00 0.  1.
         22    1    1    2    0    0  0.60276667181E+03 -0.12654716205E+04  0.58405936457E+03  0.15185096063E+04  0.00000000000E+00 0.  1.
<mgrwt>
<rscale>  0 0.28162106E+04</rscale>
<asrwt>0</asrwt>
<pdfrwt beam="1">  1        2 0.15683370E+00 0.28162106E+04</pdfrwt>
<pdfrwt beam="2">  1       -2 0.29922934E+00 0.28162106E+04</pdfrwt>
<totfact> 0.68342713E-01</totfact>
</mgrwt>
</event>
<event>
 6    1  0.1885829E-005  0.2880156E+04  0.7818608E-02  0.8278806E-01
         -1   -1    0    0    0  501 -0.00000000000E+00  0.00000000000E+00  0.49299453154E+03  0.49299453154E+03  0.00000000000E+00 0.  1.
          1   -1    0    0  501    0  0.00000000000E+00 -0.00000000000E+00 -0.42065877775E+04  0.42065877775E+04  0.00000000000E+00 0. -1.
         23    2    1    2    0    0  0.96165152078E+03 -0.93341516557E+03 -0.27099858524E+04  0.30252868395E+04  0.11090366432E+03 0.  0.
         13    1    3    3    0    0  0.31301419616E+03 -0.34027587000E+03 -0.83332332564E+03  0.95299177318E+03  0.00000000000E+00 0. -1.
        -13    1    3    3    0    0  0.64863732463E+03 -0.59313929556E+03 -0.18766625267E+04  0.20722950664E+04  0.00000000000E+00 0.  1.
         22    1    1    2    0    0 -0.96165152078E+03  0.93341516557E+03 -0.10036073936E+04  0.16742954695E+04  0.00000000000E+00 0.  1.
<mgrwt>
<rscale>  0 0.28801561E+04</rscale>
<asrwt>0</asrwt>
<pdfrwt beam="1">  1        1 0.64716733E+00 0.28801561E+04</pdfrwt>
<pdfrwt beam="2">  1       -1 0.75845315E-01 0.28801561E+04</pdfrwt>
<totfact> 0.93653252E-02</totfact>
</mgrwt>
</event>
<event>
 6    1  0.1885829E-005  0.5247932E+04  0.7818608E-02  0.7791359E-01
          2   -1    0    0  501    0  0.00000000000E+00  0.00000000000E+00  0.22217143676E+04  0.22217143676E+04  0.00000000000E+00 0. -1.
         -2   -1    0    0    0  501 -0.00000000000E+00 -0.00000000000E+00 -0.30990470472E+04  0.30990470472E+04  0.00000000000E+00 0.  1.
         23    2    1    2    0    0 -0.24218821104E+04  0.78080671825E+03 -0.10851403124E+04  0.27676542686E+04  0.84903265917E+02 0.  0.
         11    1    3    3    0    0 -0.98604291188E+03  0.35541803681E+03 -0.42323605654E+03  0.11303678005E+04  0.00000000000E+00 0. -1.
        -11    1    3    3    0    0 -0.14358391985E+04  0.42538868144E+03 -0.66190425589E+03  0.16372864680E+04  0.00000000000E+00 0.  1.
         22    1    1    2    0    0  0.24218821104E+04 -0.78080671825E+03  0.20780763285E+03  0.25531071463E+04  0.00000000000E+00 0.  1.
<mgrwt>
<rscale>  0 0.52479319E+04</rscale>
<asrwt>0</asrwt>
<pdfrwt beam="1">  1        2 0.34180221E+00 0.52479319E+04</pdfrwt>
<pdfrwt beam="2">  1       -2 0.47677647E+00 0.52479319E+04</pdfrwt>
<totfact> 0.83500936E-03</totfact>
</mgrwt>
</event>
<event>
 6    1  0.1885829E-005  0.1087527E+04  0.7818608E-02  0.9217435E-01
         -2   -1    0    0    0  501 -0.00000000000E+00  0.00000000000E+00  0.57522495287E+03  0.57522495287E+03  0.00000000000E+00 0.  1.
          2   -1    0    0  501    0  0.00000000000E+00 -0.00000000000E+00 -0.51402260586E+03  0.51402260586E+03  0.00000000000E+00 0. -1.
         23    2    1    2    0    0 -0.41648953811E+03 -0.33435437614E+03 -0.48757706206E+02  0.54395167803E+03  0.90828023828E+02 0.  0.
         11    1    3    3    0    0 -0.14838385326E+03 -0.14742461872E+03  0.19451032069E+02  0.21007172290E+03  0.00000000000E+00 0. -1.
        -11    1    3    3    0    0 -0.26810568485E+03 -0.18692975742E+03 -0.68208738275E+02  0.33387995513E+03  0.00000000000E+00 0.  1.
         22    1    1    2    0    0  0.41648953811E+03  0.33435437614E+03  0.10996005322E+03  0.54529588070E+03  0.00000000000E+00 0.  1.
<mgrwt>
<rscale>  0 0.10875268E+04</rscale>
<asrwt>0</asrwt>
<pdfrwt beam="1">  1        2 0.79080401E-01 0.10875268E+04</pdfrwt>
<pdfrwt beam="2">  1       -2 0.88496146E-01 0.10875268E+04</pdfrwt>
<totfact> 0.65119266E+01</totfact>
</mgrwt>
</event>
<event>
 6    1  0.1885829E-005  0.4329913E+04  0.7818608E-02  0.7941110E-01
         -1   -1    0    0    0  501 -0.00000000000E+00  0.00000000000E+00  0.17053691663E+04  0.17053691663E+04  0.00000000000E+00 0.  1.
          1   -1    0    0  501    0  0.00000000000E+00 -0.00000000000E+00 -0.27484004603E+04  0.27484004603E+04  0.00000000000E+00 0. -1.
         23    2    1    2    0    0  0.35763303453E+03  0.15187943797E+04  0.10206521363E+04  0.18666037921E+04  0.88550427221E+02 0.  0.
         11    1    3    3    0    0  0.22613501674E+03  0.81993380782E+03  0.59182548667E+03  0.10361881594E+04  0.00000000000E+00 0. -1.
        -11    1    3    3    0    0  0.13149801779E+03  0.69886057186E+03  0.42882664966E+03  0.83041563270E+03  0.00000000000E+00 0.  1.
         22    1    1    2    0    0 -0.35763303453E+03 -0.15187943797E+04 -0.20636834303E+04  0.25871658346E+04  0.00000000000E+00 0. -1.
<mgrwt>
<rscale>  0 0.43299133E+04</rscale>
<asrwt>0</asrwt>
<pdfrwt beam="1">  1        1 0.42283084E+00 0.43299133E+04</pdfrwt>
<pdfrwt beam="2">  1       -1 0.26236449E+00 0.43299133E+04</pdfrwt>
<totfact> 0.40015878E-02</totfact>
</mgrwt>
</event>
<event>
 6    1  0.1885829E-005  0.2964810E+04  0.7818608E-02  0.8253851E-01
          2   -1    0    0  501    0  0.00000000000E+00  0.00000000000E+00  0.12466894614E+04  0.12466894614E+04  0.00000000000E+00 0. -1.
         -2   -1    0    0    0  501 -0.00000000000E+00 -0.00000000000E+00 -0.17626884131E+04  0.17626884131E+04  0.00000000000E+00 0.  1.
         23    2    1    2    0    0 -0.30761709279E+03  0.10880970091E+04 -0.12290907472E+04  0.16725595300E+04  0.90597680546E+02 0.  0.
         11    1    3    3    0    0 -0.12024799018E+03  0.53639787462E+03 -0.64645918972E+03  0.84858219579E+03  0.00000000000E+00 0. -1.
        -11    1    3    3    0    0 -0.18736910261E+03  0.55169913453E+03 -0.58263155744E+03  0.82397733426E+03  0.00000000000E+00 0.  1.
         22    1    1    2    0    0  0.30761709279E+03 -0.10880970091E+04  0.71309179547E+03  0.13368183444E+04  0.00000000000E+00 0. -1.
<mgrwt>
<rscale>  0 0.29648103E+04</rscale>
<asrwt>0</asrwt>
<pdfrwt beam="1">  1        2 0.19179838E+00 0.29648103E+04</pdfrwt>
<pdfrwt beam="2">  1       -2 0.27118283E+00 0.29648103E+04</pdfrwt>
<totfact> 0.72706714E-01</totfact>
</mgrwt>
</event>
<event>
 6    1  0.1885829E-005  0.2623771E+04  0.7818608E-02  0.8360171E-01
         -2   -1    0    0    0  501 -0.00000000000E+00  0.00000000000E+00  0.19362660458E+04  0.19362660458E+04  0.00000000000E+00 0.  1.
          2   -1    0    0  501    0  0.00000000000E+00 -0.00000000000E+00 -0.88884641059E+03  0.88884641059E+03  0.00000000000E+00 0. -1.
         23    2    1    2    0    0  0.59374468032E+03 -0.62263795324E+03 -0.53973933276E+03  0.10197636381E+04  0.91589104104E+02 0.  0.
         13    1    3    3    0    0  0.84395486101E+02 -0.13961584409E+03 -0.10834424319E+03  0.19584089723E+03  0.00000000000E+00 0. -1.
        -13    1    3    3    0    0  0.50934919422E+03 -0.48302210915E+03 -0.43139508957E+03  0.82392274085E+03  0.00000000000E+00 0.  1.
         22    1    1    2    0    0 -0.59374468032E+03  0.62263795324E+03  0.15871589680E+04  0.18053488184E+04  0.00000000000E+00 0.  1.
<mgrwt>
<rscale>  0 0.26237707E+04</rscale>
<asrwt>0</asrwt>
<pdfrwt beam="1">  1        2 0.13674560E+00 0.26237707E+04</pdfrwt>
<pdfrwt beam="2">  1       -2 0.29788708E+00 0.26237707E+04</pdfrwt>
<totfact> 0.86260567E-01</totfact>
</mgrwt>
</event>
<event>
 6    1  0.1885829E-005  0.2322947E+04  0.7818608E-02  0.8468928E-01
          2   -1    0    0  501    0  0.00000000000E+00  0.00000000000E+00  0.11406261883E+04  0.11406261883E+04  0.00000000000E+00 0. -1.
         -2   -1    0    0    0  501 -0.00000000000E+00 -0.00000000000E+00 -0.11827022422E+04  0.11827022422E+04  0.00000000000E+00 0.  1.
         23    2    1    2    0    0 -0.70012599579E+03 -0.92275312369E+03 -0.76771259998E+02  0.11645128737E+04  0.92448198177E+02 0.  0.
         13    1    3    3    0    0 -0.45678436992E+03 -0.64356671991E+03 -0.17070848606E+02  0.78938045165E+03  0.00000000000E+00 0.  1.
        -13    1    3    3    0    0 -0.24334162587E+03 -0.27918640378E+03 -0.59700411391E+02  0.37513242203E+03  0.00000000000E+00 0. -1.
         22    1    1    2    0    0  0.70012599579E+03  0.92275312369E+03  0.34695206075E+02  0.11588155568E+04  0.00000000000E+00 0. -1.
<mgrwt>
<rscale>  0 0.23229474E+04</rscale>
<asrwt>0</asrwt>
<pdfrwt beam="1">  1        2 0.17548095E+00 0.23229474E+04</pdfrwt>
<pdfrwt beam="2">  1       -2 0.18195419E+00 0.23229474E+04</pdfrwt>
<totfact> 0.32721059E+00</totfact>
</mgrwt>
</event>
<event>
 6    1  0.1885829E-005  0.3822314E+04  0.7818608E-02  0.8041383E-01
          2   -1    0    0  501    0  0.00000000000E+00  0.00000000000E+00  0.25941504206E+04  0.25941504206E+04  0.00000000000E+00 0. -1.
         -2   -1    0    0    0  501 -0.00000000000E+00 -0.00000000000E+00 -0.14079837258E+04  0.14079837258E+04  0.00000000000E+00 0.  1.
         23    2    1    2    0    0 -0.14143449291E+04 -0.33661960428E+03  0.18905295079E+04  0.23866431036E+04  0.90989820473E+02 0.  0.
         11    1    3    3    0    0 -0.64353881698E+03 -0.17918624115E+03  0.92997785022E+03  0.11450365583E+04  0.00000000000E+00 0.  1.
        -11    1    3    3    0    0 -0.77080611214E+03 -0.15743336313E+03  0.96055165768E+03  0.12416065453E+04  0.00000000000E+00 0. -1.
         22    1    1    2    0    0  0.14143449291E+04  0.33661960428E+03 -0.70436281311E+03  0.16154910427E+04  0.00000000000E+00 0.  1.
<mgrwt>
<rscale>  0 0.38223143E+04</rscale>
<asrwt>0</asrwt>
<pdfrwt beam="1">  1        2 0.39910006E+00 0.38223143E+04</pdfrwt>
<pdfrwt beam="2">  1       -2 0.21661288E+00 0.38223143E+04</pdfrwt>
<totfact> 0.25494842E-01</totfact>
</mgrwt>
</event>
<event>
 6    1  0.1885829E-005  0.1168381E+04  0.7818608E-02  0.9140992E-01
         -2   -1    0    0    0  501 -0.00000000000E+00  0.00000000000E+00  0.33944424044E+03  0.33944424044E+03  0.00000000000E+00 0.  1.
          2   -1    0    0  501    0  0.00000000000E+00 -0.00000000000E+00 -0.10054042189E+04  0.10054042189E+04  0.00000000000E+00 0. -1.
         23    2    1    2    0    0  0.10822545727E+03  0.40416899996E+03 -0.79881110631E+03  0.90585557528E+03  0.86080250739E+02 0.  0.
         13    1    3    3    0    0  0.92806203387E+01  0.16271009568E+03 -0.36278761740E+03  0.39771291215E+03  0.00000000000E+00 0.  1.
        -13    1    3    3    0    0  0.98944836928E+02  0.24145890429E+03 -0.43602348891E+03  0.50814266313E+03  0.00000000000E+00 0. -1.
         22    1    1    2    0    0 -0.10822545727E+03 -0.40416899996E+03  0.13285112780E+03  0.43899288410E+03  0.00000000000E+00 0.  1.
<mgrwt>
<rscale>  0 0.11683812E+04</rscale>
<asrwt>0</asrwt>
<pdfrwt beam="1">  1        2 0.15467757E+00 0.11683812E+04</pdfrwt>
<pdfrwt beam="2">  1       -2 0.52222191E-01 0.11683812E+04</pdfrwt>
<totfact> 0.85505374E+01</totfact>
</mgrwt>
</event>
<event>
 6    1  0.1885829E-005  0.1205418E+04  0.7818608E-02  0.9108127E-01
         -2   -1    0    0    0  501 -0.00000000000E+00  0.00000000000E+00  0.12501726275E+03  0.12501726275E+03  0.00000000000E+00 0.  1.
          2   -1    0    0  501    0  0.00000000000E+00 -0.00000000000E+00 -0.29056657060E+04  0.29056657060E+04  0.00000000000E+00 0. -1.
         23    2    1    2    0    0  0.21918640660E+03 -0.13685683130E+03 -0.27576276405E+04  0.27712558489E+04  0.92608333671E+02 0.  0.
         11    1    3    3    0    0  0.14020875652E+03 -0.10816202505E+03 -0.14212782586E+04  0.14322672263E+04  0.00000000000E+00 0. -1.
        -11    1    3    3    0    0  0.78977650088E+02 -0.28694806249E+02 -0.13363493819E+04  0.13389886226E+04  0.00000000000E+00 0.  1.
         22    1    1    2    0    0 -0.21918640660E+03  0.13685683130E+03 -0.23020802706E+02  0.25942711977E+03  0.00000000000E+00 0.  1.
<mgrwt>
<rscale>  0 0.12054184E+04</rscale>
<asrwt>0</asrwt>
<pdfrwt beam="1">  1        2 0.44702549E+00 0.12054184E+04</pdfrwt>
<pdfrwt beam="2">  1       -2 0.19233425E-01 0.12054184E+04</pdfrwt>
<totfact> 0.45573342E+01</totfact>
</mgrwt>
</event>
<event>
 6    1  0.1885829E-005  0.4814331E+04  0.7818608E-02  0.7857805E-01
         -2   -1    0    0    0  501 -0.00000000000E+00  0.00000000000E+00  0.14849049939E+04  0.14849049939E+04  0.00000000000E+00 0.  1.
          2   -1    0    0  501    0  0.00000000000E+00 -0.00000000000E+00 -0.39022328513E+04  0.39022328513E+04  0.00000000000E+00 0. -1.
         23    2    1    2    0    0 -0.63775244815E+03  0.15591293033E+04  0.71371706037E+03  0.18317117600E+04  0.90352422491E+02 0.  0.
         13    1    3    3    0    0 -0.27698353238E+03  0.72358344949E+03  0.37328257242E+03  0.86001904889E+03  0.00000000000E+00 0. -1.
        -13    1    3    3    0    0 -0.36076891577E+03  0.83554585376E+03  0.34043448795E+03  0.97169271115E+03  0.00000000000E+00 0.  1.
         22    1    1    2    0    0  0.63775244815E+03 -0.15591293033E+04 -0.31310449178E+04  0.35554260851E+04  0.00000000000E+00 0. -1.
<mgrwt>
<rscale>  0 0.48143307E+04</rscale>
<asrwt>0</asrwt>
<pdfrwt beam="1">  1        2 0.60034351E+00 0.48143307E+04</pdfrwt>
<pdfrwt beam="2">  1       -2 0.22844692E+00 0.48143307E+04</pdfrwt>
<totfact> 0.26345605E-02</totfact>
</mgrwt>
</event>
<event>
 6    1  0.1885829E-005  0.2337595E+04  0.7818608E-02  0.8463244E-01
          2   -1    0    0  501    0  0.00000000000E+00  0.00000000000E+00  0.17858670888E+04  0.17858670888E+04  0.00000000000E+00 0. -1.
         -2   -1    0    0    0  501 -0.00000000000E+00 -0.00000000000E+00 -0.76494362922E+03  0.76494362922E+03  0.00000000000E+00 0.  1.
         23    2    1    2    0    0  0.13351267116E+03 -0.61356199158E+03 -0.56240222481E+03  0.84751856055E+03  0.87792352420E+02 0.  0.
         11    1    3    3    0    0  0.15922036139E+02 -0.26941976361E+03 -0.22366510436E+03  0.35052332186E+03  0.00000000000E+00 0.  1.
        -11    1    3    3    0    0  0.11759063502E+03 -0.34414222797E+03 -0.33873712046E+03  0.49699523870E+03  0.00000000000E+00 0. -1.
         22    1    1    2    0    0 -0.13351267116E+03  0.61356199158E+03  0.15833256844E+04  0.17032921575E+04  0.00000000000E+00 0. -1.
<mgrwt>
<rscale>  0 0.23375950E+04</rscale>
<asrwt>0</asrwt>
<pdfrwt beam="1">  1        2 0.27474878E+00 0.23375950E+04</pdfrwt>
<pdfrwt beam="2">  1       -2 0.11768364E+00 0.23375950E+04</pdfrwt>
<totfact> 0.44256284E+00</totfact>
</mgrwt>
</event>
<event>
 6    1  0.1885829E-005  0.1299379E+04  0.7818608E-02  0.9030058E-01
          2   -1    0    0  501    0  0.00000000000E+00  0.00000000000E+00  0.14345297952E+04  0.14345297952E+04  0.00000000000E+00 0. -1.
         -2   -1    0    0    0  501 -0.00000000000E+00 -0.00000000000E+00 -0.29424026459E+03  0.29424026459E+03  0.00000000000E+00 0.  1.
         23    2    1    2    0    0 -0.89842121170E+02 -0.29276293829E+03 -0.18652310948E+03  0.36707496666E+03  0.78558360502E+02 0.  0.
         11    1    3    3    0    0 -0.42704989051E+02 -0.24030666495E+03 -0.15941750028E+03  0.29152178084E+03  0.00000000000E+00 0. -1.
        -11    1    3    3    0    0 -0.47137132119E+02 -0.52456273345E+02 -0.27105609198E+02  0.75553185821E+02  0.00000000000E+00 0.  1.
         22    1    1    2    0    0  0.89842121170E+02  0.29276293829E+03  0.13268126400E+04  0.13616950931E+04  0.00000000000E+00 0. -1.
<mgrwt>
<rscale>  0 0.12993790E+04</rscale>
<asrwt>0</asrwt>
<pdfrwt beam="1">  1        2 0.22069689E+00 0.12993790E+04</pdfrwt>
<pdfrwt beam="2">  1       -2 0.45267734E-01 0.12993790E+04</pdfrwt>
<totfact> 0.62703400E+01</totfact>
</mgrwt>
</event>
<event>
 6    1  0.1885829E-005  0.1600307E+04  0.7818608E-02  0.8820359E-01
         -1   -1    0    0    0  501 -0.00000000000E+00  0.00000000000E+00  0.79187375817E+03  0.79187375817E+03  0.00000000000E+00 0.  1.
          1   -1    0    0  501    0  0.00000000000E+00 -0.00000000000E+00 -0.80852030463E+03  0.80852030463E+03  0.00000000000E+00 0. -1.
         23    2    1    2    0    0  0.59015342085E+03 -0.14281464673E+03  0.50837010248E+03  0.79769887462E+03  0.95949205311E+02 0.  0.
         11    1    3    3    0    0  0.17983271537E+03 -0.84906275054E+02  0.13949741928E+03  0.24291646928E+03  0.00000000000E+00 0. -1.
        -11    1    3    3    0    0  0.41032070548E+03 -0.57908371677E+02  0.36887268321E+03  0.55478240534E+03  0.00000000000E+00 0.  1.
         22    1    1    2    0    0 -0.59015342085E+03  0.14281464673E+03 -0.52501664894E+03  0.80269518818E+03  0.00000000000E+00 0. -1.
<mgrwt>
<rscale>  0 0.16003075E+04</rscale>
<asrwt>0</asrwt>
<pdfrwt beam="1">  1        1 0.12438774E+00 0.16003075E+04</pdfrwt>
<pdfrwt beam="2">  1       -1 0.12182673E+00 0.16003075E+04</pdfrwt>
<totfact> 0.12442769E+01</totfact>
</mgrwt>
</event>
<event>
 6    1  0.1885829E-005  0.3247081E+04  0.7818608E-02  0.8176493E-01
          2   -1    0    0  501    0  0.00000000000E+00  0.00000000000E+00  0.13141617996E+04  0.13141617996E+04  0.00000000000E+00 0.  1.
         -2   -1    0    0    0  501 -0.00000000000E+00 -0.00000000000E+00 -0.20057525555E+04  0.20057525555E+04  0.00000000000E+00 0. -1.
         23    2    1    2    0    0 -0.17731239646E+03  0.14322864810E+04 -0.11034751196E+04  0.18190702664E+04  0.92060008615E+02 0.  0.
         11    1    3    3    0    0 -0.40494657920E+02  0.65337406272E+03 -0.47186331528E+03  0.80696497536E+03  0.00000000000E+00 0. -1.
        -11    1    3    3    0    0 -0.13681773854E+03  0.77891241823E+03 -0.63161180430E+03  0.10121052911E+04  0.00000000000E+00 0.  1.
         22    1    1    2    0    0  0.17731239646E+03 -0.14322864810E+04  0.41188436365E+03  0.15008440887E+04  0.00000000000E+00 0.  1.
<mgrwt>
<rscale>  0 0.32470808E+04</rscale>
<asrwt>0</asrwt>
<pdfrwt beam="1">  1        2 0.20217874E+00 0.32470808E+04</pdfrwt>
<pdfrwt beam="2">  1       -2 0.30857731E+00 0.32470808E+04</pdfrwt>
<totfact> 0.38302818E-01</totfact>
</mgrwt>
</event>
<event>
 6    1  0.1885829E-005  0.2292289E+04  0.7818608E-02  0.8480968E-01
         -1   -1    0    0    0  501 -0.00000000000E+00  0.00000000000E+00  0.12802344605E+04  0.12802344605E+04  0.00000000000E+00 0.  1.
          1   -1    0    0  501    0  0.00000000000E+00 -0.00000000000E+00 -0.10260988829E+04  0.10260988829E+04  0.00000000000E+00 0. -1.
         23    2    1    2    0    0 -0.11008363802E+04 -0.21286511625E+03  0.35866152817E+03  0.11802436631E+04  0.84762721360E+02 0.  0.
         11    1    3    3    0    0 -0.99649825802E+03 -0.17636044408E+03  0.30233884945E+03  0.10561820697E+04  0.00000000000E+00 0.  1.
        -11    1    3    3    0    0 -0.10433812216E+03 -0.36504672176E+02  0.56322678724E+02  0.12406159343E+03  0.00000000000E+00 0. -1.
         22    1    1    2    0    0  0.11008363802E+04  0.21286511625E+03 -0.10452595058E+03  0.11260896803E+04  0.00000000000E+00 0. -1.
<mgrwt>
<rscale>  0 0.22922889E+04</rscale>
<asrwt>0</asrwt>
<pdfrwt beam="1">  1        1 0.15786137E+00 0.22922889E+04</pdfrwt>
<pdfrwt beam="2">  1       -1 0.19695915E+00 0.22922889E+04</pdfrwt>
<totfact> 0.20632119E+00</totfact>
</mgrwt>
</event>
<event>
 6    1  0.1885829E-005  0.2087168E+04  0.7818608E-02  0.8566917E-01
         -2   -1    0    0    0  501 -0.00000000000E+00  0.00000000000E+00  0.33833496429E+03  0.33833496429E+03  0.00000000000E+00 0.  1.
          2   -1    0    0  501    0  0.00000000000E+00 -0.00000000000E+00 -0.32189026171E+04  0.32189026171E+04  0.00000000000E+00 0. -1.
         23    2    1    2    0    0 -0.98850260917E+03  0.28623035661E+03 -0.11684839148E+04  0.15596650667E+04  0.90195542364E+02 0.  0.
         13    1    3    3    0    0 -0.45942754768E+03  0.90123334189E+02 -0.55684223222E+03  0.72750887177E+03  0.00000000000E+00 0. -1.
        -13    1    3    3    0    0 -0.52907506149E+03  0.19610702242E+03 -0.61164168259E+03  0.83215619496E+03  0.00000000000E+00 0.  1.
         22    1    1    2    0    0  0.98850260917E+03 -0.28623035661E+03 -0.17120837380E+04  0.19975725147E+04  0.00000000000E+00 0.  1.
<mgrwt>
<rscale>  0 0.20871677E+04</rscale>
<asrwt>0</asrwt>
<pdfrwt beam="1">  1        2 0.49521577E+00 0.20871677E+04</pdfrwt>
<pdfrwt beam="2">  1       -2 0.52051535E-01 0.20871677E+04</pdfrwt>
<totfact> 0.40634191E+00</totfact>
</mgrwt>
</event>
<event>
 6    1  0.1885829E-005  0.1126478E+04  0.7818608E-02  0.9179762E-01
          2   -1    0    0  501    0  0.00000000000E+00  0.00000000000E+00  0.13627727873E+04  0.13627727873E+04  0.00000000000E+00 0. -1.
         -2   -1    0    0    0  501 -0.00000000000E+00 -0.00000000000E+00 -0.23278886840E+03  0.23278886840E+03  0.00000000000E+00 0.  1.
         23    2    1    2    0    0  0.15551601048E+03 -0.37226263905E+03  0.11178778887E+04  0.11919389880E+04  0.91120114076E+02 0.  0.
         13    1    3    3    0    0  0.50406346457E+02 -0.21040635838E+03  0.67529779921E+03  0.70911124165E+03  0.00000000000E+00 0.  1.
        -13    1    3    3    0    0  0.10510966402E+03 -0.16185628067E+03  0.44258008946E+03  0.48282774635E+03  0.00000000000E+00 0. -1.
         22    1    1    2    0    0 -0.15551601048E+03  0.37226263905E+03  0.12106030272E+02  0.40362266775E+03  0.00000000000E+00 0.  1.
<mgrwt>
<rscale>  0 0.11264783E+04</rscale>
<asrwt>0</asrwt>
<pdfrwt beam="1">  1        2 0.20965735E+00 0.11264783E+04</pdfrwt>
<pdfrwt beam="2">  1       -2 0.35813673E-01 0.11264783E+04</pdfrwt>
<totfact> 0.11036712E+02</totfact>
</mgrwt>
</event>
<event>
 6    1  0.1885829E-005  0.2137554E+04  0.7818608E-02  0.8544879E-01
          2   -1    0    0  501    0  0.00000000000E+00  0.00000000000E+00  0.14354148962E+04  0.14354148962E+04  0.00000000000E+00 0.  1.
         -2   -1    0    0    0  501 -0.00000000000E+00 -0.00000000000E+00 -0.79578670013E+03  0.79578670013E+03  0.00000000000E+00 0. -1.
         23    2    1    2    0    0  0.99854732076E+03  0.30191974313E+03  0.55481388267E+03  0.11845661532E+04  0.84417082369E+02 0.  0.
         11    1    3    3    0    0  0.30603608422E+03  0.13347664014E+03  0.18069437753E+03  0.37963740119E+03  0.00000000000E+00 0.  1.
        -11    1    3    3    0    0  0.69251123655E+03  0.16844310298E+03  0.37411950514E+03  0.80492875201E+03  0.00000000000E+00 0. -1.
         22    1    1    2    0    0 -0.99854732076E+03 -0.30191974313E+03  0.84814313408E+02  0.10466354431E+04  0.00000000000E+00 0. -1.
<mgrwt>
<rscale>  0 0.21375538E+04</rscale>
<asrwt>0</asrwt>
<pdfrwt beam="1">  1        2 0.22083306E+00 0.21375538E+04</pdfrwt>
<pdfrwt beam="2">  1       -2 0.12242872E+00 0.21375538E+04</pdfrwt>
<totfact> 0.64106987E+00</totfact>
</mgrwt>
</event>
<event>
 6    1  0.1885829E-005  0.6139909E+04  0.7818608E-02  0.7673293E-01
         -1   -1    0    0    0  501 -0.00000000000E+00  0.00000000000E+00  0.50640225882E+04  0.50640225882E+04  0.00000000000E+00 0.  1.
          1   -1    0    0  501    0  0.00000000000E+00 -0.00000000000E+00 -0.18610936155E+04  0.18610936155E+04  0.00000000000E+00 0. -1.
         23    2    1    2    0    0  0.33917210394E+03  0.17858186471E+04 -0.11875865246E+04  0.21731889854E+04  0.90568519106E+02 0.  0.
         13    1    3    3    0    0  0.21850982749E+03  0.13271914421E+04 -0.90432492820E+03  0.16207983355E+04  0.00000000000E+00 0. -1.
        -13    1    3    3    0    0  0.12066227645E+03  0.45862720498E+03 -0.28326159637E+03  0.55239064988E+03  0.00000000000E+00 0.  1.
         22    1    1    2    0    0 -0.33917210394E+03 -0.17858186471E+04  0.43905154972E+04  0.47519272183E+04  0.00000000000E+00 0.  1.
<mgrwt>
<rscale>  0 0.61399088E+04</rscale>
<asrwt>0</asrwt>
<pdfrwt beam="1">  1        1 0.28632210E+00 0.61399088E+04</pdfrwt>
<pdfrwt beam="2">  1       -1 0.77908039E+00 0.61399088E+04</pdfrwt>
<totfact> 0.22727720E-04</totfact>
</mgrwt>
</event>
<event>
 6    1  0.1885829E-005  0.2454912E+04  0.7818608E-02  0.8419227E-01
          1   -1    0    0  501    0  0.00000000000E+00  0.00000000000E+00  0.27253090474E+04  0.27253090474E+04  0.00000000000E+00 0.  1.
         -1   -1    0    0    0  501 -0.00000000000E+00 -0.00000000000E+00 -0.55283552623E+03  0.55283552623E+03  0.00000000000E+00 0. -1.
         23    2    1    2    0    0  0.10079561103E+04 -0.60044152424E+03  0.15620944626E+04  0.19556211752E+04  0.88371525465E+02 0.  0.
         13    1    3    3    0    0  0.30478297181E+03 -0.20939561473E+03  0.54840361504E+03  0.66142702421E+03  0.00000000000E+00 0.  1.
        -13    1    3    3    0    0  0.70317313845E+03 -0.39104590951E+03  0.10136908476E+04  0.12941941510E+04  0.00000000000E+00 0. -1.
         22    1    1    2    0    0 -0.10079561103E+04  0.60044152424E+03  0.61037905852E+03  0.13225233984E+04  0.00000000000E+00 0. -1.
<mgrwt>
<rscale>  0 0.24549115E+04</rscale>
<asrwt>0</asrwt>
<pdfrwt beam="1">  1        1 0.41927831E+00 0.24549115E+04</pdfrwt>
<pdfrwt beam="2">  1       -1 0.85051621E-01 0.24549115E+04</pdfrwt>
<totfact> 0.11482203E+00</totfact>
</mgrwt>
</event>
<event>
 6    1  0.1885829E-005  0.9134957E+03  0.7818608E-02  0.9408867E-01
         -2   -1    0    0    0  501 -0.00000000000E+00  0.00000000000E+00  0.15125579230E+03  0.15125579230E+03  0.00000000000E+00 0.  1.
          2   -1    0    0  501    0  0.00000000000E+00 -0.00000000000E+00 -0.13792437067E+04  0.13792437067E+04  0.00000000000E+00 0. -1.
         23    2    1    2    0    0 -0.21641046777E+03  0.34470111622E+03 -0.95129970350E+03  0.10383524517E+04  0.86904188926E+02 0.  0.
         11    1    3    3    0    0 -0.16974716986E+03  0.19262964881E+03 -0.60816163434E+03  0.66013699848E+03  0.00000000000E+00 0.  1.
        -11    1    3    3    0    0 -0.46663297905E+02  0.15207146741E+03 -0.34313806917E+03  0.37821545326E+03  0.00000000000E+00 0. -1.
         22    1    1    2    0    0  0.21641046777E+03 -0.34470111622E+03 -0.27668821092E+03  0.49214704728E+03  0.00000000000E+00 0.  1.
<mgrwt>
<rscale>  0 0.91349570E+03</rscale>
<asrwt>0</asrwt>
<pdfrwt beam="1">  1        2 0.21219135E+00 0.91349570E+03</pdfrwt>
<pdfrwt beam="2">  1       -2 0.23270121E-01 0.91349570E+03</pdfrwt>
<totfact> 0.24315749E+02</totfact>
</mgrwt>
</event>
<event>
 6    1  0.1885829E-005  0.2797545E+04  0.7818608E-02  0.8304031E-01
          1   -1    0    0  501    0  0.00000000000E+00  0.00000000000E+00  0.88196761208E+03  0.88196761208E+03  0.00000000000E+00 0. -1.
         -1   -1    0    0    0  501 -0.00000000000E+00 -0.00000000000E+00 -0.22184093234E+04  0.22184093234E+04  0.00000000000E+00 0.  1.
         23    2    1    2    0    0 -0.50340002857E+03 -0.73215462509E+03  0.52623526464E+03  0.10366357936E+04  0.90709597347E+02 0.  0.
         13    1    3    3    0    0 -0.12610661848E+03 -0.21742590953E+03  0.10777972960E+03  0.27348377552E+03  0.00000000000E+00 0. -1.
        -13    1    3    3    0    0 -0.37729341009E+03 -0.51472871555E+03  0.41845553504E+03  0.76315201809E+03  0.00000000000E+00 0.  1.
         22    1    1    2    0    0  0.50340002857E+03  0.73215462509E+03 -0.18626769759E+04  0.20637411418E+04  0.00000000000E+00 0.  1.
<mgrwt>
<rscale>  0 0.27975455E+04</rscale>
<asrwt>0</asrwt>
<pdfrwt beam="1">  1        1 0.13568733E+00 0.27975455E+04</pdfrwt>
<pdfrwt beam="2">  1       -1 0.34129374E+00 0.27975455E+04</pdfrwt>
<totfact> 0.28926578E-01</totfact>
</mgrwt>
</event>
<event>
 6    1  0.1885829E-005  0.3386044E+04  0.7818608E-02  0.8141340E-01
         -2   -1    0    0    0  501 -0.00000000000E+00  0.00000000000E+00  0.82272793559E+03  0.82272793559E+03  0.00000000000E+00 0.  1.
          2   -1    0    0  501    0  0.00000000000E+00 -0.00000000000E+00 -0.34839257315E+04  0.34839257315E+04  0.00000000000E+00 0. -1.
         23    2    1    2    0    0 -0.16428022835E+04  0.15732217947E+03 -0.18054910381E+04  0.24476798464E+04  0.88256053198E+02 0.  0.
         11    1    3    3    0    0 -0.43576393502E+03  0.42719277157E+02 -0.53794329011E+03  0.69361237524E+03  0.00000000000E+00 0. -1.
        -11    1    3    3    0    0 -0.12070383485E+04  0.11460290232E+03 -0.12675477480E+04  0.17540674711E+04  0.00000000000E+00 0.  1.
         22    1    1    2    0    0  0.16428022835E+04 -0.15732217947E+03 -0.85570675784E+03  0.18589738207E+04  0.00000000000E+00 0. -1.
<mgrwt>
<rscale>  0 0.33860437E+04</rscale>
<asrwt>0</asrwt>
<pdfrwt beam="1">  1        2 0.53598857E+00 0.33860437E+04</pdfrwt>
<pdfrwt beam="2">  1       -2 0.12657353E+00 0.33860437E+04</pdfrwt>
<totfact> 0.32101828E-01</totfact>
</mgrwt>
</event>
<event>
 6    1  0.1885829E-005  0.1969777E+04  0.7818608E-02  0.8620883E-01
          1   -1    0    0  501    0  0.00000000000E+00  0.00000000000E+00  0.15441016608E+04  0.15441016608E+04  0.00000000000E+00 0. -1.
         -1   -1    0    0    0  501 -0.00000000000E+00 -0.00000000000E+00 -0.62820052026E+03  0.62820052026E+03  0.00000000000E+00 0.  1.
         23    2    1    2    0    0 -0.58016408059E+03  0.20184716092E+03  0.13049407067E+04  0.14451952971E+04  0.91578173920E+02 0.  0.
         13    1    3    3    0    0 -0.51469711328E+03  0.16106536892E+03  0.11931915459E+04  0.13094125540E+04  0.00000000000E+00 0. -1.
        -13    1    3    3    0    0 -0.65466967311E+02  0.40781792002E+02  0.11174916077E+03  0.13578274302E+03  0.00000000000E+00 0.  1.
         22    1    1    2    0    0  0.58016408059E+03 -0.20184716092E+03 -0.38903956611E+03  0.72710688401E+03  0.00000000000E+00 0.  1.
<mgrwt>
<rscale>  0 0.19697771E+04</rscale>
<asrwt>0</asrwt>
<pdfrwt beam="1">  1        1 0.23755410E+00 0.19697771E+04</pdfrwt>
<pdfrwt beam="2">  1       -1 0.96646235E-01 0.19697771E+04</pdfrwt>
<totfact> 0.58412283E+00</totfact>
</mgrwt>
</event>
<event>
 6    1  0.2256217E-005  0.3701590E+04  0.7818608E-02  0.8067610E-01
          2   -1    0    0  501    0  0.00000000000E+00  0.00000000000E+00  0.17729687067E+04  0.17729687067E+04  0.00000000000E+00 0. -1.
         -2   -1    0    0    0  501 -0.00000000000E+00 -0.00000000000E+00 -0.19320372124E+04  0.19320372124E+04  0.00000000000E+00 0.  1.
         23    2    1    2    0    0  0.11113774422E+04  0.20547985961E+03  0.13850543273E+04  0.17914497754E+04  0.11634008933E+03 0.  0.
         11    1    3    3    0    0  0.24097797237E+03  0.53345473994E+02  0.23164903840E+03  0.33849283560E+03  0.00000000000E+00 0. -1.
        -11    1    3    3    0    0  0.87039946981E+03  0.15213438561E+03  0.11534052889E+04  0.14529569398E+04  0.00000000000E+00 0.  1.
         22    1    1    2    0    0 -0.11113774422E+04 -0.20547985961E+03 -0.15441228331E+04  0.19135561438E+04  0.00000000000E+00 0.  1.
<mgrwt>
<rscale>  0 0.37015897E+04</rscale>
<asrwt>0</asrwt>
<pdfrwt beam="1">  1        2 0.27276442E+00 0.37015897E+04</pdfrwt>
<pdfrwt beam="2">  1       -2 0.29723649E+00 0.37015897E+04</pdfrwt>
<totfact> 0.23857940E-01</totfact>
</mgrwt>
</event>
<event>
 6    1  0.1885829E-005  0.3476452E+04  0.7818608E-02  0.8119393E-01
         -2   -1    0    0    0  501 -0.00000000000E+00  0.00000000000E+00  0.13857423491E+04  0.13857423491E+04  0.00000000000E+00 0.  1.
          2   -1    0    0  501    0  0.00000000000E+00 -0.00000000000E+00 -0.21803692513E+04  0.21803692513E+04  0.00000000000E+00 0. -1.
         23    2    1    2    0    0  0.16461723273E+04 -0.41903762324E+03 -0.25056732899E+02  0.17012485743E+04  0.90238631675E+02 0.  0.
         13    1    3    3    0    0  0.54897093488E+03 -0.15558386879E+03 -0.48192425391E+02  0.57262373111E+03  0.00000000000E+00 0. -1.
        -13    1    3    3    0    0  0.10972013924E+04 -0.26345375445E+03  0.23135692492E+02  0.11286248431E+04  0.00000000000E+00 0.  1.
         22    1    1    2    0    0 -0.16461723273E+04  0.41903762324E+03 -0.76957016931E+03  0.18648630262E+04  0.00000000000E+00 0. -1.
<mgrwt>
<rscale>  0 0.34764522E+04</rscale>
<asrwt>0</asrwt>
<pdfrwt beam="1">  1        2 0.33544142E+00 0.34764522E+04</pdfrwt>
<pdfrwt beam="2">  1       -2 0.21319113E+00 0.34764522E+04</pdfrwt>
<totfact> 0.47632777E-01</totfact>
</mgrwt>
</event>
<event>
 6    1  0.1885829E-005  0.2329921E+04  0.7818608E-02  0.8466216E-01
          2   -1    0    0  501    0  0.00000000000E+00  0.00000000000E+00  0.23840547624E+04  0.23840547624E+04  0.00000000000E+00 0. -1.
         -2   -1    0    0    0  501 -0.00000000000E+00 -0.00000000000E+00 -0.56925408743E+03  0.56925408743E+03  0.00000000000E+00 0.  1.
         23    2    1    2    0    0 -0.51293641135E+03 -0.42618333159E+03 -0.29929258868E+03  0.73652597331E+03  0.90324202246E+02 0.  0.
         11    1    3    3    0    0 -0.28026474507E+03 -0.28937810603E+03 -0.17009907975E+03  0.43728904915E+03  0.00000000000E+00 0.  1.
        -11    1    3    3    0    0 -0.23267166628E+03 -0.13680522556E+03 -0.12919350893E+03  0.29923692416E+03  0.00000000000E+00 0. -1.
         22    1    1    2    0    0  0.51293641135E+03  0.42618333159E+03  0.21140932637E+04  0.22167828765E+04  0.00000000000E+00 0. -1.
<mgrwt>
<rscale>  0 0.23299210E+04</rscale>
<asrwt>0</asrwt>
<pdfrwt beam="1">  1        2 0.36677765E+00 0.23299210E+04</pdfrwt>
<pdfrwt beam="2">  1       -2 0.87577553E-01 0.23299210E+04</pdfrwt>
<totfact> 0.41315996E+00</totfact>
</mgrwt>
</event>
<event>
 6    1  0.1885829E-005  0.1328220E+04  0.7818608E-02  0.9007481E-01
         -2   -1    0    0    0  501 -0.00000000000E+00  0.00000000000E+00  0.18467807168E+03  0.18467807168E+03  0.00000000000E+00 0.  1.
          2   -1    0    0  501    0  0.00000000000E+00 -0.00000000000E+00 -0.23881677916E+04  0.23881677916E+04  0.00000000000E+00 0. -1.
         23    2    1    2    0    0 -0.31153048995E+03 -0.30718179691E+03 -0.20663508766E+04  0.21143494458E+04  0.96206710827E+02 0.  0.
         13    1    3    3    0    0 -0.63724690059E+02 -0.34462611125E+02 -0.50105038759E+03  0.50626080096E+03  0.00000000000E+00 0. -1.
        -13    1    3    3    0    0 -0.24780579989E+03 -0.27271918579E+03 -0.15653004890E+04  0.16080886448E+04  0.00000000000E+00 0.  1.
         22    1    1    2    0    0  0.31153048995E+03  0.30718179691E+03 -0.13713884336E+03  0.45849641753E+03  0.00000000000E+00 0.  1.
<mgrwt>
<rscale>  0 0.13282202E+04</rscale>
<asrwt>0</asrwt>
<pdfrwt beam="1">  1        2 0.36741044E+00 0.13282202E+04</pdfrwt>
<pdfrwt beam="2">  1       -2 0.28412010E-01 0.13282202E+04</pdfrwt>
<totfact> 0.44973237E+01</totfact>
</mgrwt>
</event>
<event>
 6    1  0.1885829E-005  0.1563544E+04  0.7818608E-02  0.8843263E-01
          1   -1    0    0  501    0  0.00000000000E+00  0.00000000000E+00  0.15357888644E+04  0.15357888644E+04  0.00000000000E+00 0. -1.
         -1   -1    0    0    0  501 -0.00000000000E+00 -0.00000000000E+00 -0.39795012759E+03  0.39795012759E+03  0.00000000000E+00 0.  1.
         23    2    1    2    0    0 -0.22461716472E+03  0.60478522765E+03  0.11110815232E+04  0.12880347325E+04  0.91177182360E+02 0.  0.
         11    1    3    3    0    0 -0.13378364414E+03  0.36928768365E+03  0.76183293572E+03  0.85712360759E+03  0.00000000000E+00 0.  1.
        -11    1    3    3    0    0 -0.90833520583E+02  0.23549754400E+03  0.34924858748E+03  0.43091112488E+03  0.00000000000E+00 0. -1.
         22    1    1    2    0    0  0.22461716472E+03 -0.60478522765E+03  0.26757213595E+02  0.64570425951E+03  0.00000000000E+00 0.  1.
<mgrwt>
<rscale>  0 0.15635439E+04</rscale>
<asrwt>0</asrwt>
<pdfrwt beam="1">  1        1 0.23627521E+00 0.15635439E+04</pdfrwt>
<pdfrwt beam="2">  1       -1 0.61223097E-01 0.15635439E+04</pdfrwt>
<totfact> 0.16089005E+01</totfact>
</mgrwt>
</event>
<event>
 6    1  0.1885829E-005  0.2046740E+04  0.7818608E-02  0.8585075E-01
          1   -1    0    0  501    0  0.00000000000E+00  0.00000000000E+00  0.73901559509E+03  0.73901559509E+03  0.00000000000E+00 0. -1.
         -1   -1    0    0    0  501 -0.00000000000E+00 -0.00000000000E+00 -0.14171366175E+04  0.14171366175E+04  0.00000000000E+00 0.  1.
         23    2    1    2    0    0 -0.32949860149E+03  0.82138907701E+03  0.19724692801E+03  0.91135568589E+03  0.91725085815E+02 0.  0.
         13    1    3    3    0    0 -0.13274147742E+03  0.28900555675E+03  0.28929722641E+02  0.31934533112E+03  0.00000000000E+00 0.  1.
        -13    1    3    3    0    0 -0.19675712407E+03  0.53238352027E+03  0.16831720537E+03  0.59201035477E+03  0.00000000000E+00 0. -1.
         22    1    1    2    0    0  0.32949860149E+03 -0.82138907701E+03 -0.87536795041E+03  0.12447965267E+04  0.00000000000E+00 0.  1.
<mgrwt>
<rscale>  0 0.20467399E+04</rscale>
<asrwt>0</asrwt>
<pdfrwt beam="1">  1        1 0.11369471E+00 0.20467399E+04</pdfrwt>
<pdfrwt beam="2">  1       -1 0.21802102E+00 0.20467399E+04</pdfrwt>
<totfact> 0.26271382E+00</totfact>
</mgrwt>
</event>
<event>
 6    1  0.1885829E-005  0.1484446E+04  0.7818608E-02  0.8894862E-01
         -4   -1    0    0    0  501 -0.00000000000E+00  0.00000000000E+00  0.20528032010E+04  0.20528032010E+04  0.00000000000E+00 0.  1.
          4   -1    0    0  501    0  0.00000000000E+00 -0.00000000000E+00 -0.26836234951E+03  0.26836234951E+03  0.00000000000E+00 0. -1.
         23    2    1    2    0    0  0.24854706462E+03 -0.10772036345E+03  0.19714131154E+04  0.19920182468E+04  0.91036827949E+02 0.  0.
         13    1    3    3    0    0  0.19726652769E+03 -0.76256264107E+02  0.12196099764E+04  0.12378116155E+04  0.00000000000E+00 0.  1.
        -13    1    3    3    0    0  0.51280536932E+02 -0.31464099348E+02  0.75180313893E+03  0.75420663132E+03  0.00000000000E+00 0. -1.
         22    1    1    2    0    0 -0.24854706462E+03  0.10772036345E+03 -0.18697226393E+03  0.32914730367E+03  0.00000000000E+00 0. -1.
<mgrwt>
<rscale>  0 0.14844461E+04</rscale>
<asrwt>0</asrwt>
<pdfrwt beam="1">  1        4 0.41286517E-01 0.14844461E+04</pdfrwt>
<pdfrwt beam="2">  1       -4 0.31581587E+00 0.14844461E+04</pdfrwt>
<totfact> 0.27419191E-01</totfact>
</mgrwt>
</event>
<event>
 6    1  0.1885829E-005  0.3705075E+04  0.7818608E-02  0.8066838E-01
         -2   -1    0    0    0  501 -0.00000000000E+00  0.00000000000E+00  0.12829813078E+04  0.12829813078E+04  0.00000000000E+00 0.  1.
          2   -1    0    0  501    0  0.00000000000E+00 -0.00000000000E+00 -0.26749373686E+04  0.26749373686E+04  0.00000000000E+00 0. -1.
         23    2    1    2    0    0 -0.11702916887E+04 -0.14021393810E+04 -0.37212231921E+03  0.18661160230E+04  0.91304494748E+02 0.  0.
         11    1    3    3    0    0 -0.78379529433E+03 -0.97169403662E+03 -0.29189442781E+03  0.12820790620E+04  0.00000000000E+00 0. -1.
        -11    1    3    3    0    0 -0.38649639435E+03 -0.43044534433E+03 -0.80227891400E+02  0.58403696104E+03  0.00000000000E+00 0.  1.
         22    1    1    2    0    0  0.11702916887E+04  0.14021393810E+04 -0.10198337416E+04  0.20918026534E+04  0.00000000000E+00 0. -1.
<mgrwt>
<rscale>  0 0.37050747E+04</rscale>
<asrwt>0</asrwt>
<pdfrwt beam="1">  1        2 0.41152882E+00 0.37050747E+04</pdfrwt>
<pdfrwt beam="2">  1       -2 0.19738174E+00 0.37050747E+04</pdfrwt>
<totfact> 0.30727483E-01</totfact>
</mgrwt>
</event>
<event>
 6    1  0.2730571E-005  0.2054903E+04  0.7818608E-02  0.8581373E-01
         -2   -1    0    0    0  501 -0.00000000000E+00  0.00000000000E+00  0.13359200603E+04  0.13359200603E+04  0.00000000000E+00 0.  1.
          2   -1    0    0  501    0  0.00000000000E+00 -0.00000000000E+00 -0.79020939549E+03  0.79020939549E+03  0.00000000000E+00 0. -1.
         23    2    1    2    0    0 -0.98976537933E+03 -0.26725004271E+03  0.28566306245E+03  0.10684514107E+04  0.94482487369E+02 0.  0.
         11    1    3    3    0    0 -0.61309214900E+03 -0.16209505951E+03  0.22392752393E+03  0.67253277054E+03  0.00000000000E+00 0.  1.
        -11    1    3    3    0    0 -0.37667323033E+03 -0.10515498319E+03  0.61735538517E+02  0.39591864020E+03  0.00000000000E+00 0. -1.
         22    1    1    2    0    0  0.98976537933E+03  0.26725004271E+03  0.26004760234E+03  0.10576780450E+04  0.00000000000E+00 0. -1.
<mgrwt>
<rscale>  0 0.20549030E+04</rscale>
<asrwt>0</asrwt>
<pdfrwt beam="1">  1        2 0.12157068E+00 0.20549030E+04</pdfrwt>
<pdfrwt beam="2">  1       -2 0.20552616E+00 0.20549030E+04</pdfrwt>
<totfact> 0.39618920E+00</totfact>
</mgrwt>
</event>
<event>
 6    1  0.1885829E-005  0.2814805E+04  0.7818608E-02  0.8298687E-01
          2   -1    0    0  501    0  0.00000000000E+00  0.00000000000E+00  0.14393840789E+04  0.14393840789E+04  0.00000000000E+00 0. -1.
         -2   -1    0    0    0  501 -0.00000000000E+00 -0.00000000000E+00 -0.13761315769E+04  0.13761315769E+04  0.00000000000E+00 0.  1.
         23    2    1    2    0    0 -0.39610470984E+03 -0.96751748905E+02  0.13774896059E+04  0.14394782263E+04  0.91433624618E+02 0.  0.
         11    1    3    3    0    0 -0.25385966572E+03 -0.50485826158E+02  0.10117508254E+04  0.10443338935E+04  0.00000000000E+00 0. -1.
        -11    1    3    3    0    0 -0.14224504413E+03 -0.46265922747E+02  0.36573878050E+03  0.39514433281E+03  0.00000000000E+00 0.  1.
         22    1    1    2    0    0  0.39610470984E+03  0.96751748905E+02 -0.13142371039E+04  0.13760374294E+04  0.00000000000E+00 0.  1.
<mgrwt>
<rscale>  0 0.28148051E+04</rscale>
<asrwt>0</asrwt>
<pdfrwt beam="1">  1        2 0.22144370E+00 0.28148051E+04</pdfrwt>
<pdfrwt beam="2">  1       -2 0.21171255E+00 0.28148051E+04</pdfrwt>
<totfact> 0.13332337E+00</totfact>
</mgrwt>
</event>
<event>
 6    1  0.1885829E-005  0.1871565E+04  0.7818608E-02  0.8669141E-01
         -2   -1    0    0    0  501 -0.00000000000E+00  0.00000000000E+00  0.68470571862E+03  0.68470571862E+03  0.00000000000E+00 0.  1.
          2   -1    0    0  501    0  0.00000000000E+00 -0.00000000000E+00 -0.12789268368E+04  0.12789268368E+04  0.00000000000E+00 0. -1.
         23    2    1    2    0    0 -0.57049626664E+03 -0.46732598711E+03 -0.89823629045E+03  0.11659579391E+04  0.93647818273E+02 0.  0.
         11    1    3    3    0    0 -0.41449841446E+03 -0.38777001630E+03 -0.70709766703E+03  0.90673128977E+03  0.00000000000E+00 0.  1.
        -11    1    3    3    0    0 -0.15599785218E+03 -0.79555970807E+02 -0.19113862342E+03  0.25922664936E+03  0.00000000000E+00 0. -1.
         22    1    1    2    0    0  0.57049626664E+03  0.46732598711E+03  0.30401517229E+03  0.79767461628E+03  0.00000000000E+00 0.  1.
<mgrwt>
<rscale>  0 0.18715646E+04</rscale>
<asrwt>0</asrwt>
<pdfrwt beam="1">  1        2 0.19675798E+00 0.18715646E+04</pdfrwt>
<pdfrwt beam="2">  1       -2 0.10533934E+00 0.18715646E+04</pdfrwt>
<totfact> 0.11646927E+01</totfact>
</mgrwt>
</event>
<event>
 6    1  0.1885829E-005  0.3886479E+04  0.7818608E-02  0.8027847E-01
         -2   -1    0    0    0  501 -0.00000000000E+00  0.00000000000E+00  0.13766628983E+04  0.13766628983E+04  0.00000000000E+00 0.  1.
          2   -1    0    0  501    0  0.00000000000E+00 -0.00000000000E+00 -0.27429948937E+04  0.27429948937E+04  0.00000000000E+00 0. -1.
         23    2    1    2    0    0  0.33485732794E+03  0.17633626512E+04  0.10289701016E+03  0.18001295769E+04  0.91112179380E+02 0.  0.
         11    1    3    3    0    0  0.57537912714E-01  0.11958728651E+03  0.10938040578E+02  0.12008648191E+03  0.00000000000E+00 0. -1.
        -11    1    3    3    0    0  0.33479979003E+03  0.16437753647E+04  0.91958969586E+02  0.16800430950E+04  0.00000000000E+00 0.  1.
         22    1    1    2    0    0 -0.33485732794E+03 -0.17633626512E+04 -0.14692290056E+04  0.23195282151E+04  0.00000000000E+00 0. -1.
<mgrwt>
<rscale>  0 0.38864788E+04</rscale>
<asrwt>0</asrwt>
<pdfrwt beam="1">  1        2 0.42199922E+00 0.38864788E+04</pdfrwt>
<pdfrwt beam="2">  1       -2 0.21179429E+00 0.38864788E+04</pdfrwt>
<totfact> 0.22213558E-01</totfact>
</mgrwt>
</event>
<event>
 6    1  0.1885829E-005  0.1266899E+04  0.7818608E-02  0.9056234E-01
          2   -1    0    0  501    0  0.00000000000E+00  0.00000000000E+00  0.12259150427E+04  0.12259150427E+04  0.00000000000E+00 0. -1.
         -2   -1    0    0    0  501 -0.00000000000E+00 -0.00000000000E+00 -0.32731340469E+03  0.32731340469E+03  0.00000000000E+00 0.  1.
         23    2    1    2    0    0 -0.52427492670E+03  0.10487025094E+02  0.23375843247E+02  0.53293713199E+03  0.92202929210E+02 0.  0.
         11    1    3    3    0    0 -0.17702001329E+03  0.42987351815E+02  0.26942583243E+02  0.18414641000E+03  0.00000000000E+00 0. -1.
        -11    1    3    3    0    0 -0.34725491340E+03 -0.32500326721E+02 -0.35667399961E+01  0.34879072200E+03  0.00000000000E+00 0.  1.
         22    1    1    2    0    0  0.52427492670E+03 -0.10487025094E+02  0.87522579472E+03  0.10202913154E+04  0.00000000000E+00 0. -1.
<mgrwt>
<rscale>  0 0.12668992E+04</rscale>
<asrwt>0</asrwt>
<pdfrwt beam="1">  1        2 0.18860231E+00 0.12668992E+04</pdfrwt>
<pdfrwt beam="2">  1       -2 0.50355909E-01 0.12668992E+04</pdfrwt>
<totfact> 0.66956675E+01</totfact>
</mgrwt>
</event>
<event>
 6    1  0.1885829E-005  0.2920268E+04  0.7818608E-02  0.8266873E-01
          2   -1    0    0  501    0  0.00000000000E+00  0.00000000000E+00  0.17434404949E+04  0.17434404949E+04  0.00000000000E+00 0. -1.
         -2   -1    0    0    0  501 -0.00000000000E+00 -0.00000000000E+00 -0.12228644490E+04  0.12228644490E+04  0.00000000000E+00 0.  1.
         23    2    1    2    0    0 -0.12348562443E+04 -0.41765349165E+03 -0.40444850018E+03  0.13678760922E+04  0.90565066419E+02 0.  0.
         13    1    3    3    0    0 -0.92793365038E+03 -0.33751312137E+03 -0.33900464375E+03  0.10439828136E+04  0.00000000000E+00 0. -1.
        -13    1    3    3    0    0 -0.30692259389E+03 -0.80140370277E+02 -0.65443856433E+02  0.32389327861E+03  0.00000000000E+00 0.  1.
         22    1    1    2    0    0  0.12348562443E+04  0.41765349165E+03  0.92502454613E+03  0.15984288517E+04  0.00000000000E+00 0. -1.
<mgrwt>
<rscale>  0 0.29202681E+04</rscale>
<asrwt>0</asrwt>
<pdfrwt beam="1">  1        2 0.26822161E+00 0.29202681E+04</pdfrwt>
<pdfrwt beam="2">  1       -2 0.18813299E+00 0.29202681E+04</pdfrwt>
<totfact> 0.12754161E+00</totfact>
</mgrwt>
</event>
<event>
 6    1  0.1885829E-005  0.1190515E+04  0.7818608E-02  0.9121200E-01
         -1   -1    0    0    0  501 -0.00000000000E+00  0.00000000000E+00  0.38894765793E+03  0.38894765793E+03  0.00000000000E+00 0.  1.
          1   -1    0    0  501    0  0.00000000000E+00 -0.00000000000E+00 -0.91099988141E+03  0.91099988141E+03  0.00000000000E+00 0. -1.
         23    2    1    2    0    0 -0.16561749938E+03 -0.69896309142E+02 -0.87831372497E+03  0.90090254491E+03  0.88745398811E+02 0.  0.
         11    1    3    3    0    0 -0.12561340142E+03 -0.95209028715E+01 -0.61754775205E+03  0.63026549982E+03  0.00000000000E+00 0.  1.
        -11    1    3    3    0    0 -0.40004097963E+02 -0.60375406270E+02 -0.26076597292E+03  0.27063704508E+03  0.00000000000E+00 0. -1.
         22    1    1    2    0    0  0.16561749938E+03  0.69896309142E+02  0.35626150149E+03  0.39904499443E+03  0.00000000000E+00 0.  1.
<mgrwt>
<rscale>  0 0.11905146E+04</rscale>
<asrwt>0</asrwt>
<pdfrwt beam="1">  1        1 0.14015383E+00 0.11905146E+04</pdfrwt>
<pdfrwt beam="2">  1       -1 0.59838102E-01 0.11905146E+04</pdfrwt>
<totfact> 0.49984745E+01</totfact>
</mgrwt>
</event>
<event>
 6    1  0.1885829E-005  0.1610746E+04  0.7818608E-02  0.8813973E-01
         -2   -1    0    0    0  501 -0.00000000000E+00  0.00000000000E+00  0.28701520010E+03  0.28701520010E+03  0.00000000000E+00 0.  1.
          2   -1    0    0  501    0  0.00000000000E+00 -0.00000000000E+00 -0.22599001788E+04  0.22599001788E+04  0.00000000000E+00 0. -1.
         23    2    1    2    0    0 -0.48756446577E+03 -0.17614573065E+03 -0.19585055989E+04  0.20283084051E+04  0.97695335376E+02 0.  0.
         11    1    3    3    0    0 -0.32345361627E+03 -0.14409060668E+03 -0.11768173930E+04  0.12289359305E+04  0.00000000000E+00 0. -1.
        -11    1    3    3    0    0 -0.16411084950E+03 -0.32055123973E+02 -0.78168820591E+03  0.79937247460E+03  0.00000000000E+00 0.  1.
         22    1    1    2    0    0  0.48756446577E+03  0.17614573065E+03 -0.14379379799E+02  0.51860697380E+03  0.00000000000E+00 0.  1.
<mgrwt>
<rscale>  0 0.16107460E+04</rscale>
<asrwt>0</asrwt>
<pdfrwt beam="1">  1        2 0.34767695E+00 0.16107460E+04</pdfrwt>
<pdfrwt beam="2">  1       -2 0.44156184E-01 0.16107460E+04</pdfrwt>
<totfact> 0.22284035E+01</totfact>
</mgrwt>
</event>
<event>
 6    1  0.1885829E-005  0.2161295E+04  0.7818608E-02  0.8534713E-01
          2   -1    0    0  501    0  0.00000000000E+00  0.00000000000E+00  0.46376655814E+04  0.46376655814E+04  0.00000000000E+00 0. -1.
         -2   -1    0    0    0  501 -0.00000000000E+00 -0.00000000000E+00 -0.25180750091E+03  0.25180750091E+03  0.00000000000E+00 0.  1.
         23    2    1    2    0    0  0.49712307238E+03 -0.88866482822E+03  0.13909251066E+04  0.17261710032E+04  0.90206174277E+02 0.  0.
         11    1    3    3    0    0  0.43380695423E+03 -0.82505106923E+03  0.12555889227E+04  0.15637778881E+04  0.00000000000E+00 0. -1.
        -11    1    3    3    0    0  0.63316118155E+02 -0.63613758987E+02  0.13533618390E+03  0.16239311507E+03  0.00000000000E+00 0.  1.
         22    1    1    2    0    0 -0.49712307238E+03  0.88866482822E+03  0.29949329739E+04  0.31633020792E+04  0.00000000000E+00 0. -1.
<mgrwt>
<rscale>  0 0.21612950E+04</rscale>
<asrwt>0</asrwt>
<pdfrwt beam="1">  1        2 0.71348695E+00 0.21612950E+04</pdfrwt>
<pdfrwt beam="2">  1       -2 0.38739619E-01 0.21612950E+04</pdfrwt>
<totfact> 0.52315476E-01</totfact>
</mgrwt>
</event>
<event>
 6    1  0.1885829E-005  0.2367828E+04  0.7818608E-02  0.8451647E-01
          2   -1    0    0  501    0  0.00000000000E+00  0.00000000000E+00  0.18507857980E+04  0.18507857980E+04  0.00000000000E+00 0. -1.
         -2   -1    0    0    0  501 -0.00000000000E+00 -0.00000000000E+00 -0.75732823368E+03  0.75732823368E+03  0.00000000000E+00 0.  1.
         23    2    1    2    0    0  0.72612698553E+02 -0.84741622263E+03 -0.35669030480E+03  0.92694904850E+03  0.92842375047E+02 0.  0.
         11    1    3    3    0    0  0.89977688570E+02 -0.67038709356E+03 -0.30283402629E+03  0.74109600399E+03  0.00000000000E+00 0.  1.
        -11    1    3    3    0    0 -0.17364990017E+02 -0.17702912907E+03 -0.53856278512E+02  0.18585304450E+03  0.00000000000E+00 0. -1.
         22    1    1    2    0    0 -0.72612698553E+02  0.84741622263E+03  0.14501478691E+04  0.16811649832E+04  0.00000000000E+00 0. -1.
<mgrwt>
<rscale>  0 0.23678280E+04</rscale>
<asrwt>0</asrwt>
<pdfrwt beam="1">  1        2 0.28473628E+00 0.23678280E+04</pdfrwt>
<pdfrwt beam="2">  1       -2 0.11651204E+00 0.23678280E+04</pdfrwt>
<totfact> 0.41639668E+00</totfact>
</mgrwt>
</event>
<event>
 6    1  0.1885829E-005  0.1504128E+04  0.7818608E-02  0.8881712E-01
          2   -1    0    0  501    0  0.00000000000E+00  0.00000000000E+00  0.17164249396E+04  0.17164249396E+04  0.00000000000E+00 0. -1.
         -2   -1    0    0    0  501 -0.00000000000E+00 -0.00000000000E+00 -0.32952240346E+03  0.32952240346E+03  0.00000000000E+00 0.  1.
         23    2    1    2    0    0  0.49823130326E+03  0.18707971302E+03 -0.21589808132E+02  0.54026346707E+03  0.90472335305E+02 0.  0.
         11    1    3    3    0    0  0.25475706096E+03  0.14375842698E+03 -0.13648250137E+02  0.29283770278E+03  0.00000000000E+00 0. -1.
        -11    1    3    3    0    0  0.24347424231E+03  0.43321286039E+02 -0.79415579951E+01  0.24742576429E+03  0.00000000000E+00 0.  1.
         22    1    1    2    0    0 -0.49823130326E+03 -0.18707971302E+03  0.14084923443E+04  0.15056838760E+04  0.00000000000E+00 0. -1.
<mgrwt>
<rscale>  0 0.15041283E+04</rscale>
<asrwt>0</asrwt>
<pdfrwt beam="1">  1        2 0.26406537E+00 0.15041283E+04</pdfrwt>
<pdfrwt beam="2">  1       -2 0.50695756E-01 0.15041283E+04</pdfrwt>
<totfact> 0.34117126E+01</totfact>
</mgrwt>
</event>
<event>
 6    1  0.1885829E-005  0.2638048E+04  0.7818608E-02  0.8355391E-01
          2   -1    0    0  501    0  0.00000000000E+00  0.00000000000E+00  0.34538603868E+04  0.34538603868E+04  0.00000000000E+00 0. -1.
         -2   -1    0    0    0  501 -0.00000000000E+00 -0.00000000000E+00 -0.50373328559E+03  0.50373328559E+03  0.00000000000E+00 0.  1.
         23    2    1    2    0    0  0.11525761846E+04  0.14277822950E+03  0.24100176340E+04  0.26767596782E+04  0.89665457179E+02 0.  0.
         13    1    3    3    0    0  0.79351441531E+03  0.10255810909E+03  0.15626762590E+04  0.17556025699E+04  0.00000000000E+00 0.  1.
        -13    1    3    3    0    0  0.35906176930E+03  0.40220120411E+02  0.84734137505E+03  0.92115710828E+03  0.00000000000E+00 0. -1.
         22    1    1    2    0    0 -0.11525761846E+04 -0.14277822950E+03  0.54010946715E+03  0.12808339942E+04  0.00000000000E+00 0.  1.
<mgrwt>
<rscale>  0 0.26380481E+04</rscale>
<asrwt>0</asrwt>
<pdfrwt beam="1">  1        2 0.53136312E+00 0.26380481E+04</pdfrwt>
<pdfrwt beam="2">  1       -2 0.77497431E-01 0.26380481E+04</pdfrwt>
<totfact> 0.11463778E+00</totfact>
</mgrwt>
</event>
<event>
 6    1  0.1885829E-005  0.2254417E+04  0.7818608E-02  0.8496114E-01
         -2   -1    0    0    0  501 -0.00000000000E+00  0.00000000000E+00  0.53872328533E+03  0.53872328533E+03  0.00000000000E+00 0.  1.
          2   -1    0    0  501    0  0.00000000000E+00 -0.00000000000E+00 -0.23585381618E+04  0.23585381618E+04  0.00000000000E+00 0. -1.
         23    2    1    2    0    0 -0.31207964527E+03 -0.38885312606E+03 -0.22079820298E+04  0.22653799728E+04  0.90340016583E+02 0.  0.
         11    1    3    3    0    0 -0.71097476023E+02 -0.58977538400E+02 -0.55687547287E+03  0.56448515784E+03  0.00000000000E+00 0.  1.
        -11    1    3    3    0    0 -0.24098216925E+03 -0.32987558766E+03 -0.16511065569E+04  0.17008948150E+04  0.00000000000E+00 0. -1.
         22    1    1    2    0    0  0.31207964527E+03  0.38885312606E+03  0.38816715335E+03  0.63188147431E+03  0.00000000000E+00 0.  1.
<mgrwt>
<rscale>  0 0.22544174E+04</rscale>
<asrwt>0</asrwt>
<pdfrwt beam="1">  1        2 0.36285203E+00 0.22544174E+04</pdfrwt>
<pdfrwt beam="2">  1       -2 0.82880505E-01 0.22544174E+04</pdfrwt>
<totfact> 0.48752590E+00</totfact>
</mgrwt>
</event>
<event>
 6    1  0.1885829E-005  0.7544062E+03  0.7818608E-02  0.9628463E-01
          2   -1    0    0  501    0  0.00000000000E+00  0.00000000000E+00  0.61397261947E+03  0.61397261947E+03  0.00000000000E+00 0. -1.
         -2   -1    0    0    0  501 -0.00000000000E+00 -0.00000000000E+00 -0.23174025887E+03  0.23174025887E+03  0.00000000000E+00 0.  1.
         23    2    1    2    0    0 -0.31632155281E+03 -0.13886408026E+03  0.39974315829E+02  0.35941757015E+03  0.90777124038E+02 0.  0.
         11    1    3    3    0    0 -0.21435088534E+03 -0.10229895241E+03 -0.14911401676E+02  0.23797841837E+03  0.00000000000E+00 0.  1.
        -11    1    3    3    0    0 -0.10197066747E+03 -0.36565127845E+02  0.54885717505E+02  0.12143915178E+03  0.00000000000E+00 0. -1.
         22    1    1    2    0    0  0.31632155281E+03  0.13886408026E+03  0.34225804476E+03  0.48629530819E+03  0.00000000000E+00 0. -1.
<mgrwt>
<rscale>  0 0.75440619E+03</rscale>
<asrwt>0</asrwt>
<pdfrwt beam="1">  1        2 0.94457326E-01 0.75440619E+03</pdfrwt>
<pdfrwt beam="2">  1       -2 0.35652348E-01 0.75440619E+03</pdfrwt>
<totfact> 0.35886794E+02</totfact>
</mgrwt>
</event>
<event>
 6    1  0.1885829E-005  0.2938076E+04  0.7818608E-02  0.8261638E-01
         -2   -1    0    0    0  501 -0.00000000000E+00  0.00000000000E+00  0.67297066084E+03  0.67297066084E+03  0.00000000000E+00 0.  1.
          2   -1    0    0  501    0  0.00000000000E+00 -0.00000000000E+00 -0.32067862864E+04  0.32067862864E+04  0.00000000000E+00 0. -1.
         23    2    1    2    0    0 -0.94063419176E+03  0.82180735547E+03 -0.22856566752E+04  0.26062802584E+04  0.91161047777E+02 0.  0.
         13    1    3    3    0    0 -0.34393016758E+03  0.26408114601E+03 -0.86374677743E+03  0.96648088825E+03  0.00000000000E+00 0. -1.
        -13    1    3    3    0    0 -0.59670402419E+03  0.55772620946E+03 -0.14219098977E+04  0.16397993702E+04  0.00000000000E+00 0.  1.
         22    1    1    2    0    0  0.94063419176E+03 -0.82180735547E+03 -0.24815895039E+03  0.12734766888E+04  0.00000000000E+00 0.  1.
<mgrwt>
<rscale>  0 0.29380763E+04</rscale>
<asrwt>0</asrwt>
<pdfrwt beam="1">  1        2 0.49335174E+00 0.29380763E+04</pdfrwt>
<pdfrwt beam="2">  1       -2 0.10353395E+00 0.29380763E+04</pdfrwt>
<totfact> 0.83912831E-01</totfact>
</mgrwt>
</event>
<event>
 6    1  0.1885829E-005  0.1530732E+04  0.7818608E-02  0.8864270E-01
          2   -1    0    0  501    0  0.00000000000E+00  0.00000000000E+00  0.17389110209E+04  0.17389110209E+04  0.00000000000E+00 0.  1.
         -2   -1    0    0    0  501 -0.00000000000E+00 -0.00000000000E+00 -0.33686905697E+03  0.33686905697E+03  0.00000000000E+00 0. -1.
         23    2    1    2    0    0 -0.60900786108E+03 -0.52530798942E+02  0.13220197695E+04  0.14592951946E+04  0.90311320096E+02 0.  0.
         11    1    3    3    0    0 -0.21583589004E+03 -0.56499063380E+02  0.53005093920E+03  0.57509240452E+03  0.00000000000E+00 0.  1.
        -11    1    3    3    0    0 -0.39317197104E+03  0.39682644381E+01  0.79196883027E+03  0.88420279012E+03  0.00000000000E+00 0. -1.
         22    1    1    2    0    0  0.60900786108E+03  0.52530798942E+02  0.80022194510E+02  0.61648488327E+03  0.00000000000E+00 0. -1.
<mgrwt>
<rscale>  0 0.15307323E+04</rscale>
<asrwt>0</asrwt>
<pdfrwt beam="1">  1        2 0.26752477E+00 0.15307323E+04</pdfrwt>
<pdfrwt beam="2">  1       -2 0.51826010E-01 0.15307323E+04</pdfrwt>
<totfact> 0.31618763E+01</totfact>
</mgrwt>
</event>
<event>
 6    1  0.1885829E-005  0.2508297E+04  0.7818608E-02  0.8400036E-01
         -2   -1    0    0    0  501 -0.00000000000E+00  0.00000000000E+00  0.61503265440E+03  0.61503265440E+03  0.00000000000E+00 0.  1.
          2   -1    0    0  501    0  0.00000000000E+00 -0.00000000000E+00 -0.25574061062E+04  0.25574061062E+04  0.00000000000E+00 0. -1.
         23    2    1    2    0    0 -0.64278339179E+03  0.35728180369E+03 -0.22547889844E+04  0.23734242169E+04  0.90820554505E+02 0.  0.
         13    1    3    3    0    0 -0.33086381017E+03  0.20016867652E+03 -0.13219280535E+04  0.13773278980E+04  0.00000000000E+00 0.  1.
        -13    1    3    3    0    0 -0.31191958162E+03  0.15711312718E+03 -0.93286093090E+03  0.99609631890E+03  0.00000000000E+00 0. -1.
         22    1    1    2    0    0  0.64278339179E+03 -0.35728180369E+03  0.31241553262E+03  0.79901454369E+03  0.00000000000E+00 0.  1.
<mgrwt>
<rscale>  0 0.25082968E+04</rscale>
<asrwt>0</asrwt>
<pdfrwt beam="1">  1        2 0.39344710E+00 0.25082968E+04</pdfrwt>
<pdfrwt beam="2">  1       -2 0.94620406E-01 0.25082968E+04</pdfrwt>
<totfact> 0.27021902E+00</totfact>
</mgrwt>
</event>
<event>
 6    1  0.1885829E-005  0.3805952E+04  0.7818608E-02  0.8044879E-01
          2   -1    0    0  501    0  0.00000000000E+00  0.00000000000E+00  0.24073768166E+04  0.24073768166E+04  0.00000000000E+00 0. -1.
         -2   -1    0    0    0  501 -0.00000000000E+00 -0.00000000000E+00 -0.15042585972E+04  0.15042585972E+04  0.00000000000E+00 0.  1.
         23    2    1    2    0    0  0.12190735264E+04 -0.82196882132E+03 -0.78802097200E+03  0.16707148952E+04  0.92402396024E+02 0.  0.
         13    1    3    3    0    0  0.50564466732E+03 -0.29235011471E+03 -0.33587019764E+03  0.67376101759E+03  0.00000000000E+00 0. -1.
        -13    1    3    3    0    0  0.71342885905E+03 -0.52961870660E+03 -0.45215077436E+03  0.99695387760E+03  0.00000000000E+00 0.  1.
         22    1    1    2    0    0 -0.12190735264E+04  0.82196882132E+03  0.16911391914E+04  0.22409205186E+04  0.00000000000E+00 0. -1.
<mgrwt>
<rscale>  0 0.38059518E+04</rscale>
<asrwt>0</asrwt>
<pdfrwt beam="1">  1        2 0.37036566E+00 0.38059518E+04</pdfrwt>
<pdfrwt beam="2">  1       -2 0.23142440E+00 0.38059518E+04</pdfrwt>
<totfact> 0.26428557E-01</totfact>
</mgrwt>
</event>
<event>
 6    1  0.1885829E-005  0.1890326E+04  0.7818608E-02  0.8659687E-01
          2   -1    0    0  501    0  0.00000000000E+00  0.00000000000E+00  0.12952915658E+04  0.12952915658E+04  0.00000000000E+00 0. -1.
         -2   -1    0    0    0  501 -0.00000000000E+00 -0.00000000000E+00 -0.68967727046E+03  0.68967727046E+03  0.00000000000E+00 0.  1.
         23    2    1    2    0    0  0.52964192429E+03  0.48174807740E+03 -0.33970321670E+03  0.79912442124E+03  0.10295526762E+03 0.  0.
         11    1    3    3    0    0  0.42452558408E+03  0.34166170318E+03 -0.22376904273E+03  0.58909020994E+03  0.00000000000E+00 0.  1.
        -11    1    3    3    0    0  0.10511634021E+03  0.14008637422E+03 -0.11593417397E+03  0.21003421130E+03  0.00000000000E+00 0. -1.
         22    1    1    2    0    0 -0.52964192429E+03 -0.48174807740E+03  0.94531751202E+03  0.11858444150E+04  0.00000000000E+00 0. -1.
<mgrwt>
<rscale>  0 0.18903261E+04</rscale>
<asrwt>0</asrwt>
<pdfrwt beam="1">  1        2 0.19927563E+00 0.18903261E+04</pdfrwt>
<pdfrwt beam="2">  1       -2 0.10610420E+00 0.18903261E+04</pdfrwt>
<totfact> 0.11179401E+01</totfact>
</mgrwt>
</event>
<event>
 6    1  0.1885829E-005  0.3309549E+04  0.7818608E-02  0.8160470E-01
          2   -1    0    0  501    0  0.00000000000E+00  0.00000000000E+00  0.14666532901E+04  0.14666532901E+04  0.00000000000E+00 0. -1.
         -2   -1    0    0    0  501 -0.00000000000E+00 -0.00000000000E+00 -0.18670256052E+04  0.18670256052E+04  0.00000000000E+00 0.  1.
         23    2    1    2    0    0  0.69902241791E+03 -0.21284430819E+03 -0.16943126024E+04  0.18476719951E+04  0.96237033624E+02 0.  0.
         11    1    3    3    0    0  0.56371838201E+03 -0.19777161096E+03 -0.13049800876E+04  0.14352229978E+04  0.00000000000E+00 0. -1.
        -11    1    3    3    0    0  0.13530403591E+03 -0.15072697228E+02 -0.38933251473E+03  0.41244899728E+03  0.00000000000E+00 0.  1.
         22    1    1    2    0    0 -0.69902241791E+03  0.21284430819E+03  0.12939402872E+04  0.14860069001E+04  0.00000000000E+00 0. -1.
<mgrwt>
<rscale>  0 0.33095494E+04</rscale>
<asrwt>0</asrwt>
<pdfrwt beam="1">  1        2 0.22563897E+00 0.33095494E+04</pdfrwt>
<pdfrwt beam="2">  1       -2 0.28723471E+00 0.33095494E+04</pdfrwt>
<totfact> 0.42088471E-01</totfact>
</mgrwt>
</event>
<event>
 6    1  0.1885829E-005  0.3138311E+04  0.7818608E-02  0.8205302E-01
          2   -1    0    0  501    0  0.00000000000E+00  0.00000000000E+00  0.18030865880E+04  0.18030865880E+04  0.00000000000E+00 0. -1.
         -2   -1    0    0    0  501 -0.00000000000E+00 -0.00000000000E+00 -0.13655741260E+04  0.13655741260E+04  0.00000000000E+00 0.  1.
         23    2    1    2    0    0 -0.91516948581E+03 -0.36550768027E+03  0.14502083687E+04  0.17556200028E+04  0.89253735618E+02 0.  0.
         13    1    3    3    0    0 -0.65570423155E+03 -0.21962564544E+03  0.99309587208E+03  0.12101334119E+04  0.00000000000E+00 0. -1.
        -13    1    3    3    0    0 -0.25946525426E+03 -0.14588203482E+03  0.45711249664E+03  0.54548659088E+03  0.00000000000E+00 0.  1.
         22    1    1    2    0    0  0.91516948581E+03  0.36550768027E+03 -0.10126959067E+04  0.14130407112E+04  0.00000000000E+00 0.  1.
<mgrwt>
<rscale>  0 0.31383106E+04</rscale>
<asrwt>0</asrwt>
<pdfrwt beam="1">  1        2 0.27739794E+00 0.31383106E+04</pdfrwt>
<pdfrwt beam="2">  1       -2 0.21008833E+00 0.31383106E+04</pdfrwt>
<totfact> 0.83195588E-01</totfact>
</mgrwt>
</event>
<event>
 6    1  0.1885829E-005  0.2614088E+04  0.7818608E-02  0.8363432E-01
         -1   -1    0    0    0  501 -0.00000000000E+00  0.00000000000E+00  0.59156947701E+03  0.59156947701E+03  0.00000000000E+00 0.  1.
          1   -1    0    0  501    0  0.00000000000E+00 -0.00000000000E+00 -0.28878499473E+04  0.28878499473E+04  0.00000000000E+00 0. -1.
         23    2    1    2    0    0  0.12679414083E+04  0.25540142737E+03 -0.91388863095E+03  0.15862970032E+04  0.90776916553E+02 0.  0.
         11    1    3    3    0    0  0.26432206470E+03  0.91035297437E+02 -0.20223951963E+03  0.34504260979E+03  0.00000000000E+00 0. -1.
        -11    1    3    3    0    0  0.10036193436E+04  0.16436612993E+03 -0.71164911132E+03  0.12412543934E+04  0.00000000000E+00 0.  1.
         22    1    1    2    0    0 -0.12679414083E+04 -0.25540142737E+03 -0.13823918394E+04  0.18931224212E+04  0.00000000000E+00 0. -1.
<mgrwt>
<rscale>  0 0.26140879E+04</rscale>
<asrwt>0</asrwt>
<pdfrwt beam="1">  1        1 0.44428461E+00 0.26140879E+04</pdfrwt>
<pdfrwt beam="2">  1       -1 0.91010688E-01 0.26140879E+04</pdfrwt>
<totfact> 0.74702037E-01</totfact>
</mgrwt>
</event>
<event>
 6    1  0.1885829E-005  0.2579048E+04  0.7818608E-02  0.8375353E-01
         -2   -1    0    0    0  501 -0.00000000000E+00  0.00000000000E+00  0.20182210162E+04  0.20182210162E+04  0.00000000000E+00 0.  1.
          2   -1    0    0  501    0  0.00000000000E+00 -0.00000000000E+00 -0.82392962598E+03  0.82392962598E+03  0.00000000000E+00 0. -1.
         23    2    1    2    0    0  0.42764750163E+03 -0.25387525216E+03  0.19070609163E+04  0.19730272756E+04  0.92845368645E+02 0.  0.
         11    1    3    3    0    0  0.22500496323E+02 -0.26485975600E+02  0.70329250029E+02  0.78447324032E+02  0.00000000000E+00 0. -1.
        -11    1    3    3    0    0  0.40514700531E+03 -0.22738927656E+03  0.18367316662E+04  0.18945799515E+04  0.00000000000E+00 0.  1.
         22    1    1    2    0    0 -0.42764750163E+03  0.25387525216E+03 -0.71276952599E+03  0.86912336667E+03  0.00000000000E+00 0. -1.
<mgrwt>
<rscale>  0 0.25790480E+04</rscale>
<asrwt>0</asrwt>
<pdfrwt beam="1">  1        2 0.12675840E+00 0.25790480E+04</pdfrwt>
<pdfrwt beam="2">  1       -2 0.31049554E+00 0.25790480E+04</pdfrwt>
<totfact> 0.80409795E-01</totfact>
</mgrwt>
</event>
<event>
 6    1  0.1885829E-005  0.1371678E+04  0.7818608E-02  0.8974579E-01
         -2   -1    0    0    0  501 -0.00000000000E+00  0.00000000000E+00  0.17638582728E+03  0.17638582728E+03  0.00000000000E+00 0. -1.
          2   -1    0    0  501    0  0.00000000000E+00 -0.00000000000E+00 -0.26667383105E+04  0.26667383105E+04  0.00000000000E+00 0.  1.
         23    2    1    2    0    0 -0.35015849667E+03  0.58434609616E+03 -0.13503853436E+04  0.15151194645E+04  0.89303317790E+02 0.  0.
         13    1    3    3    0    0 -0.29229413596E+03  0.48931693441E+03 -0.11954465853E+04  0.13243713461E+04  0.00000000000E+00 0. -1.
        -13    1    3    3    0    0 -0.57864360710E+02  0.95029161750E+02 -0.15493875832E+03  0.19074811835E+03  0.00000000000E+00 0.  1.
         22    1    1    2    0    0  0.35015849667E+03 -0.58434609616E+03 -0.11399671396E+04  0.13280046733E+04  0.00000000000E+00 0. -1.
<mgrwt>
<rscale>  0 0.13716776E+04</rscale>
<asrwt>0</asrwt>
<pdfrwt beam="1">  1        2 0.41026743E+00 0.13716776E+04</pdfrwt>
<pdfrwt beam="2">  1       -2 0.27136281E-01 0.13716776E+04</pdfrwt>
<totfact> 0.33664343E+01</totfact>
</mgrwt>
</event>
<event>
 6    1  0.2933295E-005  0.3848672E+04  0.7818608E-02  0.8035790E-01
         -2   -1    0    0    0  501 -0.00000000000E+00  0.00000000000E+00  0.20379043368E+04  0.20379043368E+04  0.00000000000E+00 0.  1.
          2   -1    0    0  501    0  0.00000000000E+00 -0.00000000000E+00 -0.18170969240E+04  0.18170969240E+04  0.00000000000E+00 0. -1.
         23    2    1    2    0    0  0.56871199134E+02  0.52813978677E+03 -0.17409249198E+04  0.18226234140E+04  0.94713067125E+02 0.  0.
         13    1    3    3    0    0  0.20748514785E+02  0.34702628101E+03 -0.98795891013E+03  0.10473397484E+04  0.00000000000E+00 0. -1.
        -13    1    3    3    0    0  0.36122684350E+02  0.18111350576E+03 -0.75296600968E+03  0.77528366553E+03  0.00000000000E+00 0.  1.
         22    1    1    2    0    0 -0.56871199134E+02 -0.52813978677E+03  0.19617323326E+04  0.20323778468E+04  0.00000000000E+00 0.  1.
<mgrwt>
<rscale>  0 0.38486723E+04</rscale>
<asrwt>0</asrwt>
<pdfrwt beam="1">  1        2 0.27955337E+00 0.38486723E+04</pdfrwt>
<pdfrwt beam="2">  1       -2 0.31352374E+00 0.38486723E+04</pdfrwt>
<totfact> 0.17697686E-01</totfact>
</mgrwt>
</event>
<event>
 6    1  0.1885829E-005  0.2285812E+04  0.7818608E-02  0.8483536E-01
          2   -1    0    0  501    0  0.00000000000E+00  0.00000000000E+00  0.22735478678E+04  0.22735478678E+04  0.00000000000E+00 0. -1.
         -2   -1    0    0    0  501 -0.00000000000E+00 -0.00000000000E+00 -0.57453546048E+03  0.57453546048E+03  0.00000000000E+00 0.  1.
         23    2    1    2    0    0  0.40003259484E+02 -0.96026887183E+03  0.16172629507E+04  0.18835111222E+04  0.91422802588E+02 0.  0.
         13    1    3    3    0    0 -0.98659983128E+01 -0.27911467549E+03  0.54093277914E+03  0.60877796571E+03  0.00000000000E+00 0. -1.
        -13    1    3    3    0    0  0.49869257797E+02 -0.68115419635E+03  0.10763301716E+04  0.12747331565E+04  0.00000000000E+00 0.  1.
         22    1    1    2    0    0 -0.40003259484E+02  0.96026887183E+03  0.81749456578E+02  0.96457220602E+03  0.00000000000E+00 0.  1.
<mgrwt>
<rscale>  0 0.22858118E+04</rscale>
<asrwt>0</asrwt>
<pdfrwt beam="1">  1        2 0.34977659E+00 0.22858118E+04</pdfrwt>
<pdfrwt beam="2">  1       -2 0.88390071E-01 0.22858118E+04</pdfrwt>
<totfact> 0.46922085E+00</totfact>
</mgrwt>
</event>
<event>
 6    1  0.1885829E-005  0.2374027E+04  0.7818608E-02  0.8449292E-01
          2   -1    0    0  501    0  0.00000000000E+00  0.00000000000E+00  0.34590237914E+04  0.34590237914E+04  0.00000000000E+00 0. -1.
         -2   -1    0    0    0  501 -0.00000000000E+00 -0.00000000000E+00 -0.40734051548E+03  0.40734051548E+03  0.00000000000E+00 0.  1.
         23    2    1    2    0    0 -0.75605832978E+03  0.74015986867E+03  0.23980705596E+04  0.26227122606E+04  0.91740744422E+02 0.  0.
         11    1    3    3    0    0 -0.51064585809E+03  0.55761230181E+03  0.16955396643E+04  0.18564873888E+04  0.00000000000E+00 0.  1.
        -11    1    3    3    0    0 -0.24541247169E+03  0.18254756686E+03  0.70253089521E+03  0.76622487179E+03  0.00000000000E+00 0. -1.
         22    1    1    2    0    0  0.75605832978E+03 -0.74015986867E+03  0.65361271639E+03  0.12436520463E+04  0.00000000000E+00 0.  1.
<mgrwt>
<rscale>  0 0.23740266E+04</rscale>
<asrwt>0</asrwt>
<pdfrwt beam="1">  1        2 0.53215749E+00 0.23740266E+04</pdfrwt>
<pdfrwt beam="2">  1       -2 0.62667774E-01 0.23740266E+04</pdfrwt>
<totfact> 0.18509912E+00</totfact>
</mgrwt>
</event>
<event>
 6    1  0.1885829E-005  0.3405567E+04  0.7818608E-02  0.8136541E-01
         -1   -1    0    0    0  501 -0.00000000000E+00  0.00000000000E+00  0.16991248832E+04  0.16991248832E+04  0.00000000000E+00 0.  1.
          1   -1    0    0  501    0  0.00000000000E+00 -0.00000000000E+00 -0.17064502868E+04  0.17064502868E+04  0.00000000000E+00 0. -1.
         23    2    1    2    0    0 -0.12707146879E+04 -0.83321547220E+02  0.11249080294E+04  0.17015766826E+04  0.91032048961E+02 0.  0.
         13    1    3    3    0    0 -0.67787921876E+03 -0.74704606319E+01  0.56246756207E+03  0.88087785838E+03  0.00000000000E+00 0. -1.
        -13    1    3    3    0    0 -0.59283546910E+03 -0.75851086588E+02  0.56244046730E+03  0.82069882418E+03  0.00000000000E+00 0.  1.
         22    1    1    2    0    0  0.12707146879E+04  0.83321547220E+02 -0.11322334330E+04  0.17039984874E+04  0.00000000000E+00 0. -1.
<mgrwt>
<rscale>  0 0.34055673E+04</rscale>
<asrwt>0</asrwt>
<pdfrwt beam="1">  1        1 0.26253081E+00 0.34055673E+04</pdfrwt>
<pdfrwt beam="2">  1       -1 0.26140383E+00 0.34055673E+04</pdfrwt>
<totfact> 0.22794481E-01</totfact>
</mgrwt>
</event>
<event>
 6    1  0.1885829E-005  0.3716148E+04  0.7818608E-02  0.8064393E-01
         -1   -1    0    0    0  501 -0.00000000000E+00  0.00000000000E+00  0.11008729764E+04  0.11008729764E+04  0.00000000000E+00 0.  1.
          1   -1    0    0  501    0  0.00000000000E+00 -0.00000000000E+00 -0.31360914473E+04  0.31360914473E+04  0.00000000000E+00 0. -1.
         23    2    1    2    0    0  0.94803983730E+03  0.12810045179E+03  0.79630543999E+03  0.12481993080E+04  0.93326844821E+02 0.  0.
         13    1    3    3    0    0  0.11616965915E+03  0.46028729728E+02  0.92726491713E+02  0.15560281467E+03  0.00000000000E+00 0. -1.
        -13    1    3    3    0    0  0.83187017815E+03  0.82071722064E+02  0.70357894827E+03  0.10925964934E+04  0.00000000000E+00 0.  1.
         22    1    1    2    0    0 -0.94803983730E+03 -0.12810045179E+03 -0.28315239108E+04  0.29887651157E+04  0.00000000000E+00 0. -1.
<mgrwt>
<rscale>  0 0.37161476E+04</rscale>
<asrwt>0</asrwt>
<pdfrwt beam="1">  1        1 0.48247560E+00 0.37161476E+04</pdfrwt>
<pdfrwt beam="2">  1       -1 0.16936508E+00 0.37161476E+04</pdfrwt>
<totfact> 0.94477683E-02</totfact>
</mgrwt>
</event>
<event>
 6    1  0.1885829E-005  0.1794968E+04  0.7818608E-02  0.8708980E-01
         -3   -1    0    0    0  501 -0.00000000000E+00  0.00000000000E+00  0.95081687120E+03  0.95081687120E+03  0.00000000000E+00 0.  1.
          3   -1    0    0  501    0  0.00000000000E+00 -0.00000000000E+00 -0.84714244615E+03  0.84714244615E+03  0.00000000000E+00 0. -1.
         23    2    1    2    0    0  0.36533012258E+03  0.16353522864E+03 -0.74994175306E+03  0.85516005504E+03  0.93146214501E+02 0.  0.
         11    1    3    3    0    0  0.32372981703E+03  0.10978984031E+03 -0.60030133879E+03  0.69080858479E+03  0.00000000000E+00 0.  1.
        -11    1    3    3    0    0  0.41600305551E+02  0.53745388327E+02 -0.14964041427E+03  0.16435147025E+03  0.00000000000E+00 0. -1.
         22    1    1    2    0    0 -0.36533012258E+03 -0.16353522864E+03  0.85361617811E+03  0.94279926231E+03  0.00000000000E+00 0.  1.
<mgrwt>
<rscale>  0 0.17949678E+04</rscale>
<asrwt>0</asrwt>
<pdfrwt beam="1">  1        3 0.13032961E+00 0.17949678E+04</pdfrwt>
<pdfrwt beam="2">  1       -3 0.14627952E+00 0.17949678E+04</pdfrwt>
<totfact> 0.39301645E-01</totfact>
</mgrwt>
</event>
<event>
 6    1  0.1885829E-005  0.1565215E+04  0.7818608E-02  0.8842208E-01
          2   -1    0    0  501    0  0.00000000000E+00  0.00000000000E+00  0.10531252651E+04  0.10531252651E+04  0.00000000000E+00 0.  1.
         -2   -1    0    0    0  501 -0.00000000000E+00 -0.00000000000E+00 -0.58157774793E+03  0.58157774793E+03  0.00000000000E+00 0. -1.
         23    2    1    2    0    0 -0.28718859121E+02 -0.77314136567E+03  0.13481364314E+03  0.79092457878E+03  0.93886243742E+02 0.  0.
         11    1    3    3    0    0  0.18510147277E+02 -0.50722915469E+03  0.11283807348E+03  0.51995814423E+03  0.00000000000E+00 0.  1.
        -11    1    3    3    0    0 -0.47229006398E+02 -0.26591221097E+03  0.21975569656E+02  0.27096643455E+03  0.00000000000E+00 0. -1.
         22    1    1    2    0    0  0.28718859121E+02  0.77314136567E+03  0.33673387400E+03  0.84377843423E+03  0.00000000000E+00 0. -1.
<mgrwt>
<rscale>  0 0.15652146E+04</rscale>
<asrwt>0</asrwt>
<pdfrwt beam="1">  1        2 0.16201927E+00 0.15652146E+04</pdfrwt>
<pdfrwt beam="2">  1       -2 0.89473499E-01 0.15652146E+04</pdfrwt>
<totfact> 0.24005503E+01</totfact>
</mgrwt>
</event>
<event>
 6    1  0.1885829E-005  0.3881671E+04  0.7818608E-02  0.8028852E-01
         -2   -1    0    0    0  501 -0.00000000000E+00  0.00000000000E+00  0.16022461528E+04  0.16022461528E+04  0.00000000000E+00 0.  1.
          2   -1    0    0  501    0  0.00000000000E+00 -0.00000000000E+00 -0.23509766639E+04  0.23509766639E+04  0.00000000000E+00 0. -1.
         23    2    1    2    0    0 -0.25716329932E+03  0.10611534964E+04 -0.20072089564E+04  0.22871052630E+04  0.98908968261E+02 0.  0.
         13    1    3    3    0    0 -0.22535290299E+03  0.85771850892E+03 -0.16975010051E+04  0.19151957168E+04  0.00000000000E+00 0.  1.
        -13    1    3    3    0    0 -0.31810396337E+02  0.20343498750E+03 -0.30970795131E+03  0.37190954620E+03  0.00000000000E+00 0. -1.
         22    1    1    2    0    0  0.25716329932E+03 -0.10611534964E+04  0.12584784453E+04  0.16661175537E+04  0.00000000000E+00 0.  1.
<mgrwt>
<rscale>  0 0.38816715E+04</rscale>
<asrwt>0</asrwt>
<pdfrwt beam="1">  1        2 0.36168872E+00 0.38816715E+04</pdfrwt>
<pdfrwt beam="2">  1       -2 0.24649941E+00 0.38816715E+04</pdfrwt>
<totfact> 0.22811087E-01</totfact>
</mgrwt>
</event>
<event>
 6    1  0.1885829E-005  0.5389708E+03  0.7818608E-02  0.1004079E+00
         -4   -1    0    0    0  501 -0.00000000000E+00  0.00000000000E+00  0.17475554474E+03  0.17475554474E+03  0.00000000000E+00 0.  1.
          4   -1    0    0  501    0  0.00000000000E+00 -0.00000000000E+00 -0.41556560107E+03  0.41556560107E+03  0.00000000000E+00 0. -1.
         23    2    1    2    0    0 -0.13579400716E+03  0.13177139516E+03  0.74096888483E+02  0.22293837967E+03  0.91692198605E+02 0.  0.
         11    1    3    3    0    0 -0.13406321620E+03  0.10907063645E+03  0.90298554064E+02  0.19499532954E+03  0.00000000000E+00 0. -1.
        -11    1    3    3    0    0 -0.17307909552E+01  0.22700758706E+02 -0.16201665581E+02  0.27943050134E+02  0.00000000000E+00 0.  1.
         22    1    1    2    0    0  0.13579400716E+03 -0.13177139516E+03 -0.31490694481E+03  0.36738276614E+03  0.00000000000E+00 0. -1.
<mgrwt>
<rscale>  0 0.53897085E+03</rscale>
<asrwt>0</asrwt>
<pdfrwt beam="1">  1        4 0.63933169E-01 0.53897085E+03</pdfrwt>
<pdfrwt beam="2">  1       -4 0.26885469E-01 0.53897085E+03</pdfrwt>
<totfact> 0.59403369E+01</totfact>
</mgrwt>
</event>
<event>
 6    1  0.1885829E-005  0.1649585E+04  0.7818608E-02  0.8790652E-01
         -2   -1    0    0    0  501 -0.00000000000E+00  0.00000000000E+00  0.45876946683E+03  0.45876946683E+03  0.00000000000E+00 0.  1.
          2   -1    0    0  501    0  0.00000000000E+00 -0.00000000000E+00 -0.14828412086E+04  0.14828412086E+04  0.00000000000E+00 0. -1.
         23    2    1    2    0    0  0.35287298722E+03  0.44086708611E+03 -0.12171207499E+04  0.13448267512E+04  0.91065571036E+02 0.  0.
         13    1    3    3    0    0  0.28211872924E+03  0.30438291639E+03 -0.94856118725E+03  0.10353783188E+04  0.00000000000E+00 0.  1.
        -13    1    3    3    0    0  0.70754257978E+02  0.13648416972E+03 -0.26855956262E+03  0.30944843235E+03  0.00000000000E+00 0. -1.
         22    1    1    2    0    0 -0.35287298722E+03 -0.44086708611E+03  0.19304900808E+03  0.59678392425E+03  0.00000000000E+00 0.  1.
<mgrwt>
<rscale>  0 0.16495845E+04</rscale>
<asrwt>0</asrwt>
<pdfrwt beam="1">  1        2 0.22812941E+00 0.16495845E+04</pdfrwt>
<pdfrwt beam="2">  1       -2 0.70579919E-01 0.16495845E+04</pdfrwt>
<totfact> 0.22637514E+01</totfact>
</mgrwt>
</event>
<event>
 6    1  0.1885829E-005  0.4699570E+04  0.7818608E-02  0.7876600E-01
         -2   -1    0    0    0  501 -0.00000000000E+00  0.00000000000E+00  0.46772348414E+04  0.46772348414E+04  0.00000000000E+00 0.  1.
          2   -1    0    0  501    0  0.00000000000E+00 -0.00000000000E+00 -0.11805030633E+04  0.11805030633E+04  0.00000000000E+00 0. -1.
         23    2    1    2    0    0 -0.21794118594E+04  0.46792399553E+03  0.26721067477E+04  0.34810184516E+04  0.92444961275E+02 0.  0.
         13    1    3    3    0    0 -0.10918477901E+04  0.18722584104E+03  0.13226596558E+04  0.17252865494E+04  0.00000000000E+00 0.  1.
        -13    1    3    3    0    0 -0.10875640693E+04  0.28069815449E+03  0.13494470918E+04  0.17557319022E+04  0.00000000000E+00 0. -1.
         22    1    1    2    0    0  0.21794118594E+04 -0.46792399553E+03  0.82462503042E+03  0.23767194532E+04  0.00000000000E+00 0. -1.
<mgrwt>
<rscale>  0 0.46995702E+04</rscale>
<asrwt>0</asrwt>
<pdfrwt beam="1">  1        2 0.18161586E+00 0.46995702E+04</pdfrwt>
<pdfrwt beam="2">  1       -2 0.71957458E+00 0.46995702E+04</pdfrwt>
<totfact> 0.28059369E-03</totfact>
</mgrwt>
</event>
<event>
 6    1  0.1885829E-005  0.3293424E+04  0.7818608E-02  0.8164571E-01
         -2   -1    0    0    0  501 -0.00000000000E+00  0.00000000000E+00  0.82598744028E+03  0.82598744028E+03  0.00000000000E+00 0.  1.
          2   -1    0    0  501    0  0.00000000000E+00 -0.00000000000E+00 -0.32829322046E+04  0.32829322046E+04  0.00000000000E+00 0. -1.
         23    2    1    2    0    0 -0.61609764721E+03  0.13403386104E+04 -0.21394782003E+04  0.25999899179E+04  0.80602123446E+02 0.  0.
         13    1    3    3    0    0 -0.44466772010E+03  0.10066246552E+04 -0.15396663358E+04  0.18925102386E+04  0.00000000000E+00 0.  1.
        -13    1    3    3    0    0 -0.17142992711E+03  0.33371395524E+03 -0.59981186454E+03  0.70747967934E+03  0.00000000000E+00 0. -1.
         22    1    1    2    0    0  0.61609764721E+03 -0.13403386104E+04 -0.31746656395E+03  0.15089297269E+04  0.00000000000E+00 0.  1.
<mgrwt>
<rscale>  0 0.32934242E+04</rscale>
<asrwt>0</asrwt>
<pdfrwt beam="1">  1        2 0.50506649E+00 0.32934242E+04</pdfrwt>
<pdfrwt beam="2">  1       -2 0.12707499E+00 0.32934242E+04</pdfrwt>
<totfact> 0.43905744E-01</totfact>
</mgrwt>
</event>
<event>
 6    1  0.1885829E-005  0.2757594E+04  0.7818608E-02  0.8316556E-01
         -2   -1    0    0    0  501 -0.00000000000E+00  0.00000000000E+00  0.96154346251E+03  0.96154346251E+03  0.00000000000E+00 0.  1.
          2   -1    0    0  501    0  0.00000000000E+00 -0.00000000000E+00 -0.19771138957E+04  0.19771138957E+04  0.00000000000E+00 0. -1.
         23    2    1    2    0    0 -0.52666360886E+03 -0.10081749458E+04  0.31971529261E+03  0.11845823177E+04  0.85006593504E+02 0.  0.
         11    1    3    3    0    0 -0.16327004076E+03 -0.36555951155E+03  0.14616036696E+03  0.42620853530E+03  0.00000000000E+00 0.  1.
        -11    1    3    3    0    0 -0.36339356810E+03 -0.64261543422E+03  0.17355492565E+03  0.75837378241E+03  0.00000000000E+00 0. -1.
         22    1    1    2    0    0  0.52666360886E+03  0.10081749458E+04 -0.13352857258E+04  0.17540750405E+04  0.00000000000E+00 0. -1.
<mgrwt>
<rscale>  0 0.27575938E+04</rscale>
<asrwt>0</asrwt>
<pdfrwt beam="1">  1        2 0.30417137E+00 0.27575938E+04</pdfrwt>
<pdfrwt beam="2">  1       -2 0.14792976E+00 0.27575938E+04</pdfrwt>
<totfact> 0.18675777E+00</totfact>
</mgrwt>
</event>
<event>
 6    1  0.1885829E-005  0.2735077E+04  0.7818608E-02  0.8323713E-01
          2   -1    0    0  501    0  0.00000000000E+00  0.00000000000E+00  0.24292637856E+04  0.24292637856E+04  0.00000000000E+00 0. -1.
         -2   -1    0    0    0  501 -0.00000000000E+00 -0.00000000000E+00 -0.76984720682E+03  0.76984720682E+03  0.00000000000E+00 0.  1.
         23    2    1    2    0    0 -0.90066439041E+03  0.10628411265E+03  0.20254804581E+04  0.22211051537E+04  0.90798461996E+02 0.  0.
         13    1    3    3    0    0 -0.26759321574E+03 -0.39833825781E+01  0.54424142023E+03  0.60648225031E+03  0.00000000000E+00 0. -1.
        -13    1    3    3    0    0 -0.63307117467E+03  0.11026749523E+03  0.14812390379E+04  0.16146229034E+04  0.00000000000E+00 0.  1.
         22    1    1    2    0    0  0.90066439041E+03 -0.10628411265E+03 -0.36606387938E+03  0.97800583871E+03  0.00000000000E+00 0.  1.
<mgrwt>
<rscale>  0 0.27350773E+04</rscale>
<asrwt>0</asrwt>
<pdfrwt beam="1">  1        2 0.37373289E+00 0.27350773E+04</pdfrwt>
<pdfrwt beam="2">  1       -2 0.11843803E+00 0.27350773E+04</pdfrwt>
<totfact> 0.18349734E+00</totfact>
</mgrwt>
</event>
<event>
 6    1  0.1885829E-005  0.1267499E+04  0.7818608E-02  0.9055743E-01
         -4   -1    0    0    0  501 -0.00000000000E+00  0.00000000000E+00  0.24339187424E+03  0.24339187424E+03  0.00000000000E+00 0.  1.
          4   -1    0    0  501    0  0.00000000000E+00 -0.00000000000E+00 -0.16501722472E+04  0.16501722472E+04  0.00000000000E+00 0. -1.
         23    2    1    2    0    0  0.36130077392E+03  0.40003298238E+03 -0.11957470371E+04  0.13146861506E+04  0.89577127182E+02 0.  0.
         13    1    3    3    0    0  0.17255710166E+03  0.24486096197E+03 -0.72095332124E+03  0.78070899536E+03  0.00000000000E+00 0. -1.
        -13    1    3    3    0    0  0.18874367226E+03  0.15517202041E+03 -0.47479371587E+03  0.53397715528E+03  0.00000000000E+00 0.  1.
         22    1    1    2    0    0 -0.36130077392E+03 -0.40003298238E+03 -0.21103333585E+03  0.57887797079E+03  0.00000000000E+00 0.  1.
<mgrwt>
<rscale>  0 0.12674991E+04</rscale>
<asrwt>0</asrwt>
<pdfrwt beam="1">  1        4 0.25387266E+00 0.12674991E+04</pdfrwt>
<pdfrwt beam="2">  1       -4 0.37444903E-01 0.12674991E+04</pdfrwt>
<totfact> 0.82037155E-01</totfact>
</mgrwt>
</event>
<event>
 6    1  0.1885829E-005  0.1452697E+04  0.7818608E-02  0.8916533E-01
          2   -1    0    0  501    0  0.00000000000E+00  0.00000000000E+00  0.63383306839E+03  0.63383306839E+03  0.00000000000E+00 0. -1.
         -2   -1    0    0    0  501 -0.00000000000E+00 -0.00000000000E+00 -0.83236712720E+03  0.83236712720E+03  0.00000000000E+00 0.  1.
         23    2    1    2    0    0 -0.31941263891E+03  0.49939584233E+03 -0.51835150354E+03  0.79262478097E+03  0.90250323910E+02 0.  0.
         11    1    3    3    0    0 -0.25539903617E+03  0.35988616271E+03 -0.42666111757E+03  0.61382931425E+03  0.00000000000E+00 0. -1.
        -11    1    3    3    0    0 -0.64013602744E+02  0.13950967961E+03 -0.91690385969E+02  0.17879546672E+03  0.00000000000E+00 0.  1.
         22    1    1    2    0    0  0.31941263891E+03 -0.49939584233E+03  0.31981744472E+03  0.67357541462E+03  0.00000000000E+00 0. -1.
<mgrwt>
<rscale>  0 0.14526965E+04</rscale>
<asrwt>0</asrwt>
<pdfrwt beam="1">  1        2 0.97512780E-01 0.14526965E+04</pdfrwt>
<pdfrwt beam="2">  1       -2 0.12805648E+00 0.14526965E+04</pdfrwt>
<totfact> 0.20283489E+01</totfact>
</mgrwt>
</event>
<event>
 6    1  0.1885829E-005  0.1041813E+04  0.7818608E-02  0.9263837E-01
         -2   -1    0    0    0  501 -0.00000000000E+00  0.00000000000E+00  0.82359432835E+02  0.82359432835E+02  0.00000000000E+00 0.  1.
          2   -1    0    0  501    0  0.00000000000E+00 -0.00000000000E+00 -0.32946295386E+04  0.32946295386E+04  0.00000000000E+00 0. -1.
         23    2    1    2    0    0  0.25025239655E+03  0.30043619152E+03 -0.27140917678E+04  0.27436882344E+04  0.92966855591E+02 0.  0.
         13    1    3    3    0    0  0.21360187520E+03  0.24984346761E+03 -0.19960943777E+04  0.20229780731E+04  0.00000000000E+00 0.  1.
        -13    1    3    3    0    0  0.36650521352E+02  0.50592723902E+02 -0.71799739010E+03  0.72071016131E+03  0.00000000000E+00 0. -1.
         22    1    1    2    0    0 -0.25025239655E+03 -0.30043619152E+03 -0.49817833798E+03  0.63330073707E+03  0.00000000000E+00 0.  1.
<mgrwt>
<rscale>  0 0.10418135E+04</rscale>
<asrwt>0</asrwt>
<pdfrwt beam="1">  1        2 0.50686612E+00 0.10418135E+04</pdfrwt>
<pdfrwt beam="2">  1       -2 0.12670681E-01 0.10418135E+04</pdfrwt>
<totfact> 0.53726263E+01</totfact>
</mgrwt>
</event>
<event>
 6    1  0.1885829E-005  0.1332443E+04  0.7818608E-02  0.9004226E-01
          2   -1    0    0  501    0  0.00000000000E+00  0.00000000000E+00  0.30907980423E+04  0.30907980423E+04  0.00000000000E+00 0. -1.
         -2   -1    0    0    0  501 -0.00000000000E+00 -0.00000000000E+00 -0.14360407363E+03  0.14360407363E+03  0.00000000000E+00 0.  1.
         23    2    1    2    0    0  0.51263832652E+03 -0.34561221530E+03  0.20627318358E+04  0.21552732443E+04  0.89968182335E+02 0.  0.
         11    1    3    3    0    0  0.39278075086E+03 -0.21667968083E+03  0.15024744681E+04  0.15680103091E+04  0.00000000000E+00 0.  1.
        -11    1    3    3    0    0  0.11985757566E+03 -0.12893253447E+03  0.56025736778E+03  0.58726293518E+03  0.00000000000E+00 0. -1.
         22    1    1    2    0    0 -0.51263832652E+03  0.34561221530E+03  0.88446213283E+03  0.10791288716E+04  0.00000000000E+00 0.  1.
<mgrwt>
<rscale>  0 0.13324432E+04</rscale>
<asrwt>0</asrwt>
<pdfrwt beam="1">  1        2 0.47550734E+00 0.13324432E+04</pdfrwt>
<pdfrwt beam="2">  1       -2 0.22092937E-01 0.13324432E+04</pdfrwt>
<totfact> 0.27057165E+01</totfact>
</mgrwt>
</event>
<event>
 6    1  0.1885829E-005  0.3249412E+04  0.7818608E-02  0.8175888E-01
         -2   -1    0    0    0  501 -0.00000000000E+00  0.00000000000E+00  0.13975531279E+04  0.13975531279E+04  0.00000000000E+00 0.  1.
          2   -1    0    0  501    0  0.00000000000E+00 -0.00000000000E+00 -0.18887794716E+04  0.18887794716E+04  0.00000000000E+00 0. -1.
         23    2    1    2    0    0 -0.11036070788E+04 -0.10425780055E+04  0.33594981462E+03  0.15574202597E+04  0.88193567054E+02 0.  0.
         11    1    3    3    0    0 -0.73892327957E+03 -0.74284526332E+03  0.25672607949E+03  0.10787654881E+04  0.00000000000E+00 0. -1.
        -11    1    3    3    0    0 -0.36468379924E+03 -0.29973274221E+03  0.79223735128E+02  0.47865477161E+03  0.00000000000E+00 0.  1.
         22    1    1    2    0    0  0.11036070788E+04  0.10425780055E+04 -0.82717615827E+03  0.17289123398E+04  0.00000000000E+00 0. -1.
<mgrwt>
<rscale>  0 0.32494120E+04</rscale>
<asrwt>0</asrwt>
<pdfrwt beam="1">  1        2 0.29058146E+00 0.32494120E+04</pdfrwt>
<pdfrwt beam="2">  1       -2 0.21500817E+00 0.32494120E+04</pdfrwt>
<totfact> 0.68703037E-01</totfact>
</mgrwt>
</event>
<event>
 6    1  0.1885829E-005  0.1046622E+04  0.7818608E-02  0.9258839E-01
          2   -1    0    0  501    0  0.00000000000E+00  0.00000000000E+00  0.48492432178E+03  0.48492432178E+03  0.00000000000E+00 0. -1.
         -2   -1    0    0    0  501 -0.00000000000E+00 -0.00000000000E+00 -0.56473588752E+03  0.56473588752E+03  0.00000000000E+00 0.  1.
         23    2    1    2    0    0 -0.29811016735E+03 -0.20669293856E+02 -0.46611285749E+03  0.56126940308E+03  0.92006822214E+02 0.  0.
         11    1    3    3    0    0 -0.61682655928E+02 -0.10008479818E+02 -0.41065615283E+02  0.74775025705E+02  0.00000000000E+00 0. -1.
        -11    1    3    3    0    0 -0.23642751143E+03 -0.10660814038E+02 -0.42504724221E+03  0.48649437738E+03  0.00000000000E+00 0.  1.
         22    1    1    2    0    0  0.29811016735E+03  0.20669293856E+02  0.38630129175E+03  0.48839080621E+03  0.00000000000E+00 0. -1.
<mgrwt>
<rscale>  0 0.10466216E+04</rscale>
<asrwt>0</asrwt>
<pdfrwt beam="1">  1        2 0.74603742E-01 0.10466216E+04</pdfrwt>
<pdfrwt beam="2">  1       -2 0.86882444E-01 0.10466216E+04</pdfrwt>
<totfact> 0.72874005E+01</totfact>
</mgrwt>
</event>
<event>
 6    1  0.1885829E-005  0.2586924E+04  0.7818608E-02  0.8372657E-01
          1   -1    0    0  501    0  0.00000000000E+00  0.00000000000E+00  0.17953051824E+04  0.17953051824E+04  0.00000000000E+00 0. -1.
         -1   -1    0    0    0  501 -0.00000000000E+00 -0.00000000000E+00 -0.93189922143E+03  0.93189922143E+03  0.00000000000E+00 0.  1.
         23    2    1    2    0    0  0.15563091615E+03  0.50890149076E+03 -0.80884593785E+03  0.97231747799E+03  0.89262631962E+02 0.  0.
         11    1    3    3    0    0  0.16139099104E+03  0.41415306717E+03 -0.65650615482E+03  0.79282415853E+03  0.00000000000E+00 0.  1.
        -11    1    3    3    0    0 -0.57600748920E+01  0.94748423585E+02 -0.15233978304E+03  0.17949331946E+03  0.00000000000E+00 0. -1.
         22    1    1    2    0    0 -0.15563091615E+03 -0.50890149076E+03  0.16722518988E+04  0.17548869258E+04  0.00000000000E+00 0. -1.
<mgrwt>
<rscale>  0 0.25869237E+04</rscale>
<asrwt>0</asrwt>
<pdfrwt beam="1">  1        1 0.27620080E+00 0.25869237E+04</pdfrwt>
<pdfrwt beam="2">  1       -1 0.14336911E+00 0.25869237E+04</pdfrwt>
<totfact> 0.14247032E+00</totfact>
</mgrwt>
</event>
<event>
 6    1  0.1885829E-005  0.1634233E+04  0.7818608E-02  0.8799789E-01
         -2   -1    0    0    0  501 -0.00000000000E+00  0.00000000000E+00  0.20003965640E+03  0.20003965640E+03  0.00000000000E+00 0.  1.
          2   -1    0    0  501    0  0.00000000000E+00 -0.00000000000E+00 -0.33377330455E+04  0.33377330455E+04  0.00000000000E+00 0. -1.
         23    2    1    2    0    0 -0.52161086780E+03 -0.53081983579E+03 -0.22907713603E+04  0.24103311210E+04  0.90637145828E+02 0.  0.
         11    1    3    3    0    0 -0.29335446697E+03 -0.34475840640E+03 -0.14833353348E+04  0.15508703742E+04  0.00000000000E+00 0. -1.
        -11    1    3    3    0    0 -0.22825640083E+03 -0.18606142940E+03 -0.80743602547E+03  0.85946074678E+03  0.00000000000E+00 0.  1.
         22    1    1    2    0    0  0.52161086780E+03  0.53081983579E+03 -0.84692202879E+03  0.11274415809E+04  0.00000000000E+00 0.  1.
<mgrwt>
<rscale>  0 0.16342325E+04</rscale>
<asrwt>0</asrwt>
<pdfrwt beam="1">  1        2 0.51349737E+00 0.16342325E+04</pdfrwt>
<pdfrwt beam="2">  1       -2 0.30775333E-01 0.16342325E+04</pdfrwt>
<totfact> 0.99153005E+00</totfact>
</mgrwt>
</event>
<event>
 6    1  0.1885829E-005  0.5446114E+04  0.7818608E-02  0.7763148E-01
          2   -1    0    0  501    0  0.00000000000E+00  0.00000000000E+00  0.27761138974E+04  0.27761138974E+04  0.00000000000E+00 0. -1.
         -2   -1    0    0    0  501 -0.00000000000E+00 -0.00000000000E+00 -0.26710140812E+04  0.26710140812E+04  0.00000000000E+00 0.  1.
         23    2    1    2    0    0  0.23934665562E+04 -0.70533686882E+03 -0.10360997262E+04  0.27033133620E+04  0.90654488386E+02 0.  0.
         11    1    3    3    0    0  0.18164832894E+04 -0.52724904420E+03 -0.82623857519E+03  0.20640429449E+04  0.00000000000E+00 0. -1.
        -11    1    3    3    0    0  0.57698326683E+03 -0.17808782462E+03 -0.20986115103E+03  0.63927041711E+03  0.00000000000E+00 0.  1.
         22    1    1    2    0    0 -0.23934665562E+04  0.70533686882E+03  0.11411995425E+04  0.27438146166E+04  0.00000000000E+00 0. -1.
<mgrwt>
<rscale>  0 0.54461140E+04</rscale>
<asrwt>0</asrwt>
<pdfrwt beam="1">  1        2 0.42709445E+00 0.54461140E+04</pdfrwt>
<pdfrwt beam="2">  1       -2 0.41092524E+00 0.54461140E+04</pdfrwt>
<totfact> 0.10586302E-02</totfact>
</mgrwt>
</event>
<event>
 6    1  0.1885829E-005  0.5402143E+04  0.7818608E-02  0.7769300E-01
          2   -1    0    0  501    0  0.00000000000E+00  0.00000000000E+00  0.34719008841E+04  0.34719008841E+04  0.00000000000E+00 0. -1.
         -2   -1    0    0    0  501 -0.00000000000E+00 -0.00000000000E+00 -0.21013815575E+04  0.21013815575E+04  0.00000000000E+00 0.  1.
         23    2    1    2    0    0  0.17577718032E+04  0.20487419193E+04  0.61579053474E+03  0.27702981903E+04  0.90823548371E+02 0.  0.
         11    1    3    3    0    0  0.15019948232E+04  0.17000520821E+04  0.51219262928E+03  0.23256196637E+04  0.00000000000E+00 0. -1.
        -11    1    3    3    0    0  0.25577698000E+03  0.34868983717E+03  0.10359790547E+03  0.44467852665E+03  0.00000000000E+00 0.  1.
         22    1    1    2    0    0 -0.17577718032E+04 -0.20487419193E+04  0.75472879182E+03  0.28029842513E+04  0.00000000000E+00 0.  1.
<mgrwt>
<rscale>  0 0.54021435E+04</rscale>
<asrwt>0</asrwt>
<pdfrwt beam="1">  1        2 0.53413860E+00 0.54021435E+04</pdfrwt>
<pdfrwt beam="2">  1       -2 0.32328947E+00 0.54021435E+04</pdfrwt>
<totfact> 0.13678557E-02</totfact>
</mgrwt>
</event>
<event>
 6    1  0.1885829E-005  0.1289885E+04  0.7818608E-02  0.9037625E-01
         -2   -1    0    0    0  501 -0.00000000000E+00  0.00000000000E+00  0.13528150856E+04  0.13528150856E+04  0.00000000000E+00 0.  1.
          2   -1    0    0  501    0  0.00000000000E+00 -0.00000000000E+00 -0.30747053315E+03  0.30747053315E+03  0.00000000000E+00 0. -1.
         23    2    1    2    0    0 -0.14781635170E+03  0.26961024271E+03  0.12501625087E+04  0.12908404238E+04  0.93932660631E+02 0.  0.
         11    1    3    3    0    0 -0.71951786693E+02  0.46477705198E+02  0.35190932852E+03  0.36218422410E+03  0.00000000000E+00 0. -1.
        -11    1    3    3    0    0 -0.75864565002E+02  0.22313253751E+03  0.89825318023E+03  0.92865619973E+03  0.00000000000E+00 0.  1.
         22    1    1    2    0    0  0.14781635170E+03 -0.26961024271E+03 -0.20481795631E+03  0.36944519489E+03  0.00000000000E+00 0. -1.
<mgrwt>
<rscale>  0 0.12898849E+04</rscale>
<asrwt>0</asrwt>
<pdfrwt beam="1">  1        2 0.47303160E-01 0.12898849E+04</pdfrwt>
<pdfrwt beam="2">  1       -2 0.20812539E+00 0.12898849E+04</pdfrwt>
<totfact> 0.12329141E+01</totfact>
</mgrwt>
</event>
<event>
 6    1  0.1885829E-005  0.1227907E+04  0.7818608E-02  0.9088774E-01
         -2   -1    0    0    0  501 -0.00000000000E+00  0.00000000000E+00  0.39750678953E+03  0.39750678953E+03  0.00000000000E+00 0.  1.
          2   -1    0    0  501    0  0.00000000000E+00 -0.00000000000E+00 -0.94825759563E+03  0.94825759563E+03  0.00000000000E+00 0. -1.
         23    2    1    2    0    0 -0.49763862411E+03 -0.27513334284E+03 -0.52079399065E+03  0.77634365551E+03  0.90224909000E+02 0.  0.
         13    1    3    3    0    0 -0.16496409736E+03 -0.95074634600E+02 -0.11914953371E+03  0.22460843917E+03  0.00000000000E+00 0.  1.
        -13    1    3    3    0    0 -0.33267452675E+03 -0.18005870824E+03 -0.40164445694E+03  0.55173521634E+03  0.00000000000E+00 0. -1.
         22    1    1    2    0    0  0.49763862411E+03  0.27513334284E+03 -0.29956815448E+02  0.56942072964E+03  0.00000000000E+00 0.  1.
<mgrwt>
<rscale>  0 0.12279069E+04</rscale>
<asrwt>0</asrwt>
<pdfrwt beam="1">  1        2 0.14588578E+00 0.12279069E+04</pdfrwt>
<pdfrwt beam="2">  1       -2 0.61154892E-01 0.12279069E+04</pdfrwt>
<totfact> 0.66701957E+01</totfact>
</mgrwt>
</event>
<event>
 6    1  0.1885829E-005  0.5241058E+04  0.7818608E-02  0.7792361E-01
         -2   -1    0    0    0  501 -0.00000000000E+00  0.00000000000E+00  0.19086472256E+04  0.19086472256E+04  0.00000000000E+00 0.  1.
          2   -1    0    0  501    0  0.00000000000E+00 -0.00000000000E+00 -0.35979268353E+04  0.35979268353E+04  0.00000000000E+00 0. -1.
         23    2    1    2    0    0  0.14292137662E+04 -0.21677988959E+04 -0.47954961478E+03  0.26420582723E+04  0.92195653989E+02 0.  0.
         13    1    3    3    0    0  0.40414500366E+03 -0.63004871173E+03 -0.17974644217E+03  0.76980734382E+03  0.00000000000E+00 0. -1.
        -13    1    3    3    0    0  0.10250687625E+04 -0.15377501842E+04 -0.29980317261E+03  0.18722509285E+04  0.00000000000E+00 0.  1.
         22    1    1    2    0    0 -0.14292137662E+04  0.21677988959E+04 -0.12097299949E+04  0.28645157886E+04  0.00000000000E+00 0. -1.
<mgrwt>
<rscale>  0 0.52410583E+04</rscale>
<asrwt>0</asrwt>
<pdfrwt beam="1">  1        2 0.55352720E+00 0.52410583E+04</pdfrwt>
<pdfrwt beam="2">  1       -2 0.29363804E+00 0.52410583E+04</pdfrwt>
<totfact> 0.17159278E-02</totfact>
</mgrwt>
</event>
<event>
 6    1  0.1885829E-005  0.2169124E+04  0.7818608E-02  0.8531390E-01
          2   -1    0    0  501    0  0.00000000000E+00  0.00000000000E+00  0.19867245237E+04  0.19867245237E+04  0.00000000000E+00 0. -1.
         -2   -1    0    0    0  501 -0.00000000000E+00 -0.00000000000E+00 -0.59206762335E+03  0.59206762335E+03  0.00000000000E+00 0.  1.
         23    2    1    2    0    0  0.77290804943E+03  0.22215164546E+03  0.15602831971E+04  0.17577134196E+04  0.91294051847E+02 0.  0.
         11    1    3    3    0    0  0.59192865366E+03  0.19959765215E+03  0.12608352426E+04  0.14070978156E+04  0.00000000000E+00 0. -1.
        -11    1    3    3    0    0  0.18097939577E+03  0.22553993309E+02  0.29944795451E+03  0.35061560400E+03  0.00000000000E+00 0.  1.
         22    1    1    2    0    0 -0.77290804943E+03 -0.22215164546E+03 -0.16562629675E+03  0.82107872742E+03  0.00000000000E+00 0.  1.
<mgrwt>
<rscale>  0 0.21691245E+04</rscale>
<asrwt>0</asrwt>
<pdfrwt beam="1">  1        2 0.30564992E+00 0.21691245E+04</pdfrwt>
<pdfrwt beam="2">  1       -2 0.91087328E-01 0.21691245E+04</pdfrwt>
<totfact> 0.64003870E+00</totfact>
</mgrwt>
</event>
<event>
 6    1  0.1885829E-005  0.3637628E+04  0.7818608E-02  0.8081927E-01
         -1   -1    0    0    0  501 -0.00000000000E+00  0.00000000000E+00  0.20515767400E+04  0.20515767400E+04  0.00000000000E+00 0.  1.
          1   -1    0    0  501    0  0.00000000000E+00 -0.00000000000E+00 -0.16124593070E+04  0.16124593070E+04  0.00000000000E+00 0. -1.
         23    2    1    2    0    0  0.12944129230E+04 -0.41751173618E+03  0.14342982137E+04  0.19787450777E+04  0.91650706154E+02 0.  0.
         13    1    3    3    0    0  0.74986764122E+03 -0.27893087835E+03  0.80149466849E+03  0.11324741135E+04  0.00000000000E+00 0.  1.
        -13    1    3    3    0    0  0.54454528173E+03 -0.13858085783E+03  0.63280354521E+03  0.84627096420E+03  0.00000000000E+00 0. -1.
         22    1    1    2    0    0 -0.12944129230E+04  0.41751173618E+03 -0.99518078063E+03  0.16852909693E+04  0.00000000000E+00 0. -1.
<mgrwt>
<rscale>  0 0.36376278E+04</rscale>
<asrwt>0</asrwt>
<pdfrwt beam="1">  1        1 0.24807066E+00 0.36376278E+04</pdfrwt>
<pdfrwt beam="2">  1       -1 0.31562719E+00 0.36376278E+04</pdfrwt>
<totfact> 0.11530644E-01</totfact>
</mgrwt>
</event>
<event>
 6    1  0.1885829E-005  0.2314328E+04  0.7818608E-02  0.8472293E-01
         -4   -1    0    0    0  501 -0.00000000000E+00  0.00000000000E+00  0.77035188183E+03  0.77035188183E+03  0.00000000000E+00 0.  1.
          4   -1    0    0  501    0  0.00000000000E+00 -0.00000000000E+00 -0.17382037105E+04  0.17382037105E+04  0.00000000000E+00 0. -1.
         23    2    1    2    0    0  0.11225805237E+04  0.98681994443E+02 -0.75799735787E+03  0.13622728753E+04  0.10631191886E+03 0.  0.
         13    1    3    3    0    0  0.80827931578E+03  0.67547271315E+02 -0.60146787704E+03  0.10097730900E+04  0.00000000000E+00 0.  1.
        -13    1    3    3    0    0  0.31430120794E+03  0.31134723128E+02 -0.15652948083E+03  0.35249978534E+03  0.00000000000E+00 0. -1.
         22    1    1    2    0    0 -0.11225805237E+04 -0.98681994443E+02 -0.20985447075E+03  0.11462827169E+04  0.00000000000E+00 0. -1.
<mgrwt>
<rscale>  0 0.23143280E+04</rscale>
<asrwt>0</asrwt>
<pdfrwt beam="1">  1        4 0.26741595E+00 0.23143280E+04</pdfrwt>
<pdfrwt beam="2">  1       -4 0.11851568E+00 0.23143280E+04</pdfrwt>
<totfact> 0.48644866E-02</totfact>
</mgrwt>
</event>
<event>
 6    1  0.1885829E-005  0.3830303E+04  0.7818608E-02  0.8039683E-01
         -2   -1    0    0    0  501 -0.00000000000E+00  0.00000000000E+00  0.11703225738E+04  0.11703225738E+04  0.00000000000E+00 0.  1.
          2   -1    0    0  501    0  0.00000000000E+00 -0.00000000000E+00 -0.31340119863E+04  0.31340119863E+04  0.00000000000E+00 0. -1.
         23    2    1    2    0    0  0.93170652500E+03 -0.23847845468E+03 -0.28421070286E+04  0.30018114200E+04  0.91380617114E+02 0.  0.
         13    1    3    3    0    0  0.81855203773E+03 -0.21550413754E+03 -0.25826933809E+04  0.27178621325E+04  0.00000000000E+00 0. -1.
        -13    1    3    3    0    0  0.11315448727E+03 -0.22974317142E+02 -0.25941364772E+03  0.28394928748E+03  0.00000000000E+00 0.  1.
         22    1    1    2    0    0 -0.93170652500E+03  0.23847845468E+03  0.87841761610E+03  0.13025231400E+04  0.00000000000E+00 0.  1.
<mgrwt>
<rscale>  0 0.38303028E+04</rscale>
<asrwt>0</asrwt>
<pdfrwt beam="1">  1        2 0.48215568E+00 0.38303028E+04</pdfrwt>
<pdfrwt beam="2">  1       -2 0.18004963E+00 0.38303028E+04</pdfrwt>
<totfact> 0.20719932E-01</totfact>
</mgrwt>
</event>
<event>
 6    1  0.1885829E-005  0.1129452E+04  0.7818608E-02  0.9176952E-01
          2   -1    0    0  501    0  0.00000000000E+00  0.00000000000E+00  0.15302444726E+04  0.15302444726E+04  0.00000000000E+00 0. -1.
         -2   -1    0    0    0  501 -0.00000000000E+00 -0.00000000000E+00 -0.20840811570E+03  0.20840811570E+03  0.00000000000E+00 0.  1.
         23    2    1    2    0    0  0.48673184131E+03  0.17831708787E+03  0.99511635046E+03  0.11259121605E+04  0.93363660666E+02 0.  0.
         11    1    3    3    0    0  0.25967406671E+03  0.47361623120E+02  0.47166362571E+03  0.54050006483E+03  0.00000000000E+00 0. -1.
        -11    1    3    3    0    0  0.22705777460E+03  0.13095546475E+03  0.52345272475E+03  0.58541209571E+03  0.00000000000E+00 0.  1.
         22    1    1    2    0    0 -0.48673184131E+03 -0.17831708787E+03  0.32672000639E+03  0.61274042771E+03  0.00000000000E+00 0.  1.
<mgrwt>
<rscale>  0 0.11294518E+04</rscale>
<asrwt>0</asrwt>
<pdfrwt beam="1">  1        2 0.23542222E+00 0.11294518E+04</pdfrwt>
<pdfrwt beam="2">  1       -2 0.32062788E-01 0.11294518E+04</pdfrwt>
<totfact> 0.10940567E+02</totfact>
</mgrwt>
</event>
<event>
 6    1  0.1885829E-005  0.2673494E+03  0.7818608E-02  0.1102806E+00
         -2   -1    0    0    0  501 -0.00000000000E+00  0.00000000000E+00  0.70240984438E+02  0.70240984438E+02  0.00000000000E+00 0.  1.
          2   -1    0    0  501    0  0.00000000000E+00 -0.00000000000E+00 -0.25439464244E+03  0.25439464244E+03  0.00000000000E+00 0. -1.
         23    2    1    2    0    0 -0.32733463104E+02  0.95927708302E+02 -0.34172001270E+02  0.14361600865E+03  0.95834375061E+02 0.  0.
         11    1    3    3    0    0 -0.47558514163E+02  0.15390825050E+02 -0.36171775391E+02  0.61701597224E+02  0.00000000000E+00 0.  1.
        -11    1    3    3    0    0  0.14825051059E+02  0.80536883252E+02  0.19997741209E+01  0.81914411427E+02  0.00000000000E+00 0. -1.
         22    1    1    2    0    0  0.32733463104E+02 -0.95927708302E+02 -0.14998165673E+03  0.18101961823E+03  0.00000000000E+00 0. -1.
<mgrwt>
<rscale>  0 0.26734944E+03</rscale>
<asrwt>0</asrwt>
<pdfrwt beam="1">  1        2 0.39137637E-01 0.26734944E+03</pdfrwt>
<pdfrwt beam="2">  1       -2 0.10806305E-01 0.26734944E+03</pdfrwt>
<totfact> 0.75937469E+03</totfact>
</mgrwt>
</event>
<event>
 6    1  0.1885829E-005  0.2940063E+04  0.7818608E-02  0.8261056E-01
         -2   -1    0    0    0  501 -0.00000000000E+00  0.00000000000E+00  0.84709371410E+03  0.84709371410E+03  0.00000000000E+00 0.  1.
          2   -1    0    0  501    0  0.00000000000E+00 -0.00000000000E+00 -0.25510670237E+04  0.25510670237E+04  0.00000000000E+00 0. -1.
         23    2    1    2    0    0  0.12645913708E+04 -0.65969026705E+03 -0.44841552743E+03  0.14979481371E+04  0.91594502110E+02 0.  0.
         13    1    3    3    0    0  0.38488398229E+03 -0.15393704125E+03 -0.13117661249E+03  0.43478683991E+03  0.00000000000E+00 0. -1.
        -13    1    3    3    0    0  0.87970738848E+03 -0.50575322580E+03 -0.31723891493E+03  0.10631612972E+04  0.00000000000E+00 0.  1.
         22    1    1    2    0    0 -0.12645913708E+04  0.65969026705E+03 -0.12555577822E+04  0.19002126007E+04  0.00000000000E+00 0. -1.
<mgrwt>
<rscale>  0 0.29400632E+04</rscale>
<asrwt>0</asrwt>
<pdfrwt beam="1">  1        2 0.39247185E+00 0.29400632E+04</pdfrwt>
<pdfrwt beam="2">  1       -2 0.13032211E+00 0.29400632E+04</pdfrwt>
<totfact> 0.12066196E+00</totfact>
</mgrwt>
</event>
<event>
 6    1  0.2984011E-005  0.2442143E+04  0.7818608E-02  0.8423892E-01
          1   -1    0    0  501    0  0.00000000000E+00  0.00000000000E+00  0.14087019619E+04  0.14087019619E+04  0.00000000000E+00 0. -1.
         -1   -1    0    0    0  501 -0.00000000000E+00 -0.00000000000E+00 -0.10584319534E+04  0.10584319534E+04  0.00000000000E+00 0.  1.
         23    2    1    2    0    0  0.35533318745E+03  0.23264154628E+03  0.13301017584E+04  0.13992134963E+04  0.90796240871E+02 0.  0.
         13    1    3    3    0    0  0.21022314810E+03  0.18625585652E+03  0.90898308651E+03  0.95138597197E+03  0.00000000000E+00 0. -1.
        -13    1    3    3    0    0  0.14511003935E+03  0.46385689754E+02  0.42111867186E+03  0.44782752431E+03  0.00000000000E+00 0.  1.
         22    1    1    2    0    0 -0.35533318745E+03 -0.23264154628E+03 -0.97983174992E+03  0.10679204190E+04  0.00000000000E+00 0.  1.
<mgrwt>
<rscale>  0 0.24421426E+04</rscale>
<asrwt>0</asrwt>
<pdfrwt beam="1">  1        1 0.21672338E+00 0.24421426E+04</pdfrwt>
<pdfrwt beam="2">  1       -1 0.16283569E+00 0.24421426E+04</pdfrwt>
<totfact> 0.18816853E+00</totfact>
</mgrwt>
</event>
<event>
 6    1  0.2295980E-005  0.3345089E+04  0.7818608E-02  0.8151516E-01
          2   -1    0    0  501    0  0.00000000000E+00  0.00000000000E+00  0.22269952522E+04  0.22269952522E+04  0.00000000000E+00 0. -1.
         -2   -1    0    0    0  501 -0.00000000000E+00 -0.00000000000E+00 -0.12561343977E+04  0.12561343977E+04  0.00000000000E+00 0.  1.
         23    2    1    2    0    0 -0.14324689793E+04 -0.84225204474E+03  0.67152254297E+03  0.17946512496E+04  0.92058125618E+02 0.  0.
         13    1    3    3    0    0 -0.64281944916E+03 -0.35815160433E+03  0.25166391594E+03  0.77770440560E+03  0.00000000000E+00 0.  1.
        -13    1    3    3    0    0 -0.78964953015E+03 -0.48410044041E+03  0.41985862704E+03  0.10169468440E+04  0.00000000000E+00 0. -1.
         22    1    1    2    0    0  0.14324689793E+04  0.84225204474E+03  0.29933831145E+03  0.16884784003E+04  0.00000000000E+00 0. -1.
<mgrwt>
<rscale>  0 0.33450891E+04</rscale>
<asrwt>0</asrwt>
<pdfrwt beam="1">  1        2 0.34261465E+00 0.33450891E+04</pdfrwt>
<pdfrwt beam="2">  1       -2 0.19325145E+00 0.33450891E+04</pdfrwt>
<totfact> 0.61167806E-01</totfact>
</mgrwt>
</event>
<event>
 6    1  0.2184931E-005  0.2532723E+04  0.7818608E-02  0.8391420E-01
          1   -1    0    0  501    0  0.00000000000E+00  0.00000000000E+00  0.15085324454E+04  0.15085324454E+04  0.00000000000E+00 0. -1.
         -1   -1    0    0    0  501 -0.00000000000E+00 -0.00000000000E+00 -0.10630670420E+04  0.10630670420E+04  0.00000000000E+00 0.  1.
         23    2    1    2    0    0  0.72771675808E+03  0.68556948645E+03 -0.56348247302E+03  0.11511935531E+04  0.90315550419E+02 0.  0.
         11    1    3    3    0    0  0.45009738947E+03  0.37537027834E+03 -0.36022724043E+03  0.68793471393E+03  0.00000000000E+00 0. -1.
        -11    1    3    3    0    0  0.27761936861E+03  0.31019920811E+03 -0.20325523259E+03  0.46325883922E+03  0.00000000000E+00 0.  1.
         22    1    1    2    0    0 -0.72771675808E+03 -0.68556948645E+03  0.10089478765E+04  0.14204059343E+04  0.00000000000E+00 0. -1.
<mgrwt>
<rscale>  0 0.25327227E+04</rscale>
<asrwt>0</asrwt>
<pdfrwt beam="1">  1        1 0.23208191E+00 0.25327227E+04</pdfrwt>
<pdfrwt beam="2">  1       -1 0.16354878E+00 0.25327227E+04</pdfrwt>
<totfact> 0.15708876E+00</totfact>
</mgrwt>
</event>
<event>
 6    1  0.1885829E-005  0.6087924E+04  0.7818608E-02  0.7679595E-01
          2   -1    0    0  501    0  0.00000000000E+00  0.00000000000E+00  0.46458796717E+04  0.46458796717E+04  0.00000000000E+00 0. -1.
         -2   -1    0    0    0  501 -0.00000000000E+00 -0.00000000000E+00 -0.19943918303E+04  0.19943918303E+04  0.00000000000E+00 0.  1.
         23    2    1    2    0    0  0.29998933998E+04 -0.51036692700E+03  0.12804096946E+04  0.33026540741E+04  0.90775200763E+02 0.  0.
         13    1    3    3    0    0  0.81831579030E+03 -0.17031768098E+03  0.32299184286E+03  0.89608737055E+03  0.00000000000E+00 0. -1.
        -13    1    3    3    0    0  0.21815776095E+04 -0.34004924602E+03  0.95741785175E+03  0.24065667036E+04  0.00000000000E+00 0.  1.
         22    1    1    2    0    0 -0.29998933998E+04  0.51036692700E+03  0.13710781468E+04  0.33376174279E+04  0.00000000000E+00 0. -1.
<mgrwt>
<rscale>  0 0.60879239E+04</rscale>
<asrwt>0</asrwt>
<pdfrwt beam="1">  1        2 0.71475071E+00 0.60879239E+04</pdfrwt>
<pdfrwt beam="2">  1       -2 0.30682951E+00 0.60879239E+04</pdfrwt>
<totfact> 0.16659001E-03</totfact>
</mgrwt>
</event>
<event>
 6    1  0.1885829E-005  0.3462796E+04  0.7818608E-02  0.8122664E-01
          2   -1    0    0  501    0  0.00000000000E+00  0.00000000000E+00  0.16580909687E+04  0.16580909687E+04  0.00000000000E+00 0. -1.
         -2   -1    0    0    0  501 -0.00000000000E+00 -0.00000000000E+00 -0.18079456638E+04  0.18079456638E+04  0.00000000000E+00 0.  1.
         23    2    1    2    0    0  0.12861775589E+03  0.33575867091E+03  0.16190576338E+04  0.16609529115E+04  0.90224943925E+02 0.  0.
         11    1    3    3    0    0  0.21621050850E+02  0.18501865250E+02  0.24704550432E+03  0.24867905031E+03  0.00000000000E+00 0.  1.
        -11    1    3    3    0    0  0.10699670503E+03  0.31725680566E+03  0.13720121295E+04  0.14122738612E+04  0.00000000000E+00 0. -1.
         22    1    1    2    0    0 -0.12861775589E+03 -0.33575867091E+03 -0.17689123290E+04  0.18050837210E+04  0.00000000000E+00 0.  1.
<mgrwt>
<rscale>  0 0.34627956E+04</rscale>
<asrwt>0</asrwt>
<pdfrwt beam="1">  1        2 0.25509092E+00 0.34627956E+04</pdfrwt>
<pdfrwt beam="2">  1       -2 0.27814549E+00 0.34627956E+04</pdfrwt>
<totfact> 0.36867275E-01</totfact>
</mgrwt>
</event>
<event>
 6    1  0.1885829E-005  0.1565869E+04  0.7818608E-02  0.8841794E-01
          2   -1    0    0  501    0  0.00000000000E+00  0.00000000000E+00  0.87003631186E+03  0.87003631186E+03  0.00000000000E+00 0. -1.
         -2   -1    0    0    0  501 -0.00000000000E+00 -0.00000000000E+00 -0.70455313414E+03  0.70455313414E+03  0.00000000000E+00 0.  1.
         23    2    1    2    0    0  0.47492634265E+02  0.77705797337E+03  0.13223405902E+03  0.79537179464E+03  0.95161972791E+02 0.  0.
         11    1    3    3    0    0  0.42071149932E+02  0.25188651704E+03  0.71175822732E+01  0.25547496766E+03  0.00000000000E+00 0.  1.
        -11    1    3    3    0    0  0.54214843327E+01  0.52517145633E+03  0.12511647675E+03  0.53989682698E+03  0.00000000000E+00 0. -1.
         22    1    1    2    0    0 -0.47492634265E+02 -0.77705797337E+03  0.33249118700E+02  0.77921765135E+03  0.00000000000E+00 0. -1.
<mgrwt>
<rscale>  0 0.15658695E+04</rscale>
<asrwt>0</asrwt>
<pdfrwt beam="1">  1        2 0.13385174E+00 0.15658695E+04</pdfrwt>
<pdfrwt beam="2">  1       -2 0.10839279E+00 0.15658695E+04</pdfrwt>
<totfact> 0.20123119E+01</totfact>
</mgrwt>
</event>
<event>
 6    1  0.1885829E-005  0.1387757E+04  0.7818608E-02  0.8962729E-01
         -1   -1    0    0    0  501 -0.00000000000E+00  0.00000000000E+00  0.17962167632E+04  0.17962167632E+04  0.00000000000E+00 0.  1.
          1   -1    0    0  501    0  0.00000000000E+00 -0.00000000000E+00 -0.26804524498E+03  0.26804524498E+03  0.00000000000E+00 0. -1.
         23    2    1    2    0    0 -0.45063079131E+03 -0.41028564882E+03  0.28328568253E+03  0.67820891842E+03  0.91181880817E+02 0.  0.
         11    1    3    3    0    0 -0.18707090980E+03 -0.18733191312E+03  0.75550952146E+02  0.27531203631E+03  0.00000000000E+00 0. -1.
        -11    1    3    3    0    0 -0.26355988151E+03 -0.22295373570E+03  0.20773473038E+03  0.40289688211E+03  0.00000000000E+00 0.  1.
         22    1    1    2    0    0  0.45063079131E+03  0.41028564882E+03  0.12448858357E+04  0.13860530898E+04  0.00000000000E+00 0.  1.
<mgrwt>
<rscale>  0 0.13877570E+04</rscale>
<asrwt>0</asrwt>
<pdfrwt beam="1">  1        1 0.41237731E-01 0.13877570E+04</pdfrwt>
<pdfrwt beam="2">  1       -1 0.27634103E+00 0.13877570E+04</pdfrwt>
<totfact> 0.46693271E+00</totfact>
</mgrwt>
</event>
<event>
 6    1  0.1885829E-005  0.4109588E+04  0.7818608E-02  0.7982797E-01
          2   -1    0    0  501    0  0.00000000000E+00  0.00000000000E+00  0.22908882909E+04  0.22908882909E+04  0.00000000000E+00 0. -1.
         -2   -1    0    0    0  501 -0.00000000000E+00 -0.00000000000E+00 -0.18430312089E+04  0.18430312089E+04  0.00000000000E+00 0.  1.
         23    2    1    2    0    0  0.53459688526E+03 -0.15639457995E+04 -0.10023411808E+04  0.19351027056E+04  0.90633024170E+02 0.  0.
         11    1    3    3    0    0  0.37158107166E+03 -0.12028870701E+04 -0.77348558921E+03  0.14775959370E+04  0.00000000000E+00 0. -1.
        -11    1    3    3    0    0  0.16301581360E+03 -0.36105872937E+03 -0.22885559154E+03  0.45750676860E+03  0.00000000000E+00 0.  1.
         22    1    1    2    0    0 -0.53459688526E+03  0.15639457995E+04  0.14501982627E+04  0.21988167942E+04  0.00000000000E+00 0. -1.
<mgrwt>
<rscale>  0 0.41095881E+04</rscale>
<asrwt>0</asrwt>
<pdfrwt beam="1">  1        2 0.35244435E+00 0.41095881E+04</pdfrwt>
<pdfrwt beam="2">  1       -2 0.28354327E+00 0.41095881E+04</pdfrwt>
<totfact> 0.14375139E-01</totfact>
</mgrwt>
</event>
<event>
 6    1  0.1885829E-005  0.3350941E+04  0.7818608E-02  0.8150053E-01
         -2   -1    0    0    0  501 -0.00000000000E+00  0.00000000000E+00  0.14591873195E+04  0.14591873195E+04  0.00000000000E+00 0. -1.
          2   -1    0    0  501    0  0.00000000000E+00 -0.00000000000E+00 -0.19238118580E+04  0.19238118580E+04  0.00000000000E+00 0.  1.
         23    2    1    2    0    0  0.62188448082E+03  0.34352723628E+03  0.12980196945E+04  0.14825608171E+04  0.91543320072E+02 0.  0.
         11    1    3    3    0    0  0.55284812223E+03  0.29100031863E+03  0.10764524654E+04  0.12446172673E+04  0.00000000000E+00 0.  1.
        -11    1    3    3    0    0  0.69036358587E+02  0.52526917647E+02  0.22156722909E+03  0.23794354980E+03  0.00000000000E+00 0. -1.
         22    1    1    2    0    0 -0.62188448082E+03 -0.34352723628E+03 -0.17626442330E+04  0.19004383604E+04  0.00000000000E+00 0.  1.
<mgrwt>
<rscale>  0 0.33509413E+04</rscale>
<asrwt>0</asrwt>
<pdfrwt beam="1">  1        2 0.29597106E+00 0.33509413E+04</pdfrwt>
<pdfrwt beam="2">  1       -2 0.22449036E+00 0.33509413E+04</pdfrwt>
<totfact> 0.56726214E-01</totfact>
</mgrwt>
</event>
<event>
 6    1  0.2346960E-005  0.4859559E+04  0.7818608E-02  0.7850544E-01
          2   -1    0    0  501    0  0.00000000000E+00  0.00000000000E+00  0.28094588178E+04  0.28094588178E+04  0.00000000000E+00 0. -1.
         -2   -1    0    0    0  501 -0.00000000000E+00 -0.00000000000E+00 -0.21014111896E+04  0.21014111896E+04  0.00000000000E+00 0.  1.
         23    2    1    2    0    0  0.81568405706E+02  0.10911145326E+04  0.25455662679E+04  0.27722585234E+04  0.91243453595E+02 0.  0.
         11    1    3    3    0    0  0.42704291371E+02  0.50044298315E+03  0.12832005153E+04  0.13779950647E+04  0.00000000000E+00 0. -1.
        -11    1    3    3    0    0  0.38864114336E+02  0.59067154944E+03  0.12623657527E+04  0.13942634587E+04  0.00000000000E+00 0.  1.
         22    1    1    2    0    0 -0.81568405706E+02 -0.10911145326E+04 -0.18375186398E+04  0.21386114840E+04  0.00000000000E+00 0.  1.
<mgrwt>
<rscale>  0 0.48595589E+04</rscale>
<asrwt>0</asrwt>
<pdfrwt beam="1">  1        2 0.43222443E+00 0.48595589E+04</pdfrwt>
<pdfrwt beam="2">  1       -2 0.32329403E+00 0.48595589E+04</pdfrwt>
<totfact> 0.38374909E-02</totfact>
</mgrwt>
</event>
<event>
 6    1  0.1885829E-005  0.1323172E+04  0.7818608E-02  0.9011388E-01
         -2   -1    0    0    0  501 -0.00000000000E+00  0.00000000000E+00  0.11990281227E+04  0.11990281227E+04  0.00000000000E+00 0.  1.
          2   -1    0    0  501    0  0.00000000000E+00 -0.00000000000E+00 -0.36504254506E+03  0.36504254506E+03  0.00000000000E+00 0. -1.
         23    2    1    2    0    0  0.84808655894E+02 -0.32919039967E+03 -0.24764101406E+03  0.43028280788E+03  0.90875714904E+02 0.  0.
         11    1    3    3    0    0  0.46937539920E+02 -0.24171932493E+03 -0.22210223583E+03  0.33160332908E+03  0.00000000000E+00 0.  1.
        -11    1    3    3    0    0  0.37871115974E+02 -0.87471074745E+02 -0.25538778232E+02  0.98679478797E+02  0.00000000000E+00 0. -1.
         22    1    1    2    0    0 -0.84808655894E+02  0.32919039967E+03  0.10816265917E+04  0.11337878599E+04  0.00000000000E+00 0.  1.
<mgrwt>
<rscale>  0 0.13231724E+04</rscale>
<asrwt>0</asrwt>
<pdfrwt beam="1">  1        2 0.56160392E-01 0.13231724E+04</pdfrwt>
<pdfrwt beam="2">  1       -2 0.18446586E+00 0.13231724E+04</pdfrwt>
<totfact> 0.14558157E+01</totfact>
</mgrwt>
</event>
<event>
 6    1  0.1885829E-005  0.3388495E+04  0.7818608E-02  0.8140736E-01
          2   -1    0    0  501    0  0.00000000000E+00  0.00000000000E+00  0.24611715100E+04  0.24611715100E+04  0.00000000000E+00 0. -1.
         -2   -1    0    0    0  501 -0.00000000000E+00 -0.00000000000E+00 -0.11663045069E+04  0.11663045069E+04  0.00000000000E+00 0.  1.
         23    2    1    2    0    0 -0.14265923377E+04  0.38522476260E+02  0.16230763377E+04  0.21631089023E+04  0.89518969686E+02 0.  0.
         13    1    3    3    0    0 -0.10961504020E+04 -0.26860955045E+01  0.12145720570E+04  0.16360740205E+04  0.00000000000E+00 0. -1.
        -13    1    3    3    0    0 -0.33044193570E+03  0.41208571764E+02  0.40850428066E+03  0.52703488175E+03  0.00000000000E+00 0.  1.
         22    1    1    2    0    0  0.14265923377E+04 -0.38522476260E+02 -0.32820933461E+03  0.14643671147E+04  0.00000000000E+00 0.  1.
<mgrwt>
<rscale>  0 0.33884955E+04</rscale>
<asrwt>0</asrwt>
<pdfrwt beam="1">  1        2 0.37864177E+00 0.33884955E+04</pdfrwt>
<pdfrwt beam="2">  1       -2 0.17943146E+00 0.33884955E+04</pdfrwt>
<totfact> 0.55616856E-01</totfact>
</mgrwt>
</event>
<event>
 6    1  0.1885829E-005  0.1778015E+04  0.7818608E-02  0.8718079E-01
          1   -1    0    0  501    0  0.00000000000E+00  0.00000000000E+00  0.22732566944E+04  0.22732566944E+04  0.00000000000E+00 0. -1.
         -1   -1    0    0    0  501 -0.00000000000E+00 -0.00000000000E+00 -0.34766605563E+03  0.34766605563E+03  0.00000000000E+00 0.  1.
         23    2    1    2    0    0  0.81313113411E+03 -0.35316628486E+03  0.98729863617E+03  0.13300701062E+04  0.91756331005E+02 0.  0.
         11    1    3    3    0    0  0.70302934727E+03 -0.26930099824E+03  0.83519042559E+03  0.11244182219E+04  0.00000000000E+00 0. -1.
        -11    1    3    3    0    0  0.11010178684E+03 -0.83865286622E+02  0.15210821058E+03  0.20565188424E+03  0.00000000000E+00 0.  1.
         22    1    1    2    0    0 -0.81313113411E+03  0.35316628486E+03  0.93829200257E+03  0.12908526438E+04  0.00000000000E+00 0.  1.
<mgrwt>
<rscale>  0 0.17780148E+04</rscale>
<asrwt>0</asrwt>
<pdfrwt beam="1">  1        1 0.34973179E+00 0.17780148E+04</pdfrwt>
<pdfrwt beam="2">  1       -1 0.53487087E-01 0.17780148E+04</pdfrwt>
<totfact> 0.64763231E+00</totfact>
</mgrwt>
</event>
<event>
 6    1  0.1885829E-005  0.8172331E+03  0.7818608E-02  0.9535403E-01
         -2   -1    0    0    0  501 -0.00000000000E+00  0.00000000000E+00  0.71620297822E+02  0.71620297822E+02  0.00000000000E+00 0.  1.
          2   -1    0    0  501    0  0.00000000000E+00 -0.00000000000E+00 -0.23312871797E+04  0.23312871797E+04  0.00000000000E+00 0. -1.
         23    2    1    2    0    0  0.25369347876E+03 -0.27200468385E+03 -0.70869012134E+03  0.80795423654E+03  0.11046008805E+03 0.  0.
         11    1    3    3    0    0  0.95093506769E+02 -0.44158191039E+02 -0.25977618534E+03  0.28013637275E+03  0.00000000000E+00 0.  1.
        -11    1    3    3    0    0  0.15859997199E+03 -0.22784649281E+03 -0.44891393600E+03  0.52781786379E+03  0.00000000000E+00 0. -1.
         22    1    1    2    0    0 -0.25369347876E+03  0.27200468385E+03 -0.15509767606E+04  0.15949532410E+04  0.00000000000E+00 0. -1.
<mgrwt>
<rscale>  0 0.81723309E+03</rscale>
<asrwt>0</asrwt>
<pdfrwt beam="1">  1        2 0.35865959E+00 0.81723309E+03</pdfrwt>
<pdfrwt beam="2">  1       -2 0.11018507E-01 0.81723309E+03</pdfrwt>
<totfact> 0.26169383E+02</totfact>
</mgrwt>
</event>
<event>
 6    1  0.2426116E-005  0.2866860E+04  0.7818608E-02  0.8282806E-01
         -1   -1    0    0    0  501 -0.00000000000E+00  0.00000000000E+00  0.20036173526E+04  0.20036173526E+04  0.00000000000E+00 0.  1.
          1   -1    0    0  501    0  0.00000000000E+00 -0.00000000000E+00 -0.10255062309E+04  0.10255062309E+04  0.00000000000E+00 0. -1.
         23    2    1    2    0    0  0.11005441595E+04 -0.72481350760E+03 -0.10349370735E+03  0.13243006971E+04  0.80680362717E+02 0.  0.
         11    1    3    3    0    0  0.57255050288E+03 -0.40000459797E+03 -0.19286095697E+02  0.69870573937E+03  0.00000000000E+00 0. -1.
        -11    1    3    3    0    0  0.52799365664E+03 -0.32480890963E+03 -0.84207611653E+02  0.62559495769E+03  0.00000000000E+00 0.  1.
         22    1    1    2    0    0 -0.11005441595E+04  0.72481350760E+03  0.10816048290E+04  0.17048228864E+04  0.00000000000E+00 0.  1.
<mgrwt>
<rscale>  0 0.28668604E+04</rscale>
<asrwt>0</asrwt>
<pdfrwt beam="1">  1        1 0.15777019E+00 0.28668604E+04</pdfrwt>
<pdfrwt beam="2">  1       -1 0.30824882E+00 0.28668604E+04</pdfrwt>
<totfact> 0.36318421E-01</totfact>
</mgrwt>
</event>
<event>
 6    1  0.1885829E-005  0.1084041E+04  0.7818608E-02  0.9220888E-01
          2   -1    0    0  501    0  0.00000000000E+00  0.00000000000E+00  0.10351757396E+04  0.10351757396E+04  0.00000000000E+00 0. -1.
         -2   -1    0    0    0  501 -0.00000000000E+00 -0.00000000000E+00 -0.28380310302E+03  0.28380310302E+03  0.00000000000E+00 0.  1.
         23    2    1    2    0    0  0.16372649677E+03 -0.49264161993E+03  0.55248113191E+03  0.76304722627E+03  0.86622958709E+02 0.  0.
         13    1    3    3    0    0  0.53654704282E+02 -0.15012875262E+03  0.23034841097E+03  0.28013900137E+03  0.00000000000E+00 0.  1.
        -13    1    3    3    0    0  0.11007179249E+03 -0.34251286731E+03  0.32213272094E+03  0.48290822490E+03  0.00000000000E+00 0. -1.
         22    1    1    2    0    0 -0.16372649677E+03  0.49264161993E+03  0.19889150468E+03  0.55593161635E+03  0.00000000000E+00 0.  1.
<mgrwt>
<rscale>  0 0.10840408E+04</rscale>
<asrwt>0</asrwt>
<pdfrwt beam="1">  1        2 0.15925780E+00 0.10840408E+04</pdfrwt>
<pdfrwt beam="2">  1       -2 0.43662016E-01 0.10840408E+04</pdfrwt>
<totfact> 0.11817087E+02</totfact>
</mgrwt>
</event>
<event>
 6    1  0.1885829E-005  0.3154401E+04  0.7818608E-02  0.8200965E-01
         -2   -1    0    0    0  501 -0.00000000000E+00  0.00000000000E+00  0.85582200276E+03  0.85582200276E+03  0.00000000000E+00 0.  1.
          2   -1    0    0  501    0  0.00000000000E+00 -0.00000000000E+00 -0.29066334707E+04  0.29066334707E+04  0.00000000000E+00 0. -1.
         23    2    1    2    0    0  0.15039011525E+03  0.82834181897E+03 -0.26151935369E+04  0.27489001096E+04  0.91908764926E+02 0.  0.
         11    1    3    3    0    0  0.79377315520E+02  0.32199904500E+03 -0.90194353866E+03  0.96098194059E+03  0.00000000000E+00 0. -1.
        -11    1    3    3    0    0  0.71012799725E+02  0.50634277397E+03 -0.17132499983E+04  0.17879181690E+04  0.00000000000E+00 0.  1.
         22    1    1    2    0    0 -0.15039011525E+03 -0.82834181897E+03  0.56438206900E+03  0.10135553639E+04  0.00000000000E+00 0.  1.
<mgrwt>
<rscale>  0 0.31544007E+04</rscale>
<asrwt>0</asrwt>
<pdfrwt beam="1">  1        2 0.44717438E+00 0.31544007E+04</pdfrwt>
<pdfrwt beam="2">  1       -2 0.13166492E+00 0.31544007E+04</pdfrwt>
<totfact> 0.70694197E-01</totfact>
</mgrwt>
</event>
<event>
 6    1  0.1885829E-005  0.2443693E+04  0.7818608E-02  0.8423324E-01
          2   -1    0    0  501    0  0.00000000000E+00  0.00000000000E+00  0.15007292772E+04  0.15007292772E+04  0.00000000000E+00 0. -1.
         -2   -1    0    0    0  501 -0.00000000000E+00 -0.00000000000E+00 -0.99478870586E+03  0.99478870586E+03  0.00000000000E+00 0.  1.
         23    2    1    2    0    0  0.24785600052E+03 -0.68536438704E+03  0.12526845239E+04  0.14520701067E+04  0.90178370920E+02 0.  0.
         13    1    3    3    0    0  0.20663846544E+03 -0.51021739507E+03  0.87568481498E+03  0.10343331866E+04  0.00000000000E+00 0.  1.
        -13    1    3    3    0    0  0.41217535071E+02 -0.17514699197E+03  0.37699970887E+03  0.41773692018E+03  0.00000000000E+00 0. -1.
         22    1    1    2    0    0 -0.24785600052E+03  0.68536438704E+03 -0.74674395250E+03  0.10434478763E+04  0.00000000000E+00 0.  1.
<mgrwt>
<rscale>  0 0.24436927E+04</rscale>
<asrwt>0</asrwt>
<pdfrwt beam="1">  1        2 0.23088143E+00 0.24436927E+04</pdfrwt>
<pdfrwt beam="2">  1       -2 0.15304441E+00 0.24436927E+04</pdfrwt>
<totfact> 0.32277906E+00</totfact>
</mgrwt>
</event>
<event>
 6    1  0.1885829E-005  0.3050407E+03  0.7818608E-02  0.1082748E+00
         -2   -1    0    0    0  501 -0.00000000000E+00  0.00000000000E+00  0.18039114835E+02  0.18039114835E+02  0.00000000000E+00 0.  1.
          2   -1    0    0  501    0  0.00000000000E+00 -0.00000000000E+00 -0.12895568435E+04  0.12895568435E+04  0.00000000000E+00 0. -1.
         23    2    1    2    0    0 -0.86635119367E+02 -0.96091513461E+02 -0.90589967371E+03  0.91976121907E+03  0.92559485835E+02 0.  0.
         13    1    3    3    0    0 -0.23771584029E+02 -0.30109770754E+02 -0.58261749348E+03  0.58387912294E+03  0.00000000000E+00 0. -1.
        -13    1    3    3    0    0 -0.62863535339E+02 -0.65981742707E+02 -0.32328218023E+03  0.33588209613E+03  0.00000000000E+00 0.  1.
         22    1    1    2    0    0  0.86635119367E+02  0.96091513461E+02 -0.36561805491E+03  0.38783473922E+03  0.00000000000E+00 0.  1.
<mgrwt>
<rscale>  0 0.30504074E+03</rscale>
<asrwt>0</asrwt>
<pdfrwt beam="1">  1        2 0.19839334E+00 0.30504074E+03</pdfrwt>
<pdfrwt beam="2">  1       -2 0.27752487E-02 0.30504074E+03</pdfrwt>
<totfact> 0.84767400E+03</totfact>
</mgrwt>
</event>
<event>
 6    1  0.1885829E-005  0.2756126E+04  0.7818608E-02  0.8317020E-01
          2   -1    0    0  501    0  0.00000000000E+00  0.00000000000E+00  0.20677314372E+04  0.20677314372E+04  0.00000000000E+00 0. -1.
         -2   -1    0    0    0  501 -0.00000000000E+00 -0.00000000000E+00 -0.91842580532E+03  0.91842580532E+03  0.00000000000E+00 0.  1.
         23    2    1    2    0    0 -0.12852436828E+03 -0.10956685851E+04 -0.31688732543E+03  0.11512921386E+04  0.89709808139E+02 0.  0.
         13    1    3    3    0    0  0.73317987081E+01 -0.26583587445E+03 -0.77689502848E+02  0.27705256950E+03  0.00000000000E+00 0. -1.
        -13    1    3    3    0    0 -0.13585616699E+03 -0.82983271066E+03 -0.23919782259E+03  0.87423956906E+03  0.00000000000E+00 0.  1.
         22    1    1    2    0    0  0.12852436828E+03  0.10956685851E+04  0.14661929573E+04  0.18348651040E+04  0.00000000000E+00 0. -1.
<mgrwt>
<rscale>  0 0.27561262E+04</rscale>
<asrwt>0</asrwt>
<pdfrwt beam="1">  1        2 0.31811253E+00 0.27561262E+04</pdfrwt>
<pdfrwt beam="2">  1       -2 0.14129628E+00 0.27561262E+04</pdfrwt>
<totfact> 0.18755635E+00</totfact>
</mgrwt>
</event>
<event>
 6    1  0.1885829E-005  0.2320954E+04  0.7818608E-02  0.8469705E-01
         -2   -1    0    0    0  501 -0.00000000000E+00  0.00000000000E+00  0.15926567881E+04  0.15926567881E+04  0.00000000000E+00 0.  1.
          2   -1    0    0  501    0  0.00000000000E+00 -0.00000000000E+00 -0.84557222335E+03  0.84557222335E+03  0.00000000000E+00 0. -1.
         23    2    1    2    0    0 -0.30878725119E+03  0.18734398503E+02  0.15472208005E+04  0.15803720654E+04  0.89348280252E+02 0.  0.
         11    1    3    3    0    0 -0.65310059260E+02  0.40350672648E+02  0.32441159437E+03  0.33337135927E+03  0.00000000000E+00 0. -1.
        -11    1    3    3    0    0 -0.24347719193E+03 -0.21616274144E+02  0.12228092062E+04  0.12470007061E+04  0.00000000000E+00 0.  1.
         22    1    1    2    0    0  0.30878725119E+03 -0.18734398503E+02 -0.80013623577E+03  0.85785694611E+03  0.00000000000E+00 0. -1.
<mgrwt>
<rscale>  0 0.23209535E+04</rscale>
<asrwt>0</asrwt>
<pdfrwt beam="1">  1        2 0.13008803E+00 0.23209535E+04</pdfrwt>
<pdfrwt beam="2">  1       -2 0.24502412E+00 0.23209535E+04</pdfrwt>
<totfact> 0.19947869E+00</totfact>
</mgrwt>
</event>
<event>
 6    1  0.1885829E-005  0.1198312E+04  0.7818608E-02  0.9114335E-01
         -2   -1    0    0    0  501 -0.00000000000E+00  0.00000000000E+00  0.75943849455E+03  0.75943849455E+03  0.00000000000E+00 0.  1.
          2   -1    0    0  501    0  0.00000000000E+00 -0.00000000000E+00 -0.47270214835E+03  0.47270214835E+03  0.00000000000E+00 0. -1.
         23    2    1    2    0    0 -0.23968475668E+03  0.51397124854E+03  0.33110196701E+03  0.66329660873E+03  0.93373720470E+02 0.  0.
         11    1    3    3    0    0 -0.13253487738E+03  0.25767876799E+03  0.11666590486E+03  0.31236961208E+03  0.00000000000E+00 0. -1.
        -11    1    3    3    0    0 -0.10714987930E+03  0.25629248055E+03  0.21443606216E+03  0.35092699664E+03  0.00000000000E+00 0.  1.
         22    1    1    2    0    0  0.23968475668E+03 -0.51397124854E+03 -0.44365620810E+02  0.56884403418E+03  0.00000000000E+00 0. -1.
<mgrwt>
<rscale>  0 0.11983125E+04</rscale>
<asrwt>0</asrwt>
<pdfrwt beam="1">  1        2 0.72723407E-01 0.11983125E+04</pdfrwt>
<pdfrwt beam="2">  1       -2 0.11683669E+00 0.11983125E+04</pdfrwt>
<totfact> 0.36779399E+01</totfact>
</mgrwt>
</event>
<event>
 6    1  0.1885829E-005  0.2804804E+04  0.7818608E-02  0.8301778E-01
         -2   -1    0    0    0  501 -0.00000000000E+00  0.00000000000E+00  0.52032249147E+03  0.52032249147E+03  0.00000000000E+00 0.  1.
          2   -1    0    0  501    0  0.00000000000E+00 -0.00000000000E+00 -0.37798313352E+04  0.37798313352E+04  0.00000000000E+00 0. -1.
         23    2    1    2    0    0 -0.13068423137E+04  0.26407689255E+03 -0.22908678358E+04  0.26521735961E+04  0.91519969272E+02 0.  0.
         13    1    3    3    0    0 -0.82950718171E+03  0.15457522205E+03 -0.13644323819E+04  0.16042603867E+04  0.00000000000E+00 0. -1.
        -13    1    3    3    0    0 -0.47733513197E+03  0.10950167050E+03 -0.92643545397E+03  0.10479132094E+04  0.00000000000E+00 0.  1.
         22    1    1    2    0    0  0.13068423137E+04 -0.26407689255E+03 -0.96864100788E+03  0.16479802305E+04  0.00000000000E+00 0. -1.
<mgrwt>
<rscale>  0 0.28048039E+04</rscale>
<asrwt>0</asrwt>
<pdfrwt beam="1">  1        2 0.58151252E+00 0.28048039E+04</pdfrwt>
<pdfrwt beam="2">  1       -2 0.80049613E-01 0.28048039E+04</pdfrwt>
<totfact> 0.61095889E-01</totfact>
</mgrwt>
</event>
<event>
 6    1  0.1885829E-005  0.2368551E+04  0.7818608E-02  0.8451372E-01
         -2   -1    0    0    0  501 -0.00000000000E+00  0.00000000000E+00  0.43789698423E+03  0.43789698423E+03  0.00000000000E+00 0.  1.
          2   -1    0    0  501    0  0.00000000000E+00 -0.00000000000E+00 -0.32028262187E+04  0.32028262187E+04  0.00000000000E+00 0. -1.
         23    2    1    2    0    0 -0.26648177645E+03  0.49486967049E+03  0.21486786043E+03  0.60838099686E+03  0.89725759626E+02 0.  0.
         13    1    3    3    0    0 -0.14069463231E+03  0.32430692729E+03  0.16767543031E+03  0.39126079868E+03  0.00000000000E+00 0.  1.
        -13    1    3    3    0    0 -0.12578714414E+03  0.17056274320E+03  0.47192430119E+02  0.21712019818E+03  0.00000000000E+00 0. -1.
         22    1    1    2    0    0  0.26648177645E+03 -0.49486967049E+03 -0.29797970949E+04  0.30323422060E+04  0.00000000000E+00 0. -1.
<mgrwt>
<rscale>  0 0.23685506E+04</rscale>
<asrwt>0</asrwt>
<pdfrwt beam="1">  1        2 0.49274250E+00 0.23685506E+04</pdfrwt>
<pdfrwt beam="2">  1       -2 0.67368766E-01 0.23685506E+04</pdfrwt>
<totfact> 0.23549192E+00</totfact>
</mgrwt>
</event>
<event>
 6    1  0.1885829E-005  0.1990563E+04  0.7818608E-02  0.8611046E-01
          2   -1    0    0  501    0  0.00000000000E+00  0.00000000000E+00  0.13806206329E+04  0.13806206329E+04  0.00000000000E+00 0. -1.
         -2   -1    0    0    0  501 -0.00000000000E+00 -0.00000000000E+00 -0.71749262160E+03  0.71749262160E+03  0.00000000000E+00 0.  1.
         23    2    1    2    0    0 -0.78546347029E+03  0.55611895612E+03  0.59085223611E+03  0.11329993005E+04  0.91432452972E+02 0.  0.
         13    1    3    3    0    0 -0.11838294675E+03  0.67236921577E+02  0.11898847247E+03  0.18081366730E+03  0.00000000000E+00 0. -1.
        -13    1    3    3    0    0 -0.66708052354E+03  0.48888203454E+03  0.47186376364E+03  0.95218563318E+03  0.00000000000E+00 0.  1.
         22    1    1    2    0    0  0.78546347029E+03 -0.55611895612E+03  0.72275775168E+02  0.96511395399E+03  0.00000000000E+00 0.  1.
<mgrwt>
<rscale>  0 0.19905629E+04</rscale>
<asrwt>0</asrwt>
<pdfrwt beam="1">  1        2 0.21240317E+00 0.19905629E+04</pdfrwt>
<pdfrwt beam="2">  1       -2 0.11038348E+00 0.19905629E+04</pdfrwt>
<totfact> 0.89944049E+00</totfact>
</mgrwt>
</event>
<event>
 6    1  0.1885829E-005  0.1713035E+04  0.7818608E-02  0.8753965E-01
          2   -1    0    0  501    0  0.00000000000E+00  0.00000000000E+00  0.10490414313E+04  0.10490414313E+04  0.00000000000E+00 0. -1.
         -2   -1    0    0    0  501 -0.00000000000E+00 -0.00000000000E+00 -0.69932636681E+03  0.69932636681E+03  0.00000000000E+00 0.  1.
         23    2    1    2    0    0  0.84214753391E+03 -0.47553763532E+02  0.31200378988E+03  0.90403612776E+03  0.91984379663E+02 0.  0.
         13    1    3    3    0    0  0.18558107808E+03  0.27443537027E+02  0.73256350277E+02  0.20139507721E+03  0.00000000000E+00 0. -1.
        -13    1    3    3    0    0  0.65656645583E+03 -0.74997300560E+02  0.23874743960E+03  0.70264105056E+03  0.00000000000E+00 0.  1.
         22    1    1    2    0    0 -0.84214753391E+03  0.47553763532E+02  0.37711274598E+02  0.84433167034E+03  0.00000000000E+00 0. -1.
<mgrwt>
<rscale>  0 0.17130351E+04</rscale>
<asrwt>0</asrwt>
<pdfrwt beam="1">  1        2 0.16139099E+00 0.17130351E+04</pdfrwt>
<pdfrwt beam="2">  1       -2 0.10758867E+00 0.17130351E+04</pdfrwt>
<totfact> 0.15448804E+01</totfact>
</mgrwt>
</event>
<event>
 6    1  0.1885829E-005  0.1499294E+04  0.7818608E-02  0.8884923E-01
         -1   -1    0    0    0  501 -0.00000000000E+00  0.00000000000E+00  0.94295754525E+03  0.94295754525E+03  0.00000000000E+00 0.  1.
          1   -1    0    0  501    0  0.00000000000E+00 -0.00000000000E+00 -0.59596559108E+03  0.59596559108E+03  0.00000000000E+00 0. -1.
         23    2    1    2    0    0  0.12163061904E+03  0.30876935120E+03  0.86087574706E+03  0.92719683126E+03  0.91947769429E+02 0.  0.
         13    1    3    3    0    0  0.72519848099E+02  0.71619798911E+02  0.23883393066E+03  0.25967319923E+03  0.00000000000E+00 0. -1.
        -13    1    3    3    0    0  0.49110770938E+02  0.23714955229E+03  0.62204181640E+03  0.66752363203E+03  0.00000000000E+00 0.  1.
         22    1    1    2    0    0 -0.12163061904E+03 -0.30876935120E+03 -0.51388379289E+03  0.61172630507E+03  0.00000000000E+00 0. -1.
<mgrwt>
<rscale>  0 0.14992935E+04</rscale>
<asrwt>0</asrwt>
<pdfrwt beam="1">  1        1 0.91687014E-01 0.14992935E+04</pdfrwt>
<pdfrwt beam="2">  1       -1 0.14507039E+00 0.14992935E+04</pdfrwt>
<totfact> 0.12768368E+01</totfact>
</mgrwt>
</event>
<event>
 6    1  0.1885829E-005  0.3804883E+04  0.7818608E-02  0.8045108E-01
         -2   -1    0    0    0  501 -0.00000000000E+00  0.00000000000E+00  0.17485653715E+04  0.17485653715E+04  0.00000000000E+00 0.  1.
          2   -1    0    0  501    0  0.00000000000E+00 -0.00000000000E+00 -0.20698588845E+04  0.20698588845E+04  0.00000000000E+00 0. -1.
         23    2    1    2    0    0  0.92633795795E+03  0.12424558739E+04 -0.12661899741E+04  0.20033132585E+04  0.90710253631E+02 0.  0.
         11    1    3    3    0    0  0.52950417576E+03  0.67046454312E+03 -0.64801611001E+03  0.10722976520E+04  0.00000000000E+00 0.  1.
        -11    1    3    3    0    0  0.39683378219E+03  0.57199133079E+03 -0.61817386411E+03  0.93101560645E+03  0.00000000000E+00 0. -1.
         22    1    1    2    0    0 -0.92633795795E+03 -0.12424558739E+04  0.94489646112E+03  0.18151109975E+04  0.00000000000E+00 0. -1.
<mgrwt>
<rscale>  0 0.38048830E+04</rscale>
<asrwt>0</asrwt>
<pdfrwt beam="1">  1        2 0.31843983E+00 0.38048830E+04</pdfrwt>
<pdfrwt beam="2">  1       -2 0.26901006E+00 0.38048830E+04</pdfrwt>
<totfact> 0.24062283E-01</totfact>
</mgrwt>
</event>
<event>
 6    1  0.1885829E-005  0.1343164E+04  0.7818608E-02  0.8996019E-01
         -2   -1    0    0    0  501 -0.00000000000E+00  0.00000000000E+00  0.20173664236E+03  0.20173664236E+03  0.00000000000E+00 0.  1.
          2   -1    0    0  501    0  0.00000000000E+00 -0.00000000000E+00 -0.22356974179E+04  0.22356974179E+04  0.00000000000E+00 0. -1.
         23    2    1    2    0    0 -0.64405397721E+03 -0.12824008574E+03 -0.79362641546E+03  0.10339810436E+04  0.89570453202E+02 0.  0.
         13    1    3    3    0    0 -0.13805949247E+03 -0.59946887309E+01 -0.21581279968E+03  0.25626455912E+03  0.00000000000E+00 0.  1.
        -13    1    3    3    0    0 -0.50599448473E+03 -0.12224539700E+03 -0.57781361578E+03  0.77771648449E+03  0.00000000000E+00 0. -1.
         22    1    1    2    0    0  0.64405397721E+03  0.12824008574E+03 -0.12403343601E+04  0.14034530166E+04  0.00000000000E+00 0. -1.
<mgrwt>
<rscale>  0 0.13431636E+04</rscale>
<asrwt>0</asrwt>
<pdfrwt beam="1">  1        2 0.34395345E+00 0.13431636E+04</pdfrwt>
<pdfrwt beam="2">  1       -2 0.31036407E-01 0.13431636E+04</pdfrwt>
<totfact> 0.46455662E+01</totfact>
</mgrwt>
</event>
<event>
 6    1  0.1885829E-005  0.5408928E+03  0.7818608E-02  0.1003624E+00
          4   -1    0    0  501    0  0.00000000000E+00  0.00000000000E+00  0.54471358749E+02  0.54471358749E+02  0.00000000000E+00 0. -1.
         -4   -1    0    0    0  501 -0.00000000000E+00 -0.00000000000E+00 -0.13427471928E+04  0.13427471928E+04  0.00000000000E+00 0.  1.
         23    2    1    2    0    0 -0.12153307439E+03  0.52751321381E+02 -0.12488263465E+04  0.12589823329E+04  0.88973483698E+02 0.  0.
         13    1    3    3    0    0 -0.10108358122E+02 -0.22371449275E+02 -0.15500883666E+03  0.15694075344E+03  0.00000000000E+00 0.  1.
        -13    1    3    3    0    0 -0.11142471626E+03  0.75122770656E+02 -0.10938175098E+04  0.11020415795E+04  0.00000000000E+00 0. -1.
         22    1    1    2    0    0  0.12153307439E+03 -0.52751321381E+02 -0.39449487565E+02  0.13823621865E+03  0.00000000000E+00 0. -1.
<mgrwt>
<rscale>  0 0.54089283E+03</rscale>
<asrwt>0</asrwt>
<pdfrwt beam="1">  1        4 0.83802099E-02 0.54089283E+03</pdfrwt>
<pdfrwt beam="2">  1       -4 0.20657647E+00 0.54089283E+03</pdfrwt>
<totfact> 0.25582821E+01</totfact>
</mgrwt>
</event>
<event>
 6    1  0.1885829E-005  0.2476317E+04  0.7818608E-02  0.8411471E-01
          2   -1    0    0  501    0  0.00000000000E+00  0.00000000000E+00  0.14525020972E+04  0.14525020972E+04  0.00000000000E+00 0. -1.
         -2   -1    0    0    0  501 -0.00000000000E+00 -0.00000000000E+00 -0.10554455233E+04  0.10554455233E+04  0.00000000000E+00 0.  1.
         23    2    1    2    0    0  0.97210228643E+03  0.56680538511E+03 -0.31981917812E+03  0.11737204870E+04  0.95311463074E+02 0.  0.
         13    1    3    3    0    0  0.67939231697E+03  0.34582639595E+03 -0.22639725358E+03  0.79525186760E+03  0.00000000000E+00 0.  1.
        -13    1    3    3    0    0  0.29270996946E+03  0.22097898916E+03 -0.93421924542E+02  0.37846861938E+03  0.00000000000E+00 0. -1.
         22    1    1    2    0    0 -0.97210228643E+03 -0.56680538511E+03  0.71687575200E+03  0.13342271335E+04  0.00000000000E+00 0. -1.
<mgrwt>
<rscale>  0 0.24763173E+04</rscale>
<asrwt>0</asrwt>
<pdfrwt beam="1">  1        2 0.22346186E+00 0.24763173E+04</pdfrwt>
<pdfrwt beam="2">  1       -2 0.16237623E+00 0.24763173E+04</pdfrwt>
<totfact> 0.29204705E+00</totfact>
</mgrwt>
</event>
<event>
 6    1  0.1885829E-005  0.9184993E+03  0.7818608E-02  0.9402747E-01
          1   -1    0    0  501    0  0.00000000000E+00  0.00000000000E+00  0.10477480883E+04  0.10477480883E+04  0.00000000000E+00 0. -1.
         -1   -1    0    0    0  501 -0.00000000000E+00 -0.00000000000E+00 -0.20129863102E+03  0.20129863102E+03  0.00000000000E+00 0.  1.
         23    2    1    2    0    0  0.13985925184E+03  0.30234141403E+03  0.84828810460E+03  0.91591863346E+03  0.91341632048E+02 0.  0.
         13    1    3    3    0    0  0.92591791578E+02  0.21212449521E+03  0.46625066940E+03  0.52053792182E+03  0.00000000000E+00 0.  1.
        -13    1    3    3    0    0  0.47267460259E+02  0.90216918818E+02  0.38203743520E+03  0.39538071164E+03  0.00000000000E+00 0. -1.
         22    1    1    2    0    0 -0.13985925184E+03 -0.30234141403E+03 -0.18386473279E+01  0.33312808586E+03  0.00000000000E+00 0.  1.
<mgrwt>
<rscale>  0 0.91849933E+03</rscale>
<asrwt>0</asrwt>
<pdfrwt beam="1">  1        1 0.16119201E+00 0.91849933E+03</pdfrwt>
<pdfrwt beam="2">  1       -1 0.30969021E-01 0.91849933E+03</pdfrwt>
<totfact> 0.13478558E+02</totfact>
</mgrwt>
</event>
<event>
 6    1  0.1885829E-005  0.5948198E+04  0.7818608E-02  0.7696858E-01
          2   -1    0    0  501    0  0.00000000000E+00  0.00000000000E+00  0.37454277027E+04  0.37454277027E+04  0.00000000000E+00 0. -1.
         -2   -1    0    0    0  501 -0.00000000000E+00 -0.00000000000E+00 -0.23616167682E+04  0.23616167682E+04  0.00000000000E+00 0.  1.
         23    2    1    2    0    0 -0.63561376364E+03 -0.19303525721E+04 -0.15363682800E+04  0.25492765535E+04  0.90097421586E+02 0.  0.
         11    1    3    3    0    0 -0.13549646166E+03 -0.48620941339E+03 -0.34290170669E+03  0.61019707082E+03  0.00000000000E+00 0.  1.
        -11    1    3    3    0    0 -0.50011730199E+03 -0.14441431587E+04 -0.11934665733E+04  0.19390794827E+04  0.00000000000E+00 0. -1.
         22    1    1    2    0    0  0.63561376364E+03  0.19303525721E+04  0.29201792145E+04  0.35577679174E+04  0.00000000000E+00 0. -1.
<mgrwt>
<rscale>  0 0.59481980E+04</rscale>
<asrwt>0</asrwt>
<pdfrwt beam="1">  1        2 0.57621965E+00 0.59481980E+04</pdfrwt>
<pdfrwt beam="2">  1       -2 0.36332566E+00 0.59481980E+04</pdfrwt>
<totfact> 0.46589736E-03</totfact>
</mgrwt>
</event>
<event>
 6    1  0.1885829E-005  0.1736402E+04  0.7818608E-02  0.8740871E-01
         -2   -1    0    0    0  501 -0.00000000000E+00  0.00000000000E+00  0.60933638738E+03  0.60933638738E+03  0.00000000000E+00 0.  1.
          2   -1    0    0  501    0  0.00000000000E+00 -0.00000000000E+00 -0.12370394293E+04  0.12370394293E+04  0.00000000000E+00 0. -1.
         23    2    1    2    0    0 -0.26776070453E+03 -0.31425301060E+03  0.49450779628E+03  0.65063005987E+03  0.91273022649E+02 0.  0.
         11    1    3    3    0    0 -0.16769694863E+03 -0.12645084049E+03  0.24597193317E+03  0.32344129845E+03  0.00000000000E+00 0.  1.
        -11    1    3    3    0    0 -0.10006375590E+03 -0.18780217012E+03  0.24853586311E+03  0.32718876142E+03  0.00000000000E+00 0. -1.
         22    1    1    2    0    0  0.26776070453E+03  0.31425301060E+03 -0.11222108382E+04  0.11957457569E+04  0.00000000000E+00 0. -1.
<mgrwt>
<rscale>  0 0.17364022E+04</rscale>
<asrwt>0</asrwt>
<pdfrwt beam="1">  1        2 0.19031376E+00 0.17364022E+04</pdfrwt>
<pdfrwt beam="2">  1       -2 0.93744060E-01 0.17364022E+04</pdfrwt>
<totfact> 0.16425450E+01</totfact>
</mgrwt>
</event>
<event>
 6    1  0.1885829E-005  0.2125804E+04  0.7818608E-02  0.8549961E-01
          2   -1    0    0  501    0  0.00000000000E+00  0.00000000000E+00  0.13847164563E+04  0.13847164563E+04  0.00000000000E+00 0. -1.
         -2   -1    0    0    0  501 -0.00000000000E+00 -0.00000000000E+00 -0.81587838845E+03  0.81587838845E+03  0.00000000000E+00 0.  1.
         23    2    1    2    0    0 -0.78921350847E+03  0.63086968350E+03 -0.50084094537E+02  0.10157238971E+04  0.91280332406E+02 0.  0.
         11    1    3    3    0    0 -0.17137773517E+03  0.10525262080E+03  0.16704288490E+02  0.20181049416E+03  0.00000000000E+00 0. -1.
        -11    1    3    3    0    0 -0.61783577330E+03  0.52561706270E+03 -0.66788383026E+02  0.81391340293E+03  0.00000000000E+00 0.  1.
         22    1    1    2    0    0  0.78921350847E+03 -0.63086968350E+03  0.61892216240E+03  0.11848709477E+04  0.00000000000E+00 0. -1.
<mgrwt>
<rscale>  0 0.21258036E+04</rscale>
<asrwt>0</asrwt>
<pdfrwt beam="1">  1        2 0.21303330E+00 0.21258036E+04</pdfrwt>
<pdfrwt beam="2">  1       -2 0.12551975E+00 0.21258036E+04</pdfrwt>
<totfact> 0.64444007E+00</totfact>
</mgrwt>
</event>
<event>
 6    1  0.1885829E-005  0.2182722E+04  0.7818608E-02  0.8525654E-01
         -3   -1    0    0    0  501 -0.00000000000E+00  0.00000000000E+00  0.52855948410E+03  0.52855948410E+03  0.00000000000E+00 0.  1.
          3   -1    0    0  501    0  0.00000000000E+00 -0.00000000000E+00 -0.22534235791E+04  0.22534235791E+04  0.00000000000E+00 0. -1.
         23    2    1    2    0    0 -0.25073471402E+01 -0.50448109799E+03  0.36719076159E+03  0.62996052894E+03  0.86681875868E+02 0.  0.
         13    1    3    3    0    0  0.35712972465E+02 -0.16185445756E+03  0.14122416945E+03  0.21775341069E+03  0.00000000000E+00 0. -1.
        -13    1    3    3    0    0 -0.38220319605E+02 -0.34262664044E+03  0.22596659214E+03  0.41220711824E+03  0.00000000000E+00 0.  1.
         22    1    1    2    0    0  0.25073471402E+01  0.50448109799E+03 -0.20920548566E+04  0.21520225343E+04  0.00000000000E+00 0. -1.
<mgrwt>
<rscale>  0 0.21827216E+04</rscale>
<asrwt>0</asrwt>
<pdfrwt beam="1">  1        3 0.34668054E+00 0.21827216E+04</pdfrwt>
<pdfrwt beam="2">  1       -3 0.81316846E-01 0.21827216E+04</pdfrwt>
<totfact> 0.72118266E-02</totfact>
</mgrwt>
</event>
<event>
 6    1  0.1885829E-005  0.2312646E+04  0.7818608E-02  0.8472952E-01
         -2   -1    0    0    0  501 -0.00000000000E+00  0.00000000000E+00  0.67914351161E+03  0.67914351161E+03  0.00000000000E+00 0. -1.
          2   -1    0    0  501    0  0.00000000000E+00 -0.00000000000E+00 -0.19687780212E+04  0.19687780212E+04  0.00000000000E+00 0.  1.
         23    2    1    2    0    0 -0.71336037086E+03 -0.82808312913E+03 -0.10717199909E+04  0.15334299784E+04  0.90659098266E+02 0.  0.
         11    1    3    3    0    0 -0.40235116225E+03 -0.50553070954E+03 -0.58088466660E+03  0.86883528470E+03  0.00000000000E+00 0. -1.
        -11    1    3    3    0    0 -0.31100920860E+03 -0.32255241959E+03 -0.49083532433E+03  0.66459469365E+03  0.00000000000E+00 0.  1.
         22    1    1    2    0    0  0.71336037086E+03  0.82808312913E+03 -0.21791451862E+03  0.11144915544E+04  0.00000000000E+00 0. -1.
<mgrwt>
<rscale>  0 0.23126459E+04</rscale>
<asrwt>0</asrwt>
<pdfrwt beam="1">  1        2 0.30288892E+00 0.23126459E+04</pdfrwt>
<pdfrwt beam="2">  1       -2 0.10448362E+00 0.23126459E+04</pdfrwt>
<totfact> 0.46844608E+00</totfact>
</mgrwt>
</event>
<event>
 6    1  0.1885829E-005  0.4151605E+04  0.7818608E-02  0.7974642E-01
          2   -1    0    0  501    0  0.00000000000E+00  0.00000000000E+00  0.18416945977E+04  0.18416945977E+04  0.00000000000E+00 0. -1.
         -2   -1    0    0    0  501 -0.00000000000E+00 -0.00000000000E+00 -0.23396694536E+04  0.23396694536E+04  0.00000000000E+00 0.  1.
         23    2    1    2    0    0 -0.64303240073E+03 -0.12605190978E+03 -0.22319580410E+04  0.23276981055E+04  0.84628728240E+02 0.  0.
         11    1    3    3    0    0 -0.53414376034E+03 -0.75046383288E+02 -0.18742135239E+04  0.19502866070E+04  0.00000000000E+00 0.  1.
        -11    1    3    3    0    0 -0.10888864039E+03 -0.51005526489E+02 -0.35774451709E+03  0.37741149856E+03  0.00000000000E+00 0. -1.
         22    1    1    2    0    0  0.64303240073E+03  0.12605190978E+03  0.17339831850E+04  0.18536659457E+04  0.00000000000E+00 0. -1.
<mgrwt>
<rscale>  0 0.41516053E+04</rscale>
<asrwt>0</asrwt>
<pdfrwt beam="1">  1        2 0.28333763E+00 0.41516053E+04</pdfrwt>
<pdfrwt beam="2">  1       -2 0.35994915E+00 0.41516053E+04</pdfrwt>
<totfact> 0.85778105E-02</totfact>
</mgrwt>
</event>
<event>
 6    1  0.1885829E-005  0.1636457E+04  0.7818608E-02  0.8798459E-01
         -2   -1    0    0    0  501 -0.00000000000E+00  0.00000000000E+00  0.21227549565E+03  0.21227549565E+03  0.00000000000E+00 0.  1.
          2   -1    0    0  501    0  0.00000000000E+00 -0.00000000000E+00 -0.31539122544E+04  0.31539122544E+04  0.00000000000E+00 0. -1.
         23    2    1    2    0    0 -0.18847702630E+03  0.53408443337E+03 -0.26662050283E+03  0.63187216095E+03  0.86059071784E+02 0.  0.
         11    1    3    3    0    0 -0.11157949280E+03  0.34299032802E+03 -0.21354428945E+03  0.41915809892E+03  0.00000000000E+00 0. -1.
        -11    1    3    3    0    0 -0.76897533499E+02  0.19109410535E+03 -0.53076213373E+02  0.21271406203E+03  0.00000000000E+00 0.  1.
         22    1    1    2    0    0  0.18847702630E+03 -0.53408443337E+03 -0.26750162560E+04  0.27343155891E+04  0.00000000000E+00 0. -1.
<mgrwt>
<rscale>  0 0.16364575E+04</rscale>
<asrwt>0</asrwt>
<pdfrwt beam="1">  1        2 0.48521726E+00 0.16364575E+04</pdfrwt>
<pdfrwt beam="2">  1       -2 0.32657769E-01 0.16364575E+04</pdfrwt>
<totfact> 0.11695513E+01</totfact>
</mgrwt>
</event>
<event>
 6    1  0.1885829E-005  0.3240363E+03  0.7818608E-02  0.1073807E+00
         -2   -1    0    0    0  501 -0.00000000000E+00  0.00000000000E+00  0.58399931740E+02  0.58399931740E+02  0.00000000000E+00 0.  1.
          2   -1    0    0  501    0  0.00000000000E+00 -0.00000000000E+00 -0.44948486107E+03  0.44948486107E+03  0.00000000000E+00 0. -1.
         23    2    1    2    0    0  0.11303099456E+03  0.51627375966E+02 -0.82157872705E+02  0.17490233382E+03  0.91648887873E+02 0.  0.
         11    1    3    3    0    0  0.27129056818E+02  0.54374058904E+02 -0.78189564179E+01  0.61267120750E+02  0.00000000000E+00 0.  1.
        -11    1    3    3    0    0  0.85901937741E+02 -0.27466829380E+01 -0.74338916287E+02  0.11363521307E+03  0.00000000000E+00 0. -1.
         22    1    1    2    0    0 -0.11303099456E+03 -0.51627375966E+02 -0.30892705662E+03  0.33298245899E+03  0.00000000000E+00 0. -1.
<mgrwt>
<rscale>  0 0.32403633E+03</rscale>
<asrwt>0</asrwt>
<pdfrwt beam="1">  1        2 0.69151515E-01 0.32403633E+03</pdfrwt>
<pdfrwt beam="2">  1       -2 0.89846052E-02 0.32403633E+03</pdfrwt>
<totfact> 0.55292066E+03</totfact>
</mgrwt>
</event>
<event>
 6    1  0.1885829E-005  0.2695528E+04  0.7818608E-02  0.8336457E-01
          2   -1    0    0  501    0  0.00000000000E+00  0.00000000000E+00  0.13517135967E+04  0.13517135967E+04  0.00000000000E+00 0. -1.
         -2   -1    0    0    0  501 -0.00000000000E+00 -0.00000000000E+00 -0.13438263045E+04  0.13438263045E+04  0.00000000000E+00 0.  1.
         23    2    1    2    0    0 -0.51330760904E+03  0.98676678994E+03  0.76241419665E+03  0.13514773101E+04  0.89566251008E+02 0.  0.
         13    1    3    3    0    0 -0.23198543575E+03  0.44974520638E+03  0.40106636521E+03  0.64571063361E+03  0.00000000000E+00 0. -1.
        -13    1    3    3    0    0 -0.28132217329E+03  0.53702158356E+03  0.36134783144E+03  0.70576667652E+03  0.00000000000E+00 0.  1.
         22    1    1    2    0    0  0.51330760904E+03 -0.98676678994E+03 -0.75452690448E+03  0.13440625911E+04  0.00000000000E+00 0.  1.
<mgrwt>
<rscale>  0 0.26955284E+04</rscale>
<asrwt>0</asrwt>
<pdfrwt beam="1">  1        2 0.20795594E+00 0.26955284E+04</pdfrwt>
<pdfrwt beam="2">  1       -2 0.20674251E+00 0.26955284E+04</pdfrwt>
<totfact> 0.16273176E+00</totfact>
</mgrwt>
</event>
<event>
 6    1  0.1885829E-005  0.2794710E+04  0.7818608E-02  0.8304912E-01
         -2   -1    0    0    0  501 -0.00000000000E+00  0.00000000000E+00  0.66902105123E+03  0.66902105123E+03  0.00000000000E+00 0.  1.
          2   -1    0    0  501    0  0.00000000000E+00 -0.00000000000E+00 -0.29185951258E+04  0.29185951258E+04  0.00000000000E+00 0. -1.
         23    2    1    2    0    0 -0.88184869016E+03  0.19460503712E+03 -0.24923799050E+04  0.26524782706E+04  0.90305882094E+02 0.  0.
         11    1    3    3    0    0 -0.21491637172E+03  0.18376474404E+02 -0.67254673295E+03  0.70629020214E+03  0.00000000000E+00 0. -1.
        -11    1    3    3    0    0 -0.66693231844E+03  0.17622856272E+03 -0.18198331721E+04  0.19461880685E+04  0.00000000000E+00 0.  1.
         22    1    1    2    0    0  0.88184869016E+03 -0.19460503712E+03  0.24280583040E+03  0.93513790646E+03  0.00000000000E+00 0.  1.
<mgrwt>
<rscale>  0 0.27947104E+04</rscale>
<asrwt>0</asrwt>
<pdfrwt beam="1">  1        2 0.44901463E+00 0.27947104E+04</pdfrwt>
<pdfrwt beam="2">  1       -2 0.10292632E+00 0.27947104E+04</pdfrwt>
<totfact> 0.13129255E+00</totfact>
</mgrwt>
</event>
<event>
 6    1  0.1885829E-005  0.7092687E+03  0.7818608E-02  0.9701512E-01
          2   -1    0    0  501    0  0.00000000000E+00  0.00000000000E+00  0.25143345052E+04  0.25143345052E+04  0.00000000000E+00 0. -1.
         -2   -1    0    0    0  501 -0.00000000000E+00 -0.00000000000E+00 -0.50019404882E+02  0.50019404882E+02  0.00000000000E+00 0.  1.
         23    2    1    2    0    0 -0.29475425020E+03 -0.18443762078E+03  0.13555955228E+04  0.14023916020E+04  0.90364151003E+02 0.  0.
         13    1    3    3    0    0 -0.17871049862E+03 -0.14300831467E+03  0.74015329221E+03  0.77473590103E+03  0.00000000000E+00 0.  1.
        -13    1    3    3    0    0 -0.11604375158E+03 -0.41429306110E+02  0.61544223061E+03  0.62765570093E+03  0.00000000000E+00 0. -1.
         22    1    1    2    0    0  0.29475425020E+03  0.18443762078E+03  0.11087195775E+04  0.11619623081E+04  0.00000000000E+00 0.  1.
<mgrwt>
<rscale>  0 0.70926868E+03</rscale>
<asrwt>0</asrwt>
<pdfrwt beam="1">  1        2 0.38682060E+00 0.70926868E+03</pdfrwt>
<pdfrwt beam="2">  1       -2 0.76952950E-02 0.70926868E+03</pdfrwt>
<totfact> 0.37263687E+02</totfact>
</mgrwt>
</event>
<event>
 6    1  0.1885829E-005  0.1325226E+04  0.7818608E-02  0.9009796E-01
         -1   -1    0    0    0  501 -0.00000000000E+00  0.00000000000E+00  0.31945869898E+03  0.31945869898E+03  0.00000000000E+00 0.  1.
          1   -1    0    0  501    0  0.00000000000E+00 -0.00000000000E+00 -0.13743754719E+04  0.13743754719E+04  0.00000000000E+00 0. -1.
         23    2    1    2    0    0 -0.12710079005E+03  0.44169069500E+03  0.73921154773E+02  0.47501492755E+03  0.94496367115E+02 0.  0.
         11    1    3    3    0    0 -0.47090392205E+02  0.23502762213E+03 -0.50556150710E+01  0.23975205410E+03  0.00000000000E+00 0. -1.
        -11    1    3    3    0    0 -0.80010397847E+02  0.20666307287E+03  0.78976769844E+02  0.23526287345E+03  0.00000000000E+00 0.  1.
         22    1    1    2    0    0  0.12710079005E+03 -0.44169069500E+03 -0.11288379277E+04  0.12188192433E+04  0.00000000000E+00 0. -1.
<mgrwt>
<rscale>  0 0.13252263E+04</rscale>
<asrwt>0</asrwt>
<pdfrwt beam="1">  1        1 0.21144238E+00 0.13252263E+04</pdfrwt>
<pdfrwt beam="2">  1       -1 0.49147493E-01 0.13252263E+04</pdfrwt>
<totfact> 0.32569107E+01</totfact>
</mgrwt>
</event>
<event>
 6    1  0.1885829E-005  0.1406599E+04  0.7818608E-02  0.8949055E-01
          2   -1    0    0  501    0  0.00000000000E+00  0.00000000000E+00  0.13326941016E+04  0.13326941016E+04  0.00000000000E+00 0. -1.
         -2   -1    0    0    0  501 -0.00000000000E+00 -0.00000000000E+00 -0.37115078946E+03  0.37115078946E+03  0.00000000000E+00 0.  1.
         23    2    1    2    0    0 -0.11169606951E+03 -0.46544844845E+03  0.11020582068E+04  0.12049834817E+04  0.91294194042E+02 0.  0.
         13    1    3    3    0    0 -0.29657731097E+02 -0.12517318249E+03  0.20456681711E+03  0.24165158657E+03  0.00000000000E+00 0. -1.
        -13    1    3    3    0    0 -0.82038338413E+02 -0.34027526596E+03  0.89749138970E+03  0.96333189513E+03  0.00000000000E+00 0.  1.
         22    1    1    2    0    0  0.11169606951E+03  0.46544844845E+03 -0.14051489468E+03  0.49886140934E+03  0.00000000000E+00 0.  1.
<mgrwt>
<rscale>  0 0.14065994E+04</rscale>
<asrwt>0</asrwt>
<pdfrwt beam="1">  1        2 0.20502986E+00 0.14065994E+04</pdfrwt>
<pdfrwt beam="2">  1       -2 0.57100122E-01 0.14065994E+04</pdfrwt>
<totfact> 0.44247566E+01</totfact>
</mgrwt>
</event>
<event>
 6    1  0.1885829E-005  0.9276058E+03  0.7818608E-02  0.9391716E-01
         -2   -1    0    0    0  501 -0.00000000000E+00  0.00000000000E+00  0.88139993065E+02  0.88139993065E+02  0.00000000000E+00 0.  1.
          2   -1    0    0  501    0  0.00000000000E+00 -0.00000000000E+00 -0.24405847239E+04  0.24405847239E+04  0.00000000000E+00 0. -1.
         23    2    1    2    0    0  0.22556472883E+03  0.25197065287E+03 -0.20346817956E+04  0.20646752155E+04  0.92655703327E+02 0.  0.
         11    1    3    3    0    0  0.80457286175E+02  0.13893977523E+03 -0.75849897180E+03  0.77530531164E+03  0.00000000000E+00 0.  1.
        -11    1    3    3    0    0  0.14510744266E+03  0.11303087764E+03 -0.12761828238E+04  0.12893699039E+04  0.00000000000E+00 0. -1.
         22    1    1    2    0    0 -0.22556472883E+03 -0.25197065287E+03 -0.31776293524E+03  0.46404950147E+03  0.00000000000E+00 0.  1.
<mgrwt>
<rscale>  0 0.92760578E+03</rscale>
<asrwt>0</asrwt>
<pdfrwt beam="1">  1        2 0.37547458E+00 0.92760578E+03</pdfrwt>
<pdfrwt beam="2">  1       -2 0.13559999E-01 0.92760578E+03</pdfrwt>
<totfact> 0.15940091E+02</totfact>
</mgrwt>
</event>
<event>
 6    1  0.1885829E-005  0.2229607E+04  0.7818608E-02  0.8506205E-01
          2   -1    0    0  501    0  0.00000000000E+00  0.00000000000E+00  0.20795034299E+04  0.20795034299E+04  0.00000000000E+00 0. -1.
         -2   -1    0    0    0  501 -0.00000000000E+00 -0.00000000000E+00 -0.59763623246E+03  0.59763623246E+03  0.00000000000E+00 0.  1.
         23    2    1    2    0    0  0.96627722390E+03 -0.34214131788E+03  0.22185630338E+03  0.10528306376E+04  0.92085706225E+02 0.  0.
         13    1    3    3    0    0  0.50044246468E+03 -0.18109344203E+03  0.68232554380E+02  0.53655677862E+03  0.00000000000E+00 0.  1.
        -13    1    3    3    0    0  0.46583475921E+03 -0.16104787585E+03  0.15362374900E+03  0.51627385898E+03  0.00000000000E+00 0. -1.
         22    1    1    2    0    0 -0.96627722390E+03  0.34214131788E+03  0.12600108941E+04  0.16243090248E+04  0.00000000000E+00 0. -1.
<mgrwt>
<rscale>  0 0.22296068E+04</rscale>
<asrwt>0</asrwt>
<pdfrwt beam="1">  1        2 0.31992360E+00 0.22296068E+04</pdfrwt>
<pdfrwt beam="2">  1       -2 0.91944036E-01 0.22296068E+04</pdfrwt>
<totfact> 0.55322079E+00</totfact>
</mgrwt>
</event>
<event>
 6    1  0.1885829E-005  0.7905535E+03  0.7818608E-02  0.9573792E-01
          1   -1    0    0  501    0  0.00000000000E+00  0.00000000000E+00  0.35781913129E+03  0.35781913129E+03  0.00000000000E+00 0. -1.
         -1   -1    0    0    0  501 -0.00000000000E+00 -0.00000000000E+00 -0.43665555704E+03  0.43665555704E+03  0.00000000000E+00 0.  1.
         23    2    1    2    0    0 -0.15509050478E+03 -0.97750196445E+02  0.30584548687E+03  0.36834285488E+03  0.92340843220E+02 0.  0.
         11    1    3    3    0    0 -0.25430236625E+02 -0.21958603120E+02  0.14266559800E+03  0.14656858476E+03  0.00000000000E+00 0.  1.
        -11    1    3    3    0    0 -0.12966026816E+03 -0.75791593325E+02  0.16317988887E+03  0.22177427012E+03  0.00000000000E+00 0. -1.
         22    1    1    2    0    0  0.15509050478E+03  0.97750196445E+02 -0.38468191262E+03  0.42613183345E+03  0.00000000000E+00 0.  1.
<mgrwt>
<rscale>  0 0.79055351E+03</rscale>
<asrwt>0</asrwt>
<pdfrwt beam="1">  1        1 0.55049097E-01 0.79055351E+03</pdfrwt>
<pdfrwt beam="2">  1       -1 0.67177778E-01 0.79055351E+03</pdfrwt>
<totfact> 0.15810445E+02</totfact>
</mgrwt>
</event>
<event>
 6    1  0.1885829E-005  0.5321860E+04  0.7818608E-02  0.7780688E-01
          1   -1    0    0  501    0  0.00000000000E+00  0.00000000000E+00  0.42534584430E+04  0.42534584430E+04  0.00000000000E+00 0. -1.
         -1   -1    0    0    0  501 -0.00000000000E+00 -0.00000000000E+00 -0.16646565731E+04  0.16646565731E+04  0.00000000000E+00 0.  1.
         23    2    1    2    0    0 -0.27541952748E+03 -0.25508750392E+04  0.20761069730E+04  0.33016908458E+04  0.90127112412E+02 0.  0.
         13    1    3    3    0    0 -0.78421728602E+02 -0.93182318474E+03  0.80484386475E+03  0.12337820155E+04  0.00000000000E+00 0.  1.
        -13    1    3    3    0    0 -0.19699779887E+03 -0.16190518545E+04  0.12712631083E+04  0.20679088303E+04  0.00000000000E+00 0. -1.
         22    1    1    2    0    0  0.27541952748E+03  0.25508750392E+04  0.51269489685E+03  0.26164241703E+04  0.00000000000E+00 0.  1.
<mgrwt>
<rscale>  0 0.53218597E+04</rscale>
<asrwt>0</asrwt>
<pdfrwt beam="1">  1        1 0.65437822E+00 0.53218597E+04</pdfrwt>
<pdfrwt beam="2">  1       -1 0.25610101E+00 0.53218597E+04</pdfrwt>
<totfact> 0.25093281E-03</totfact>
</mgrwt>
</event>
<event>
 6    1  0.1885829E-005  0.3680243E+04  0.7818608E-02  0.8072354E-01
          2   -1    0    0  501    0  0.00000000000E+00  0.00000000000E+00  0.98540758165E+03  0.98540758165E+03  0.00000000000E+00 0. -1.
         -2   -1    0    0    0  501 -0.00000000000E+00 -0.00000000000E+00 -0.34361892394E+04  0.34361892394E+04  0.00000000000E+00 0.  1.
         23    2    1    2    0    0  0.10391351420E+04 -0.10318821589E+04  0.11028053894E+03  0.14714066224E+04  0.91066008056E+02 0.  0.
         13    1    3    3    0    0  0.75473723280E+03 -0.76789541344E+03  0.11910155394E+03  0.10832713588E+04  0.00000000000E+00 0. -1.
        -13    1    3    3    0    0  0.28439790919E+03 -0.26398674548E+03 -0.88210149981E+01  0.38813526360E+03  0.00000000000E+00 0.  1.
         22    1    1    2    0    0 -0.10391351420E+04  0.10318821589E+04 -0.25610621967E+04  0.29501901987E+04  0.00000000000E+00 0.  1.
<mgrwt>
<rscale>  0 0.36802429E+04</rscale>
<asrwt>0</asrwt>
<pdfrwt beam="1">  1        2 0.15160117E+00 0.36802429E+04</pdfrwt>
<pdfrwt beam="2">  1       -2 0.52864449E+00 0.36802429E+04</pdfrwt>
<totfact> 0.23194050E-02</totfact>
</mgrwt>
</event>
<event>
 6    1  0.1885829E-005  0.9388251E+03  0.7818608E-02  0.9378309E-01
         -2   -1    0    0    0  501 -0.00000000000E+00  0.00000000000E+00  0.81402434141E+02  0.81402434141E+02  0.00000000000E+00 0.  1.
          2   -1    0    0  501    0  0.00000000000E+00 -0.00000000000E+00 -0.27068986209E+04  0.27068986209E+04  0.00000000000E+00 0. -1.
         23    2    1    2    0    0  0.39994403954E+03  0.10773943740E+03 -0.69715485972E+03  0.81597671693E+03  0.90719804926E+02 0.  0.
         13    1    3    3    0    0  0.30042534167E+03  0.11642711579E+03 -0.56357398506E+03  0.64917354833E+03  0.00000000000E+00 0. -1.
        -13    1    3    3    0    0  0.99518697868E+02 -0.86876783934E+01 -0.13358087466E+03  0.16680316860E+03  0.00000000000E+00 0.  1.
         22    1    1    2    0    0 -0.39994403954E+03 -0.10773943740E+03 -0.19283413270E+04  0.19723243381E+04  0.00000000000E+00 0. -1.
<mgrwt>
<rscale>  0 0.93882509E+03</rscale>
<asrwt>0</asrwt>
<pdfrwt beam="1">  1        2 0.41644591E+00 0.93882509E+03</pdfrwt>
<pdfrwt beam="2">  1       -2 0.12523452E-01 0.93882509E+03</pdfrwt>
<totfact> 0.12777077E+02</totfact>
</mgrwt>
</event>
<event>
 6    1  0.1885829E-005  0.6897095E+03  0.7818608E-02  0.9734994E-01
          2   -1    0    0  501    0  0.00000000000E+00  0.00000000000E+00  0.51823711557E+03  0.51823711557E+03  0.00000000000E+00 0. -1.
         -2   -1    0    0    0  501 -0.00000000000E+00 -0.00000000000E+00 -0.22947951853E+03  0.22947951853E+03  0.00000000000E+00 0.  1.
         23    2    1    2    0    0  0.32652744216E+03  0.78151163148E+02  0.96472845527E+02  0.36080424034E+03  0.90249183601E+02 0.  0.
         11    1    3    3    0    0  0.16505206257E+03 -0.45269269321E+01  0.31386713134E+02  0.16807082491E+03  0.00000000000E+00 0.  1.
        -11    1    3    3    0    0  0.16147537959E+03  0.82678090080E+02  0.65086132393E+02  0.19273341543E+03  0.00000000000E+00 0. -1.
         22    1    1    2    0    0 -0.32652744216E+03 -0.78151163148E+02  0.19228475151E+03  0.38691239376E+03  0.00000000000E+00 0. -1.
<mgrwt>
<rscale>  0 0.68970951E+03</rscale>
<asrwt>0</asrwt>
<pdfrwt beam="1">  1        2 0.79728787E-01 0.68970951E+03</pdfrwt>
<pdfrwt beam="2">  1       -2 0.35304541E-01 0.68970951E+03</pdfrwt>
<totfact> 0.44814790E+02</totfact>
</mgrwt>
</event>
<event>
 6    1  0.1885829E-005  0.1757814E+04  0.7818608E-02  0.8729061E-01
         -2   -1    0    0    0  501 -0.00000000000E+00  0.00000000000E+00  0.42942003604E+03  0.42942003604E+03  0.00000000000E+00 0.  1.
          2   -1    0    0  501    0  0.00000000000E+00 -0.00000000000E+00 -0.17988853889E+04  0.17988853889E+04  0.00000000000E+00 0. -1.
         23    2    1    2    0    0  0.39908431374E+03 -0.72935065779E+03 -0.10382454647E+04  0.13333600156E+04  0.93137611357E+02 0.  0.
         13    1    3    3    0    0  0.10773143004E+03 -0.28066064648E+03 -0.34281735326E+03  0.45596074085E+03  0.00000000000E+00 0.  1.
        -13    1    3    3    0    0  0.29135288370E+03 -0.44869001131E+03 -0.69542811147E+03  0.87739927474E+03  0.00000000000E+00 0. -1.
         22    1    1    2    0    0 -0.39908431374E+03  0.72935065779E+03 -0.33121988818E+03  0.89494540941E+03  0.00000000000E+00 0.  1.
<mgrwt>
<rscale>  0 0.17578139E+04</rscale>
<asrwt>0</asrwt>
<pdfrwt beam="1">  1        2 0.27675161E+00 0.17578139E+04</pdfrwt>
<pdfrwt beam="2">  1       -2 0.66064619E-01 0.17578139E+04</pdfrwt>
<totfact> 0.17252566E+01</totfact>
</mgrwt>
</event>
<event>
 6    1  0.1885829E-005  0.3392508E+04  0.7818608E-02  0.8139747E-01
          2   -1    0    0  501    0  0.00000000000E+00  0.00000000000E+00  0.45792890178E+04  0.45792890178E+04  0.00000000000E+00 0. -1.
         -2   -1    0    0    0  501 -0.00000000000E+00 -0.00000000000E+00 -0.62832421835E+03  0.62832421835E+03  0.00000000000E+00 0.  1.
         23    2    1    2    0    0  0.82092070286E+03 -0.96766625854E+03  0.37019864785E+04  0.39144469698E+04  0.88895463869E+02 0.  0.
         11    1    3    3    0    0  0.52241463570E+02 -0.41840153889E+02  0.24671082277E+03  0.25562863506E+03  0.00000000000E+00 0. -1.
        -11    1    3    3    0    0  0.76867923929E+03 -0.92582610465E+03  0.34552756558E+04  0.36588183347E+04  0.00000000000E+00 0.  1.
         22    1    1    2    0    0 -0.82092070286E+03  0.96766625854E+03  0.24897832094E+03  0.12931662664E+04  0.00000000000E+00 0.  1.
<mgrwt>
<rscale>  0 0.33925083E+04</rscale>
<asrwt>0</asrwt>
<pdfrwt beam="1">  1        2 0.70450598E+00 0.33925083E+04</pdfrwt>
<pdfrwt beam="2">  1       -2 0.96665267E-01 0.33925083E+04</pdfrwt>
<totfact> 0.75761358E-02</totfact>
</mgrwt>
</event>
<event>
 6    1  0.1885829E-005  0.2261878E+04  0.7818608E-02  0.8493106E-01
          2   -1    0    0  501    0  0.00000000000E+00  0.00000000000E+00  0.96745021342E+03  0.96745021342E+03  0.00000000000E+00 0. -1.
         -2   -1    0    0    0  501 -0.00000000000E+00 -0.00000000000E+00 -0.13220553125E+04  0.13220553125E+04  0.00000000000E+00 0.  1.
         23    2    1    2    0    0 -0.18464203517E+03 -0.95463065760E+03 -0.75864609733E+03  0.12365755654E+04  0.90348516430E+02 0.  0.
         13    1    3    3    0    0 -0.12370414420E+03 -0.49893414704E+03 -0.35432483491E+03  0.62432690716E+03  0.00000000000E+00 0. -1.
        -13    1    3    3    0    0 -0.60937890969E+02 -0.45569651056E+03 -0.40432126242E+03  0.61224865826E+03  0.00000000000E+00 0.  1.
         22    1    1    2    0    0  0.18464203517E+03  0.95463065760E+03  0.40404099820E+03  0.10529299605E+04  0.00000000000E+00 0. -1.
<mgrwt>
<rscale>  0 0.22618777E+04</rscale>
<asrwt>0</asrwt>
<pdfrwt beam="1">  1        2 0.14883849E+00 0.22618777E+04</pdfrwt>
<pdfrwt beam="2">  1       -2 0.20339312E+00 0.22618777E+04</pdfrwt>
<totfact> 0.30381233E+00</totfact>
</mgrwt>
</event>
<event>
 6    1  0.1885829E-005  0.4242434E+04  0.7818608E-02  0.7957349E-01
         -2   -1    0    0    0  501 -0.00000000000E+00  0.00000000000E+00  0.13888313530E+04  0.13888313530E+04  0.00000000000E+00 0.  1.
          2   -1    0    0  501    0  0.00000000000E+00 -0.00000000000E+00 -0.32398192488E+04  0.32398192488E+04  0.00000000000E+00 0. -1.
         23    2    1    2    0    0 -0.93874628676E+03 -0.17562713588E+04 -0.17200158613E+04  0.26329333497E+04  0.90276156660E+02 0.  0.
         13    1    3    3    0    0 -0.62328236807E+03 -0.12209282682E+04 -0.12265439492E+04  0.18394447004E+04  0.00000000000E+00 0. -1.
        -13    1    3    3    0    0 -0.31546391868E+03 -0.53534309059E+03 -0.49347191207E+03  0.79348864934E+03  0.00000000000E+00 0.  1.
         22    1    1    2    0    0  0.93874628676E+03  0.17562713588E+04 -0.13097203453E+03  0.19957172521E+04  0.00000000000E+00 0. -1.
<mgrwt>
<rscale>  0 0.42424345E+04</rscale>
<asrwt>0</asrwt>
<pdfrwt beam="1">  1        2 0.49843372E+00 0.42424345E+04</pdfrwt>
<pdfrwt beam="2">  1       -2 0.21366637E+00 0.42424345E+04</pdfrwt>
<totfact> 0.10234547E-01</totfact>
</mgrwt>
</event>
<event>
 6    1  0.1885829E-005  0.3272411E+04  0.7818608E-02  0.8169951E-01
         -2   -1    0    0    0  501 -0.00000000000E+00  0.00000000000E+00  0.11330449645E+04  0.11330449645E+04  0.00000000000E+00 0.  1.
          2   -1    0    0  501    0  0.00000000000E+00 -0.00000000000E+00 -0.23628090066E+04  0.23628090066E+04  0.00000000000E+00 0. -1.
         23    2    1    2    0    0 -0.14450569798E+04  0.75512617382E+03 -0.74468290132E+03  0.17947634602E+04  0.90653413150E+02 0.  0.
         13    1    3    3    0    0 -0.63781226577E+03  0.31457321831E+03 -0.27895005139E+03  0.76392010526E+03  0.00000000000E+00 0.  1.
        -13    1    3    3    0    0 -0.80724471401E+03  0.44055295551E+03 -0.46573284993E+03  0.10308433549E+04  0.00000000000E+00 0. -1.
         22    1    1    2    0    0  0.14450569798E+04 -0.75512617382E+03 -0.48508114075E+03  0.17010905109E+04  0.00000000000E+00 0.  1.
<mgrwt>
<rscale>  0 0.32724112E+04</rscale>
<asrwt>0</asrwt>
<pdfrwt beam="1">  1        2 0.36350908E+00 0.32724112E+04</pdfrwt>
<pdfrwt beam="2">  1       -2 0.17431461E+00 0.32724112E+04</pdfrwt>
<totfact> 0.69430461E-01</totfact>
</mgrwt>
</event>
<event>
 6    1  0.1885829E-005  0.6612258E+03  0.7818608E-02  0.9785940E-01
         -2   -1    0    0    0  501 -0.00000000000E+00  0.00000000000E+00  0.42410268306E+02  0.42410268306E+02  0.00000000000E+00 0.  1.
          2   -1    0    0  501    0  0.00000000000E+00 -0.00000000000E+00 -0.25773210712E+04  0.25773210712E+04  0.00000000000E+00 0. -1.
         23    2    1    2    0    0 -0.11511437119E+03  0.28829753903E+03 -0.92509489801E+03  0.98025763216E+03  0.93475481349E+02 0.  0.
         13    1    3    3    0    0 -0.97762816839E+02  0.18621528737E+03 -0.49411583579E+03  0.53701411600E+03  0.00000000000E+00 0. -1.
        -13    1    3    3    0    0 -0.17351554350E+02  0.10208225167E+03 -0.43097906222E+03  0.44324351616E+03  0.00000000000E+00 0.  1.
         22    1    1    2    0    0  0.11511437119E+03 -0.28829753903E+03 -0.16098159049E+04  0.16394737073E+04  0.00000000000E+00 0.  1.
<mgrwt>
<rscale>  0 0.66122577E+03</rscale>
<asrwt>0</asrwt>
<pdfrwt beam="1">  1        2 0.39651110E+00 0.66122577E+03</pdfrwt>
<pdfrwt beam="2">  1       -2 0.65246540E-02 0.66122577E+03</pdfrwt>
<totfact> 0.44781474E+02</totfact>
</mgrwt>
</event>
<event>
 6    1  0.1885829E-005  0.4315194E+04  0.7818608E-02  0.7943814E-01
         -2   -1    0    0    0  501 -0.00000000000E+00  0.00000000000E+00  0.14625768875E+04  0.14625768875E+04  0.00000000000E+00 0.  1.
          2   -1    0    0  501    0  0.00000000000E+00 -0.00000000000E+00 -0.31828927916E+04  0.31828927916E+04  0.00000000000E+00 0. -1.
         23    2    1    2    0    0  0.15876116541E+04  0.14588781445E+04 -0.91207389292E+03  0.23428426243E+04  0.90534917292E+02 0.  0.
         11    1    3    3    0    0  0.11282271615E+04  0.10726849605E+04 -0.62470357023E+03  0.16774397465E+04  0.00000000000E+00 0.  1.
        -11    1    3    3    0    0  0.45938449266E+03  0.38619318399E+03 -0.28737032269E+03  0.66540287783E+03  0.00000000000E+00 0. -1.
         22    1    1    2    0    0 -0.15876116541E+04 -0.14588781445E+04 -0.80824201122E+03  0.23026270548E+04  0.00000000000E+00 0. -1.
<mgrwt>
<rscale>  0 0.43151943E+04</rscale>
<asrwt>0</asrwt>
<pdfrwt beam="1">  1        2 0.48967581E+00 0.43151943E+04</pdfrwt>
<pdfrwt beam="2">  1       -2 0.22501183E+00 0.43151943E+04</pdfrwt>
<totfact> 0.93937524E-02</totfact>
</mgrwt>
</event>
<event>
 6    1  0.1885829E-005  0.2518744E+04  0.7818608E-02  0.8396338E-01
          2   -1    0    0  501    0  0.00000000000E+00  0.00000000000E+00  0.26753646746E+04  0.26753646746E+04  0.00000000000E+00 0. -1.
         -2   -1    0    0    0  501 -0.00000000000E+00 -0.00000000000E+00 -0.59282294596E+03  0.59282294596E+03  0.00000000000E+00 0.  1.
         23    2    1    2    0    0 -0.26196807086E+03  0.36257465505E+03 -0.48266992657E+03  0.66426778949E+03  0.90519542136E+02 0.  0.
         13    1    3    3    0    0 -0.94938155013E+02  0.20854693558E+03 -0.23850878740E+03  0.33074388775E+03  0.00000000000E+00 0. -1.
        -13    1    3    3    0    0 -0.16702991585E+03  0.15402771947E+03 -0.24416113916E+03  0.33352390174E+03  0.00000000000E+00 0.  1.
         22    1    1    2    0    0  0.26196807086E+03 -0.36257465505E+03  0.25652116552E+04  0.26039198310E+04  0.00000000000E+00 0. -1.
<mgrwt>
<rscale>  0 0.25187438E+04</rscale>
<asrwt>0</asrwt>
<pdfrwt beam="1">  1        2 0.41159456E+00 0.25187438E+04</pdfrwt>
<pdfrwt beam="2">  1       -2 0.91203532E-01 0.25187438E+04</pdfrwt>
<totfact> 0.25062947E+00</totfact>
</mgrwt>
</event>
<event>
 6    1  0.1885829E-005  0.2432472E+04  0.7818608E-02  0.8427446E-01
          1   -1    0    0  501    0  0.00000000000E+00  0.00000000000E+00  0.10318670253E+04  0.10318670253E+04  0.00000000000E+00 0. -1.
         -1   -1    0    0    0  501 -0.00000000000E+00 -0.00000000000E+00 -0.14335475470E+04  0.14335475470E+04  0.00000000000E+00 0.  1.
         23    2    1    2    0    0 -0.64680068946E+03 -0.11743614715E+03  0.83372398161E+03  0.10659980271E+04  0.95465887391E+02 0.  0.
         13    1    3    3    0    0 -0.84359652895E+02  0.14752106332E+01  0.15550352260E+03  0.17691826594E+03  0.00000000000E+00 0. -1.
        -13    1    3    3    0    0 -0.56244103657E+03 -0.11891135778E+03  0.67822045901E+03  0.88907976113E+03  0.00000000000E+00 0.  1.
         22    1    1    2    0    0  0.64680068946E+03  0.11743614715E+03 -0.12354045033E+04  0.13994165453E+04  0.00000000000E+00 0. -1.
<mgrwt>
<rscale>  0 0.24324724E+04</rscale>
<asrwt>0</asrwt>
<pdfrwt beam="1">  1        1 0.15874877E+00 0.24324724E+04</pdfrwt>
<pdfrwt beam="2">  1       -1 0.22054578E+00 0.24324724E+04</pdfrwt>
<totfact> 0.13936204E+00</totfact>
</mgrwt>
</event>
<event>
 6    1  0.1885829E-005  0.3730671E+04  0.7818608E-02  0.8061199E-01
         -2   -1    0    0    0  501 -0.00000000000E+00  0.00000000000E+00  0.23869094710E+04  0.23869094710E+04  0.00000000000E+00 0.  1.
          2   -1    0    0  501    0  0.00000000000E+00 -0.00000000000E+00 -0.14577327977E+04  0.14577327977E+04  0.00000000000E+00 0. -1.
         23    2    1    2    0    0  0.49731673209E+03 -0.33753315702E+03  0.22834205645E+04  0.23630117206E+04  0.92532982852E+02 0.  0.
         11    1    3    3    0    0  0.91061391027E+02 -0.87994097457E+02  0.36931358888E+03  0.39041985740E+03  0.00000000000E+00 0. -1.
        -11    1    3    3    0    0  0.40625534107E+03 -0.24953905956E+03  0.19141069757E+04  0.19725918632E+04  0.00000000000E+00 0.  1.
         22    1    1    2    0    0 -0.49731673209E+03  0.33753315702E+03 -0.13542438913E+04  0.14816305481E+04  0.00000000000E+00 0. -1.
<mgrwt>
<rscale>  0 0.37306708E+04</rscale>
<asrwt>0</asrwt>
<pdfrwt beam="1">  1        2 0.22426658E+00 0.37306708E+04</pdfrwt>
<pdfrwt beam="2">  1       -2 0.36721684E+00 0.37306708E+04</pdfrwt>
<totfact> 0.13076680E-01</totfact>
</mgrwt>
</event>
<event>
 6    1  0.1885829E-005  0.1099987E+04  0.7818608E-02  0.9205205E-01
          2   -1    0    0  501    0  0.00000000000E+00  0.00000000000E+00  0.11223732563E+04  0.11223732563E+04  0.00000000000E+00 0. -1.
         -2   -1    0    0    0  501 -0.00000000000E+00 -0.00000000000E+00 -0.26951160138E+03  0.26951160138E+03  0.00000000000E+00 0.  1.
         23    2    1    2    0    0 -0.66069213696E+02 -0.30035077749E+03 -0.14202320152E+03  0.35055320634E+03  0.90228765759E+02 0.  0.
         13    1    3    3    0    0 -0.28364844830E+02 -0.52440961251E+02 -0.65062764583E+02  0.88248411739E+02  0.00000000000E+00 0. -1.
        -13    1    3    3    0    0 -0.37704368865E+02 -0.24790981623E+03 -0.76960436933E+02  0.26230479460E+03  0.00000000000E+00 0.  1.
         22    1    1    2    0    0  0.66069213696E+02  0.30035077749E+03  0.99488485645E+03  0.10413316514E+04  0.00000000000E+00 0. -1.
<mgrwt>
<rscale>  0 0.10999866E+04</rscale>
<asrwt>0</asrwt>
<pdfrwt beam="1">  1        2 0.17267281E+00 0.10999866E+04</pdfrwt>
<pdfrwt beam="2">  1       -2 0.41463324E-01 0.10999866E+04</pdfrwt>
<totfact> 0.11539884E+02</totfact>
</mgrwt>
</event>
<event>
 6    1  0.1885829E-005  0.1354283E+04  0.7818608E-02  0.8987592E-01
         -2   -1    0    0    0  501 -0.00000000000E+00  0.00000000000E+00  0.67087416196E+03  0.67087416196E+03  0.00000000000E+00 0.  1.
          2   -1    0    0  501    0  0.00000000000E+00 -0.00000000000E+00 -0.68346779150E+03  0.68346779150E+03  0.00000000000E+00 0. -1.
         23    2    1    2    0    0  0.47010708636E+03  0.12260161641E+03  0.46106936974E+03  0.67582263475E+03  0.90107940528E+02 0.  0.
         13    1    3    3    0    0  0.20661570270E+03  0.34130117069E+02  0.25413592917E+03  0.32930226842E+03  0.00000000000E+00 0. -1.
        -13    1    3    3    0    0  0.26349138366E+03  0.88471499340E+02  0.20693344057E+03  0.34652036633E+03  0.00000000000E+00 0.  1.
         22    1    1    2    0    0 -0.47010708636E+03 -0.12260161641E+03 -0.47366299927E+03  0.67851931871E+03  0.00000000000E+00 0. -1.
<mgrwt>
<rscale>  0 0.13542834E+04</rscale>
<asrwt>0</asrwt>
<pdfrwt beam="1">  1        2 0.10514889E+00 0.13542834E+04</pdfrwt>
<pdfrwt beam="2">  1       -2 0.10321141E+00 0.13542834E+04</pdfrwt>
<totfact> 0.31593075E+01</totfact>
</mgrwt>
</event>
<event>
 6    1  0.1885829E-005  0.5122412E+03  0.7818608E-02  0.1010632E+00
         -2   -1    0    0    0  501 -0.00000000000E+00  0.00000000000E+00  0.48554091317E+02  0.48554091317E+02  0.00000000000E+00 0.  1.
          2   -1    0    0  501    0  0.00000000000E+00 -0.00000000000E+00 -0.13510241540E+04  0.13510241540E+04  0.00000000000E+00 0. -1.
         23    2    1    2    0    0 -0.89409321214E+02 -0.40585969933E+01 -0.13038983324E+04  0.13100654592E+04  0.90056355100E+02 0.  0.
         13    1    3    3    0    0 -0.10232635721E+03 -0.18988232715E+02 -0.96579159408E+03  0.97138284911E+03  0.00000000000E+00 0.  1.
        -13    1    3    3    0    0  0.12917036000E+02  0.14929635722E+02 -0.33810673837E+03  0.33868261008E+03  0.00000000000E+00 0. -1.
         22    1    1    2    0    0  0.89409321214E+02  0.40585969933E+01  0.14282697355E+01  0.89512786147E+02  0.00000000000E+00 0.  1.
<mgrwt>
<rscale>  0 0.51224115E+03</rscale>
<asrwt>0</asrwt>
<pdfrwt beam="1">  1        2 0.20784986E+00 0.51224115E+03</pdfrwt>
<pdfrwt beam="2">  1       -2 0.74698605E-02 0.51224115E+03</pdfrwt>
<totfact> 0.17210114E+03</totfact>
</mgrwt>
</event>
<event>
 6    1  0.1885829E-005  0.2387478E+04  0.7818608E-02  0.8444206E-01
          2   -1    0    0  501    0  0.00000000000E+00  0.00000000000E+00  0.40961712484E+04  0.40961712484E+04  0.00000000000E+00 0. -1.
         -2   -1    0    0    0  501 -0.00000000000E+00 -0.00000000000E+00 -0.34788910592E+03  0.34788910592E+03  0.00000000000E+00 0.  1.
         23    2    1    2    0    0  0.25669322662E+03  0.88305678538E+03  0.32886074534E+04  0.34159642895E+04  0.90511578141E+02 0.  0.
         11    1    3    3    0    0  0.23323009625E+03  0.66836385418E+03  0.25489744199E+04  0.26454445964E+04  0.00000000000E+00 0. -1.
        -11    1    3    3    0    0  0.23463130371E+02  0.21469293119E+03  0.73963303349E+03  0.77051969308E+03  0.00000000000E+00 0.  1.
         22    1    1    2    0    0 -0.25669322662E+03 -0.88305678538E+03  0.45967468914E+03  0.10280960649E+04  0.00000000000E+00 0.  1.
<mgrwt>
<rscale>  0 0.23874785E+04</rscale>
<asrwt>0</asrwt>
<pdfrwt beam="1">  1        2 0.63018016E+00 0.23874785E+04</pdfrwt>
<pdfrwt beam="2">  1       -2 0.53521404E-01 0.23874785E+04</pdfrwt>
<totfact> 0.84880468E-01</totfact>
</mgrwt>
</event>
<event>
 6    1  0.1885829E-005  0.3409121E+04  0.7818608E-02  0.8135671E-01
         -2   -1    0    0    0  501 -0.00000000000E+00  0.00000000000E+00  0.40190493894E+04  0.40190493894E+04  0.00000000000E+00 0.  1.
          2   -1    0    0  501    0  0.00000000000E+00 -0.00000000000E+00 -0.72293862914E+03  0.72293862914E+03  0.00000000000E+00 0. -1.
         23    2    1    2    0    0 -0.11947760087E+04  0.11973295573E+04  0.13697040503E+04  0.21783713171E+04  0.90136729139E+02 0.  0.
         13    1    3    3    0    0 -0.82081984719E+03  0.80069345919E+03  0.87736255842E+03  0.14438214211E+04  0.00000000000E+00 0. -1.
        -13    1    3    3    0    0 -0.37395616153E+03  0.39663609810E+03  0.49234149188E+03  0.73454989598E+03  0.00000000000E+00 0.  1.
         22    1    1    2    0    0  0.11947760087E+04 -0.11973295573E+04  0.19264067099E+04  0.25636167014E+04  0.00000000000E+00 0.  1.
<mgrwt>
<rscale>  0 0.34091207E+04</rscale>
<asrwt>0</asrwt>
<pdfrwt beam="1">  1        2 0.11122133E+00 0.34091207E+04</pdfrwt>
<pdfrwt beam="2">  1       -2 0.61831528E+00 0.34091207E+04</pdfrwt>
<totfact> 0.13968922E-02</totfact>
</mgrwt>
</event>
<event>
 6    1  0.1885829E-005  0.2491239E+04  0.7818608E-02  0.8406113E-01
         -2   -1    0    0    0  501 -0.00000000000E+00  0.00000000000E+00  0.17801814615E+04  0.17801814615E+04  0.00000000000E+00 0.  1.
          2   -1    0    0  501    0  0.00000000000E+00 -0.00000000000E+00 -0.87157886472E+03  0.87157886472E+03  0.00000000000E+00 0. -1.
         23    2    1    2    0    0  0.68677504446E+03 -0.99031556337E+03  0.78301152835E+03  0.14400846299E+04  0.91388242476E+02 0.  0.
         11    1    3    3    0    0  0.47651010499E+03 -0.63094624055E+03  0.47760516818E+03  0.92372167631E+03  0.00000000000E+00 0. -1.
        -11    1    3    3    0    0  0.21026493948E+03 -0.35936932282E+03  0.30540636017E+03  0.51636295354E+03  0.00000000000E+00 0.  1.
         22    1    1    2    0    0 -0.68677504446E+03  0.99031556337E+03  0.12559106845E+03  0.12116756964E+04  0.00000000000E+00 0.  1.
<mgrwt>
<rscale>  0 0.24912395E+04</rscale>
<asrwt>0</asrwt>
<pdfrwt beam="1">  1        2 0.13408906E+00 0.24912395E+04</pdfrwt>
<pdfrwt beam="2">  1       -2 0.27387407E+00 0.24912395E+04</pdfrwt>
<totfact> 0.12560730E+00</totfact>
</mgrwt>
</event>
<event>
 6    1  0.1885829E-005  0.2524756E+04  0.7818608E-02  0.8394219E-01
          2   -1    0    0  501    0  0.00000000000E+00  0.00000000000E+00  0.13620655196E+04  0.13620655196E+04  0.00000000000E+00 0. -1.
         -2   -1    0    0    0  501 -0.00000000000E+00 -0.00000000000E+00 -0.11699867954E+04  0.11699867954E+04  0.00000000000E+00 0.  1.
         23    2    1    2    0    0  0.11067375007E+04  0.54591311045E+03  0.35510761453E+03  0.12872762553E+04  0.89942869826E+02 0.  0.
         11    1    3    3    0    0  0.60702736093E+03  0.32376881640E+03  0.23831558406E+03  0.72808157578E+03  0.00000000000E+00 0.  1.
        -11    1    3    3    0    0  0.49971013979E+03  0.22214429405E+03  0.11679203047E+03  0.55919467949E+03  0.00000000000E+00 0. -1.
         22    1    1    2    0    0 -0.11067375007E+04 -0.54591311045E+03 -0.16302889031E+03  0.12447760597E+04  0.00000000000E+00 0.  1.
<mgrwt>
<rscale>  0 0.25247564E+04</rscale>
<asrwt>0</asrwt>
<pdfrwt beam="1">  1        2 0.20954854E+00 0.25247564E+04</pdfrwt>
<pdfrwt beam="2">  1       -2 0.17999797E+00 0.25247564E+04</pdfrwt>
<totfact> 0.24560494E+00</totfact>
</mgrwt>
</event>
<event>
 6    1  0.1885829E-005  0.6830273E+03  0.7818608E-02  0.9746706E-01
         -2   -1    0    0    0  501 -0.00000000000E+00  0.00000000000E+00  0.37748546410E+03  0.37748546410E+03  0.00000000000E+00 0.  1.
          2   -1    0    0  501    0  0.00000000000E+00 -0.00000000000E+00 -0.30896967649E+03  0.30896967649E+03  0.00000000000E+00 0. -1.
         23    2    1    2    0    0  0.15863550659E+01  0.33554134192E+03  0.32745796541E+02  0.34900884720E+03  0.90246216412E+02 0.  0.
         11    1    3    3    0    0  0.60151614614E+01  0.20836930599E+03  0.63845940517E+02  0.21801434349E+03  0.00000000000E+00 0.  1.
        -11    1    3    3    0    0 -0.44288063955E+01  0.12717203593E+03 -0.31100143977E+02  0.13099450372E+03  0.00000000000E+00 0. -1.
         22    1    1    2    0    0 -0.15863550659E+01 -0.33554134192E+03  0.35769991072E+02  0.33744629339E+03  0.00000000000E+00 0. -1.
<mgrwt>
<rscale>  0 0.68302727E+03</rscale>
<asrwt>0</asrwt>
<pdfrwt beam="1">  1        2 0.47533797E-01 0.68302727E+03</pdfrwt>
<pdfrwt beam="2">  1       -2 0.58074686E-01 0.68302727E+03</pdfrwt>
<totfact> 0.29764305E+02</totfact>
</mgrwt>
</event>
<event>
 6    1  0.1885829E-005  0.2073532E+04  0.7818608E-02  0.8572993E-01
         -2   -1    0    0    0  501 -0.00000000000E+00  0.00000000000E+00  0.27364823040E+03  0.27364823040E+03  0.00000000000E+00 0.  1.
          2   -1    0    0  501    0  0.00000000000E+00 -0.00000000000E+00 -0.39279747147E+04  0.39279747147E+04  0.00000000000E+00 0. -1.
         23    2    1    2    0    0  0.51981984408E+03 -0.75785329901E+03 -0.27941928514E+04  0.29428997191E+04  0.92686422599E+02 0.  0.
         11    1    3    3    0    0  0.35338826301E+03 -0.58667438532E+03 -0.20631372709E+04  0.21738457851E+04  0.00000000000E+00 0. -1.
        -11    1    3    3    0    0  0.16643158107E+03 -0.17117891369E+03 -0.73105558043E+03  0.76905393396E+03  0.00000000000E+00 0.  1.
         22    1    1    2    0    0 -0.51981984408E+03  0.75785329901E+03 -0.86013363290E+03  0.12587232260E+04  0.00000000000E+00 0.  1.
<mgrwt>
<rscale>  0 0.20735316E+04</rscale>
<asrwt>0</asrwt>
<pdfrwt beam="1">  1        2 0.60430381E+00 0.20735316E+04</pdfrwt>
<pdfrwt beam="2">  1       -2 0.42099727E-01 0.20735316E+04</pdfrwt>
<totfact> 0.19460829E+00</totfact>
</mgrwt>
</event>
<event>
 6    1  0.1885829E-005  0.1517809E+04  0.7818608E-02  0.8872696E-01
          1   -1    0    0  501    0  0.00000000000E+00  0.00000000000E+00  0.45501732565E+03  0.45501732565E+03  0.00000000000E+00 0. -1.
         -1   -1    0    0    0  501 -0.00000000000E+00 -0.00000000000E+00 -0.12657447146E+04  0.12657447146E+04  0.00000000000E+00 0.  1.
         23    2    1    2    0    0  0.54885905543E+03  0.47188682083E+02  0.18020270963E+03  0.58700038333E+03  0.92862258386E+02 0.  0.
         11    1    3    3    0    0  0.29779209275E+03  0.65650753385E+02  0.74147688841E+02  0.31382802884E+03  0.00000000000E+00 0.  1.
        -11    1    3    3    0    0  0.25106696268E+03 -0.18462071302E+02  0.10605502079E+03  0.27317235449E+03  0.00000000000E+00 0. -1.
         22    1    1    2    0    0 -0.54885905543E+03 -0.47188682083E+02 -0.99093009860E+03  0.11337616569E+04  0.00000000000E+00 0.  1.
<mgrwt>
<rscale>  0 0.15178087E+04</rscale>
<asrwt>0</asrwt>
<pdfrwt beam="1">  1        1 0.70002666E-01 0.15178087E+04</pdfrwt>
<pdfrwt beam="2">  1       -1 0.19472996E+00 0.15178087E+04</pdfrwt>
<totfact> 0.79755670E+00</totfact>
</mgrwt>
</event>
<event>
 6    1  0.1885829E-005  0.1343031E+04  0.7818608E-02  0.8996120E-01
          2   -1    0    0  501    0  0.00000000000E+00  0.00000000000E+00  0.29761287656E+04  0.29761287656E+04  0.00000000000E+00 0. -1.
         -2   -1    0    0    0  501 -0.00000000000E+00 -0.00000000000E+00 -0.15151675449E+03  0.15151675449E+03  0.00000000000E+00 0.  1.
         23    2    1    2    0    0  0.36306413629E+03  0.10411696755E+03  0.27033262446E+04  0.27309514980E+04  0.86414058993E+02 0.  0.
         13    1    3    3    0    0  0.16523459367E+03  0.77806775047E+02  0.10696052503E+04  0.10850860595E+04  0.00000000000E+00 0.  1.
        -13    1    3    3    0    0  0.19782954262E+03  0.26310192501E+02  0.16337209943E+04  0.16458654385E+04  0.00000000000E+00 0. -1.
         22    1    1    2    0    0 -0.36306413629E+03 -0.10411696755E+03  0.12128576645E+03  0.39669402205E+03  0.00000000000E+00 0.  1.
<mgrwt>
<rscale>  0 0.13430315E+04</rscale>
<asrwt>0</asrwt>
<pdfrwt beam="1">  1        2 0.45786592E+00 0.13430315E+04</pdfrwt>
<pdfrwt beam="2">  1       -2 0.23310272E-01 0.13430315E+04</pdfrwt>
<totfact> 0.28958726E+01</totfact>
</mgrwt>
</event>
<event>
 6    1  0.1885829E-005  0.1515797E+04  0.7818608E-02  0.8874015E-01
          1   -1    0    0  501    0  0.00000000000E+00  0.00000000000E+00  0.79074486541E+03  0.79074486541E+03  0.00000000000E+00 0. -1.
         -1   -1    0    0    0  501 -0.00000000000E+00 -0.00000000000E+00 -0.72641691058E+03  0.72641691058E+03  0.00000000000E+00 0.  1.
         23    2    1    2    0    0  0.72080592285E+03  0.73751955154E+02 -0.18057486516E+03  0.75232328288E+03  0.91556052434E+02 0.  0.
         11    1    3    3    0    0  0.31159234626E+03  0.76403210920E+02 -0.68917208048E+02  0.32814146713E+03  0.00000000000E+00 0.  1.
        -11    1    3    3    0    0  0.40921357659E+03 -0.26512557657E+01 -0.11165765711E+03  0.42418181575E+03  0.00000000000E+00 0. -1.
         22    1    1    2    0    0 -0.72080592285E+03 -0.73751955154E+02  0.24490281998E+03  0.76483849311E+03  0.00000000000E+00 0. -1.
<mgrwt>
<rscale>  0 0.15157974E+04</rscale>
<asrwt>0</asrwt>
<pdfrwt beam="1">  1        1 0.12165306E+00 0.15157974E+04</pdfrwt>
<pdfrwt beam="2">  1       -1 0.11175645E+00 0.15157974E+04</pdfrwt>
<totfact> 0.16001381E+01</totfact>
</mgrwt>
</event>
<event>
 6    1  0.1885829E-005  0.2837591E+04  0.7818608E-02  0.8291692E-01
         -2   -1    0    0    0  501 -0.00000000000E+00  0.00000000000E+00  0.10012542194E+04  0.10012542194E+04  0.00000000000E+00 0.  1.
          2   -1    0    0  501    0  0.00000000000E+00 -0.00000000000E+00 -0.20104584415E+04  0.20104584415E+04  0.00000000000E+00 0. -1.
         23    2    1    2    0    0 -0.81310765082E+03 -0.31666384830E+03 -0.16905111047E+04  0.19046448613E+04  0.91783485408E+02 0.  0.
         13    1    3    3    0    0 -0.76458728709E+03 -0.28555477595E+03 -0.15296828747E+04  0.17338007229E+04  0.00000000000E+00 0. -1.
        -13    1    3    3    0    0 -0.48520363734E+02 -0.31109072343E+02 -0.16082822998E+03  0.17084413843E+03  0.00000000000E+00 0.  1.
         22    1    1    2    0    0  0.81310765082E+03  0.31666384830E+03  0.68130688251E+03  0.11070677995E+04  0.00000000000E+00 0.  1.
<mgrwt>
<rscale>  0 0.28375905E+04</rscale>
<asrwt>0</asrwt>
<pdfrwt beam="1">  1        2 0.30930129E+00 0.28375905E+04</pdfrwt>
<pdfrwt beam="2">  1       -2 0.15403911E+00 0.28375905E+04</pdfrwt>
<totfact> 0.15964005E+00</totfact>
</mgrwt>
</event>
<event>
 6    1  0.1885829E-005  0.1490978E+04  0.7818608E-02  0.8890475E-01
          2   -1    0    0  501    0  0.00000000000E+00  0.00000000000E+00  0.85312561456E+03  0.85312561456E+03  0.00000000000E+00 0. -1.
         -2   -1    0    0    0  501 -0.00000000000E+00 -0.00000000000E+00 -0.65143253466E+03  0.65143253466E+03  0.00000000000E+00 0.  1.
         23    2    1    2    0    0  0.38800097381E+03  0.52072727787E+03 -0.26305293965E+03  0.70600288108E+03  0.86842186963E+02 0.  0.
         11    1    3    3    0    0  0.32756397015E+02  0.29564713230E+02  0.25500175250E+01  0.44199054324E+02  0.00000000000E+00 0. -1.
        -11    1    3    3    0    0  0.35524457680E+03  0.49116256464E+03 -0.26560295718E+03  0.66180382675E+03  0.00000000000E+00 0.  1.
         22    1    1    2    0    0 -0.38800097381E+03 -0.52072727787E+03  0.46474601955E+03  0.79855526815E+03  0.00000000000E+00 0.  1.
<mgrwt>
<rscale>  0 0.14909779E+04</rscale>
<asrwt>0</asrwt>
<pdfrwt beam="1">  1        2 0.13125009E+00 0.14909779E+04</pdfrwt>
<pdfrwt beam="2">  1       -2 0.10022039E+00 0.14909779E+04</pdfrwt>
<totfact> 0.25094071E+01</totfact>
</mgrwt>
</event>
<event>
 6    1  0.1885829E-005  0.6464790E+03  0.7818608E-02  0.9813409E-01
          2   -1    0    0  501    0  0.00000000000E+00  0.00000000000E+00  0.24164932862E+04  0.24164932862E+04  0.00000000000E+00 0.  1.
         -2   -1    0    0    0  501 -0.00000000000E+00 -0.00000000000E+00 -0.43237767499E+02  0.43237767499E+02  0.00000000000E+00 0. -1.
         23    2    1    2    0    0 -0.24645587782E+03 -0.11963810330E+02  0.19666944893E+04  0.19841519298E+04  0.89933496507E+02 0.  0.
         13    1    3    3    0    0 -0.11739193810E+03 -0.19248379364E+02  0.12705574994E+04  0.12761143077E+04  0.00000000000E+00 0.  1.
        -13    1    3    3    0    0 -0.12906393972E+03  0.72845690345E+01  0.69613698994E+03  0.70803762205E+03  0.00000000000E+00 0. -1.
         22    1    1    2    0    0  0.24645587782E+03  0.11963810330E+02  0.40656102942E+03  0.47557912393E+03  0.00000000000E+00 0. -1.
<mgrwt>
<rscale>  0 0.64647900E+03</rscale>
<asrwt>0</asrwt>
<pdfrwt beam="1">  1        2 0.37176809E+00 0.64647900E+03</pdfrwt>
<pdfrwt beam="2">  1       -2 0.66519661E-02 0.64647900E+03</pdfrwt>
<totfact> 0.53606939E+02</totfact>
</mgrwt>
</event>
<event>
 6    1  0.1885829E-005  0.1305293E+04  0.7818608E-02  0.9025378E-01
         -2   -1    0    0    0  501 -0.00000000000E+00  0.00000000000E+00  0.32947965492E+03  0.32947965492E+03  0.00000000000E+00 0.  1.
          2   -1    0    0  501    0  0.00000000000E+00 -0.00000000000E+00 -0.12927891709E+04  0.12927891709E+04  0.00000000000E+00 0. -1.
         23    2    1    2    0    0 -0.35191391113E+03  0.34250513441E+02 -0.11609981320E+04  0.12171795919E+04  0.92698423758E+02 0.  0.
         11    1    3    3    0    0 -0.31872196387E+03  0.35325907272E+02 -0.92836345864E+03  0.98218650028E+03  0.00000000000E+00 0. -1.
        -11    1    3    3    0    0 -0.33191947257E+02 -0.10753938316E+01 -0.23263467340E+03  0.23499309160E+03  0.00000000000E+00 0.  1.
         22    1    1    2    0    0  0.35191391113E+03 -0.34250513441E+02  0.19768861608E+03  0.40508923393E+03  0.00000000000E+00 0.  1.
<mgrwt>
<rscale>  0 0.13052934E+04</rscale>
<asrwt>0</asrwt>
<pdfrwt beam="1">  1        2 0.19889064E+00 0.13052934E+04</pdfrwt>
<pdfrwt beam="2">  1       -2 0.50689178E-01 0.13052934E+04</pdfrwt>
<totfact> 0.60169773E+01</totfact>
</mgrwt>
</event>
<event>
 6    1  0.1885829E-005  0.2566509E+04  0.7818608E-02  0.8379667E-01
          2   -1    0    0  501    0  0.00000000000E+00  0.00000000000E+00  0.12180631820E+04  0.12180631820E+04  0.00000000000E+00 0. -1.
         -2   -1    0    0    0  501 -0.00000000000E+00 -0.00000000000E+00 -0.13519345115E+04  0.13519345115E+04  0.00000000000E+00 0.  1.
         23    2    1    2    0    0  0.16108751925E+03  0.77922728580E+03  0.93896698412E+03  0.12342857489E+04  0.93048163954E+02 0.  0.
         13    1    3    3    0    0 -0.10828345437E+02  0.91369930593E+02  0.10169652875E+03  0.13714190184E+03  0.00000000000E+00 0.  1.
        -13    1    3    3    0    0  0.17191586468E+03  0.68785735520E+03  0.83727045537E+03  0.10971438470E+04  0.00000000000E+00 0. -1.
         22    1    1    2    0    0 -0.16108751925E+03 -0.77922728580E+03 -0.10728383137E+04  0.13357119446E+04  0.00000000000E+00 0.  1.
<mgrwt>
<rscale>  0 0.25665086E+04</rscale>
<asrwt>0</asrwt>
<pdfrwt beam="1">  1        2 0.18739434E+00 0.25665086E+04</pdfrwt>
<pdfrwt beam="2">  1       -2 0.20798992E+00 0.25665086E+04</pdfrwt>
<totfact> 0.19334544E+00</totfact>
</mgrwt>
</event>
<event>
 6    1  0.1885829E-005  0.2629608E+04  0.7818608E-02  0.8358213E-01
          2   -1    0    0  501    0  0.00000000000E+00  0.00000000000E+00  0.23549545657E+04  0.23549545657E+04  0.00000000000E+00 0.  1.
         -2   -1    0    0    0  501 -0.00000000000E+00 -0.00000000000E+00 -0.73407350537E+03  0.73407350537E+03  0.00000000000E+00 0. -1.
         23    2    1    2    0    0  0.11580325392E+04 -0.31770131237E+03  0.18666102311E+03  0.12184771894E+04  0.88717743414E+02 0.  0.
         11    1    3    3    0    0  0.71188966621E+03 -0.17464578397E+03  0.74912170303E+02  0.73681739935E+03  0.00000000000E+00 0. -1.
        -11    1    3    3    0    0  0.44614287294E+03 -0.14305552840E+03  0.11174885281E+03  0.48165979009E+03  0.00000000000E+00 0.  1.
         22    1    1    2    0    0 -0.11580325392E+04  0.31770131237E+03  0.14342200372E+04  0.18705508816E+04  0.00000000000E+00 0.  1.
<mgrwt>
<rscale>  0 0.26296081E+04</rscale>
<asrwt>0</asrwt>
<pdfrwt beam="1">  1        2 0.36230070E+00 0.26296081E+04</pdfrwt>
<pdfrwt beam="2">  1       -2 0.11293439E+00 0.26296081E+04</pdfrwt>
<totfact> 0.22937675E+00</totfact>
</mgrwt>
</event>
<event>
 6    1  0.1885829E-005  0.1362158E+04  0.7818608E-02  0.8981676E-01
          2   -1    0    0  501    0  0.00000000000E+00  0.00000000000E+00  0.18098082524E+04  0.18098082524E+04  0.00000000000E+00 0. -1.
         -2   -1    0    0    0  501 -0.00000000000E+00 -0.00000000000E+00 -0.25630801886E+03  0.25630801886E+03  0.00000000000E+00 0.  1.
         23    2    1    2    0    0 -0.53487551645E+03  0.10125927991E+02  0.14831418520E+03  0.56253980729E+03  0.90882257542E+02 0.  0.
         13    1    3    3    0    0 -0.19904265279E+03 -0.35887914859E+02  0.75155659403E+02  0.21576443915E+03  0.00000000000E+00 0. -1.
        -13    1    3    3    0    0 -0.33583286366E+03  0.46013842850E+02  0.73158525794E+02  0.34677536814E+03  0.00000000000E+00 0.  1.
         22    1    1    2    0    0  0.53487551645E+03 -0.10125927991E+02  0.14051860483E+04  0.15035764639E+04  0.00000000000E+00 0. -1.
<mgrwt>
<rscale>  0 0.13621577E+04</rscale>
<asrwt>0</asrwt>
<pdfrwt beam="1">  1        2 0.27843203E+00 0.13621577E+04</pdfrwt>
<pdfrwt beam="2">  1       -2 0.39432004E-01 0.13621577E+04</pdfrwt>
<totfact> 0.50585342E+01</totfact>
</mgrwt>
</event>
<event>
 6    1  0.1885829E-005  0.8600746E+03  0.7818608E-02  0.9476914E-01
         -2   -1    0    0    0  501 -0.00000000000E+00  0.00000000000E+00  0.15413056950E+03  0.15413056950E+03  0.00000000000E+00 0.  1.
          2   -1    0    0  501    0  0.00000000000E+00 -0.00000000000E+00 -0.11998402856E+04  0.11998402856E+04  0.00000000000E+00 0. -1.
         23    2    1    2    0    0  0.11604559151E+02 -0.95780970468E+02 -0.11806019890E+04  0.11881257906E+04  0.92266883324E+02 0.  0.
         13    1    3    3    0    0  0.94982453646E+00 -0.82075175981E+02 -0.45681010000E+03  0.46412574173E+03  0.00000000000E+00 0. -1.
        -13    1    3    3    0    0  0.10654734615E+02 -0.13705794486E+02 -0.72379188903E+03  0.72400004890E+03  0.00000000000E+00 0.  1.
         22    1    1    2    0    0 -0.11604559151E+02  0.95780970468E+02  0.13489227296E+03  0.16584506444E+03  0.00000000000E+00 0.  1.
<mgrwt>
<rscale>  0 0.86007457E+03</rscale>
<asrwt>0</asrwt>
<pdfrwt beam="1">  1        2 0.18459081E+00 0.86007457E+03</pdfrwt>
<pdfrwt beam="2">  1       -2 0.23712395E-01 0.86007457E+03</pdfrwt>
<totfact> 0.29981038E+02</totfact>
</mgrwt>
</event>
<event>
 6    1  0.1885829E-005  0.2790716E+04  0.7818608E-02  0.8306156E-01
         -1   -1    0    0    0  501 -0.00000000000E+00  0.00000000000E+00  0.77963863399E+03  0.77963863399E+03  0.00000000000E+00 0.  1.
          1   -1    0    0  501    0  0.00000000000E+00 -0.00000000000E+00 -0.24973422949E+04  0.24973422949E+04  0.00000000000E+00 0. -1.
         23    2    1    2    0    0  0.23861362052E+03  0.71156664953E+03 -0.22390206256E+04  0.23631784698E+04  0.90197348446E+02 0.  0.
         13    1    3    3    0    0  0.14333380170E+03  0.54930125906E+03 -0.16926493583E+04  0.17853118221E+04  0.00000000000E+00 0. -1.
        -13    1    3    3    0    0  0.95279818819E+02  0.16226539047E+03 -0.54637126729E+03  0.57786664771E+03  0.00000000000E+00 0.  1.
         22    1    1    2    0    0 -0.23861362052E+03 -0.71156664953E+03  0.52131696467E+03  0.91380245911E+03  0.00000000000E+00 0.  1.
<mgrwt>
<rscale>  0 0.27907164E+04</rscale>
<asrwt>0</asrwt>
<pdfrwt beam="1">  1        1 0.38420652E+00 0.27907164E+04</pdfrwt>
<pdfrwt beam="2">  1       -1 0.11994440E+00 0.27907164E+04</pdfrwt>
<totfact> 0.73026738E-01</totfact>
</mgrwt>
</event>
<event>
 6    1  0.1885829E-005  0.1697392E+04  0.7818608E-02  0.8762853E-01
          2   -1    0    0  501    0  0.00000000000E+00  0.00000000000E+00  0.10327919620E+04  0.10327919620E+04  0.00000000000E+00 0. -1.
         -2   -1    0    0    0  501 -0.00000000000E+00 -0.00000000000E+00 -0.69741540194E+03  0.69741540194E+03  0.00000000000E+00 0.  1.
         23    2    1    2    0    0  0.80495605499E+03  0.19442805348E+01  0.43459369071E+03  0.91915738413E+03  0.89557747336E+02 0.  0.
         13    1    3    3    0    0  0.31207285969E+03 -0.35937263179E+02  0.19586379889E+03  0.37019398206E+03  0.00000000000E+00 0.  1.
        -13    1    3    3    0    0  0.49288319530E+03  0.37881543713E+02  0.23872989182E+03  0.54896340207E+03  0.00000000000E+00 0. -1.
         22    1    1    2    0    0 -0.80495605499E+03 -0.19442805348E+01 -0.99217130669E+02  0.81104997978E+03  0.00000000000E+00 0.  1.
<mgrwt>
<rscale>  0 0.16973921E+04</rscale>
<asrwt>0</asrwt>
<pdfrwt beam="1">  1        2 0.15889107E+00 0.16973921E+04</pdfrwt>
<pdfrwt beam="2">  1       -2 0.10729468E+00 0.16973921E+04</pdfrwt>
<totfact> 0.15942916E+01</totfact>
</mgrwt>
</event>
<event>
 6    1  0.1885829E-005  0.2809019E+04  0.7818608E-02  0.8300474E-01
          2   -1    0    0  501    0  0.00000000000E+00  0.00000000000E+00  0.28947833843E+04  0.28947833843E+04  0.00000000000E+00 0. -1.
         -2   -1    0    0    0  501 -0.00000000000E+00 -0.00000000000E+00 -0.68144887589E+03  0.68144887589E+03  0.00000000000E+00 0.  1.
         23    2    1    2    0    0 -0.13470460784E+04  0.38447213427E+03  0.99921528752E+03  0.17224692112E+04  0.78211466109E+02 0.  0.
         11    1    3    3    0    0 -0.94536721547E+03  0.30218518749E+03  0.68579571217E+03  0.12063792183E+04  0.00000000000E+00 0. -1.
        -11    1    3    3    0    0 -0.40167886289E+03  0.82286946782E+02  0.31341957535E+03  0.51608999285E+03  0.00000000000E+00 0.  1.
         22    1    1    2    0    0  0.13470460784E+04 -0.38447213427E+03  0.12141192209E+04  0.18537630490E+04  0.00000000000E+00 0.  1.
<mgrwt>
<rscale>  0 0.28090190E+04</rscale>
<asrwt>0</asrwt>
<pdfrwt beam="1">  1        2 0.44535128E+00 0.28090190E+04</pdfrwt>
<pdfrwt beam="2">  1       -2 0.10483829E+00 0.28090190E+04</pdfrwt>
<totfact> 0.12979226E+00</totfact>
</mgrwt>
</event>
<event>
 6    1  0.1885829E-005  0.2060462E+04  0.7818608E-02  0.8578863E-01
          2   -1    0    0  501    0  0.00000000000E+00  0.00000000000E+00  0.21345563062E+04  0.21345563062E+04  0.00000000000E+00 0.  1.
         -2   -1    0    0    0  501 -0.00000000000E+00 -0.00000000000E+00 -0.49723514402E+03  0.49723514402E+03  0.00000000000E+00 0. -1.
         23    2    1    2    0    0 -0.77435124192E+03  0.38807257255E+01 -0.44664307029E+02  0.78011382588E+03  0.83353314922E+02 0.  0.
         13    1    3    3    0    0 -0.42793044895E+03  0.68299475076E+01 -0.65906807027E+02  0.43302981946E+03  0.00000000000E+00 0. -1.
        -13    1    3    3    0    0 -0.34642079296E+03 -0.29492217821E+01  0.21242499998E+02  0.34708400642E+03  0.00000000000E+00 0.  1.
         22    1    1    2    0    0  0.77435124192E+03 -0.38807257255E+01  0.16819854692E+04  0.18516776244E+04  0.00000000000E+00 0.  1.
<mgrwt>
<rscale>  0 0.20604625E+04</rscale>
<asrwt>0</asrwt>
<pdfrwt beam="1">  1        2 0.32839327E+00 0.20604625E+04</pdfrwt>
<pdfrwt beam="2">  1       -2 0.76497716E-01 0.20604625E+04</pdfrwt>
<totfact> 0.79390383E+00</totfact>
</mgrwt>
</event>
<event>
 6    1  0.1885829E-005  0.1620836E+04  0.7818608E-02  0.8807849E-01
          1   -1    0    0  501    0  0.00000000000E+00  0.00000000000E+00  0.14197102101E+04  0.14197102101E+04  0.00000000000E+00 0. -1.
         -1   -1    0    0    0  501 -0.00000000000E+00 -0.00000000000E+00 -0.46261352571E+03  0.46261352571E+03  0.00000000000E+00 0.  1.
         23    2    1    2    0    0  0.22863661947E+03  0.73469199548E+03  0.76478397468E+03  0.10892088574E+04  0.97130712002E+02 0.  0.
         11    1    3    3    0    0  0.17073300571E+03  0.65260515945E+03  0.67879212612E+03  0.95697544579E+03  0.00000000000E+00 0.  1.
        -11    1    3    3    0    0  0.57903613756E+02  0.82086836029E+02  0.85991848562E+02  0.13223341164E+03  0.00000000000E+00 0. -1.
         22    1    1    2    0    0 -0.22863661947E+03 -0.73469199548E+03  0.19231270972E+03  0.79311487838E+03  0.00000000000E+00 0. -1.
<mgrwt>
<rscale>  0 0.16208358E+04</rscale>
<asrwt>0</asrwt>
<pdfrwt beam="1">  1        1 0.21841695E+00 0.16208358E+04</pdfrwt>
<pdfrwt beam="2">  1       -1 0.71171312E-01 0.16208358E+04</pdfrwt>
<totfact> 0.14212678E+01</totfact>
</mgrwt>
</event>
<event>
 6    1  0.1885829E-005  0.1149531E+04  0.7818608E-02  0.9158217E-01
          2   -1    0    0  501    0  0.00000000000E+00  0.00000000000E+00  0.65099041696E+03  0.65099041696E+03  0.00000000000E+00 0. -1.
         -2   -1    0    0    0  501 -0.00000000000E+00 -0.00000000000E+00 -0.50746555300E+03  0.50746555300E+03  0.00000000000E+00 0.  1.
         23    2    1    2    0    0  0.32727461207E+03  0.35807694478E+03  0.37672440297E+03  0.62020900519E+03  0.86082310778E+02 0.  0.
         11    1    3    3    0    0  0.18345861449E+03  0.13976586482E+03  0.19221387435E+03  0.30022946839E+03  0.00000000000E+00 0. -1.
        -11    1    3    3    0    0  0.14381599759E+03  0.21831107996E+03  0.18451052862E+03  0.31997953679E+03  0.00000000000E+00 0.  1.
         22    1    1    2    0    0 -0.32727461207E+03 -0.35807694478E+03 -0.23319953901E+03  0.53824696477E+03  0.00000000000E+00 0.  1.
<mgrwt>
<rscale>  0 0.11495307E+04</rscale>
<asrwt>0</asrwt>
<pdfrwt beam="1">  1        2 0.10015237E+00 0.11495307E+04</pdfrwt>
<pdfrwt beam="2">  1       -2 0.78071623E-01 0.11495307E+04</pdfrwt>
<totfact> 0.64902906E+01</totfact>
</mgrwt>
</event>
<event>
 6    1  0.1885829E-005  0.3678245E+04  0.7818608E-02  0.8072800E-01
         -2   -1    0    0    0  501 -0.00000000000E+00  0.00000000000E+00  0.14968401877E+04  0.14968401877E+04  0.00000000000E+00 0.  1.
          2   -1    0    0  501    0  0.00000000000E+00 -0.00000000000E+00 -0.22596746762E+04  0.22596746762E+04  0.00000000000E+00 0. -1.
         23    2    1    2    0    0  0.14711357632E+04 -0.33875602305E+03 -0.14523573233E+04  0.20968649561E+04  0.92221324278E+02 0.  0.
         13    1    3    3    0    0  0.10405723900E+03 -0.47602583288E+02 -0.12082803906E+03  0.16641313034E+03  0.00000000000E+00 0. -1.
        -13    1    3    3    0    0  0.13670785242E+04 -0.29115343976E+03 -0.13315292843E+04  0.19304518257E+04  0.00000000000E+00 0.  1.
         22    1    1    2    0    0 -0.14711357632E+04  0.33875602305E+03  0.68952283476E+03  0.16596499078E+04  0.00000000000E+00 0.  1.
<mgrwt>
<rscale>  0 0.36782452E+04</rscale>
<asrwt>0</asrwt>
<pdfrwt beam="1">  1        2 0.34764226E+00 0.36782452E+04</pdfrwt>
<pdfrwt beam="2">  1       -2 0.23028311E+00 0.36782452E+04</pdfrwt>
<totfact> 0.32953410E-01</totfact>
</mgrwt>
</event>
<event>
 6    1  0.1885829E-005  0.1144604E+04  0.7818608E-02  0.9162776E-01
          2   -1    0    0  501    0  0.00000000000E+00  0.00000000000E+00  0.13572110906E+04  0.13572110906E+04  0.00000000000E+00 0. -1.
         -2   -1    0    0    0  501 -0.00000000000E+00 -0.00000000000E+00 -0.24132529703E+03  0.24132529703E+03  0.00000000000E+00 0.  1.
         23    2    1    2    0    0 -0.31931920255E+03  0.45197690587E+03  0.74441468111E+03  0.93202407420E+03  0.90927338447E+02 0.  0.
         11    1    3    3    0    0 -0.12962856291E+03  0.11353257317E+03  0.24775697666E+03  0.30178921282E+03  0.00000000000E+00 0.  1.
        -11    1    3    3    0    0 -0.18969063964E+03  0.33844433270E+03  0.49665770445E+03  0.63023486138E+03  0.00000000000E+00 0. -1.
         22    1    1    2    0    0  0.31931920255E+03 -0.45197690587E+03  0.37147111247E+03  0.66651231344E+03  0.00000000000E+00 0.  1.
<mgrwt>
<rscale>  0 0.11446036E+04</rscale>
<asrwt>0</asrwt>
<pdfrwt beam="1">  1        2 0.20880170E+00 0.11446036E+04</pdfrwt>
<pdfrwt beam="2">  1       -2 0.37126970E-01 0.11446036E+04</pdfrwt>
<totfact> 0.10361561E+02</totfact>
</mgrwt>
</event>
<event>
 6    1  0.1885829E-005  0.9267827E+03  0.7818608E-02  0.9392707E-01
         -2   -1    0    0    0  501 -0.00000000000E+00  0.00000000000E+00  0.29273986599E+03  0.29273986599E+03  0.00000000000E+00 0.  1.
          2   -1    0    0  501    0  0.00000000000E+00 -0.00000000000E+00 -0.73352338163E+03  0.73352338163E+03  0.00000000000E+00 0. -1.
         23    2    1    2    0    0  0.39462553239E+03  0.18987135550E+03 -0.37457975624E+03  0.58335989450E+03  0.90655006860E+02 0.  0.
         13    1    3    3    0    0  0.15356008647E+03  0.10197610417E+03 -0.20555089587E+03  0.27609961386E+03  0.00000000000E+00 0.  1.
        -13    1    3    3    0    0  0.24106544591E+03  0.87895251335E+02 -0.16902886038E+03  0.30726028064E+03  0.00000000000E+00 0. -1.
         22    1    1    2    0    0 -0.39462553239E+03 -0.18987135550E+03 -0.66203759394E+02  0.44290335312E+03  0.00000000000E+00 0. -1.
<mgrwt>
<rscale>  0 0.92678269E+03</rscale>
<asrwt>0</asrwt>
<pdfrwt beam="1">  1        2 0.11284975E+00 0.92678269E+03</pdfrwt>
<pdfrwt beam="2">  1       -2 0.45036903E-01 0.92678269E+03</pdfrwt>
<totfact> 0.18074286E+02</totfact>
</mgrwt>
</event>
<event>
 6    1  0.1885829E-005  0.2362709E+04  0.7818608E-02  0.8453598E-01
         -2   -1    0    0    0  501 -0.00000000000E+00  0.00000000000E+00  0.65258234993E+03  0.65258234993E+03  0.00000000000E+00 0.  1.
          2   -1    0    0  501    0  0.00000000000E+00 -0.00000000000E+00 -0.21385782818E+04  0.21385782818E+04  0.00000000000E+00 0. -1.
         23    2    1    2    0    0  0.48058822641E+03  0.10420694165E+04 -0.10664750075E+04  0.15693294167E+04  0.92477911838E+02 0.  0.
         13    1    3    3    0    0  0.35341104130E+03  0.68098294491E+03 -0.74508142488E+03  0.10694781274E+04  0.00000000000E+00 0. -1.
        -13    1    3    3    0    0  0.12717718510E+03  0.36108647158E+03 -0.32139358263E+03  0.49985128921E+03  0.00000000000E+00 0.  1.
         22    1    1    2    0    0 -0.48058822641E+03 -0.10420694165E+04 -0.41952092436E+03  0.12218312151E+04  0.00000000000E+00 0.  1.
<mgrwt>
<rscale>  0 0.23627090E+04</rscale>
<asrwt>0</asrwt>
<pdfrwt beam="1">  1        2 0.32901205E+00 0.23627090E+04</pdfrwt>
<pdfrwt beam="2">  1       -2 0.10039728E+00 0.23627090E+04</pdfrwt>
<totfact> 0.41258853E+00</totfact>
</mgrwt>
</event>
<event>
 6    1  0.1885829E-005  0.8074808E+03  0.7818608E-02  0.9549252E-01
          2   -1    0    0  501    0  0.00000000000E+00  0.00000000000E+00  0.69536992854E+03  0.69536992854E+03  0.00000000000E+00 0. -1.
         -2   -1    0    0    0  501 -0.00000000000E+00 -0.00000000000E+00 -0.23441668553E+03  0.23441668553E+03  0.00000000000E+00 0.  1.
         23    2    1    2    0    0 -0.15765704613E+03  0.15163982374E+03 -0.15016491905E+03  0.28069818533E+03  0.91605611168E+02 0.  0.
         13    1    3    3    0    0 -0.12619616805E+03  0.75972581522E+02 -0.60536343998E+02  0.15925437174E+03  0.00000000000E+00 0.  1.
        -13    1    3    3    0    0 -0.31460878081E+02  0.75667242214E+02 -0.89628575048E+02  0.12144381359E+03  0.00000000000E+00 0. -1.
         22    1    1    2    0    0  0.15765704613E+03 -0.15163982374E+03  0.61111816205E+03  0.64908842874E+03  0.00000000000E+00 0. -1.
<mgrwt>
<rscale>  0 0.80748081E+03</rscale>
<asrwt>0</asrwt>
<pdfrwt beam="1">  1        2 0.10697999E+00 0.80748081E+03</pdfrwt>
<pdfrwt beam="2">  1       -2 0.36064106E-01 0.80748081E+03</pdfrwt>
<totfact> 0.30036469E+02</totfact>
</mgrwt>
</event>
<event>
 6    1  0.1885829E-005  0.2974597E+04  0.7818608E-02  0.8251022E-01
         -2   -1    0    0    0  501 -0.00000000000E+00  0.00000000000E+00  0.11341719956E+04  0.11341719956E+04  0.00000000000E+00 0.  1.
          2   -1    0    0  501    0  0.00000000000E+00 -0.00000000000E+00 -0.19503712200E+04  0.19503712200E+04  0.00000000000E+00 0. -1.
         23    2    1    2    0    0 -0.13280330623E+04 -0.18893979883E+03 -0.10712117181E+04  0.17191123554E+04  0.92101483249E+02 0.  0.
         11    1    3    3    0    0 -0.49992687121E+03 -0.78792088567E+02 -0.46098241972E+03  0.68457275805E+03  0.00000000000E+00 0. -1.
        -11    1    3    3    0    0 -0.82810619107E+03 -0.11014771026E+03 -0.61022929840E+03  0.10345395973E+04  0.00000000000E+00 0.  1.
         22    1    1    2    0    0  0.13280330623E+04  0.18893979883E+03  0.25501249372E+03  0.13654308602E+04  0.00000000000E+00 0.  1.
<mgrwt>
<rscale>  0 0.29745967E+04</rscale>
<asrwt>0</asrwt>
<pdfrwt beam="1">  1        2 0.30005711E+00 0.29745967E+04</pdfrwt>
<pdfrwt beam="2">  1       -2 0.17448800E+00 0.29745967E+04</pdfrwt>
<totfact> 0.12100547E+00</totfact>
</mgrwt>
</event>
<event>
 6    1  0.1885829E-005  0.3595494E+04  0.7818608E-02  0.8091525E-01
         -2   -1    0    0    0  501 -0.00000000000E+00  0.00000000000E+00  0.88162668328E+03  0.88162668328E+03  0.00000000000E+00 0.  1.
          2   -1    0    0  501    0  0.00000000000E+00 -0.00000000000E+00 -0.36658315512E+04  0.36658315512E+04  0.00000000000E+00 0. -1.
         23    2    1    2    0    0 -0.11298475487E+04  0.70501408413E+03 -0.29182238399E+04  0.32089660131E+04  0.88499440600E+02 0.  0.
         13    1    3    3    0    0 -0.36237068989E+03  0.26040533542E+03 -0.10498896854E+04  0.11407856096E+04  0.00000000000E+00 0.  1.
        -13    1    3    3    0    0 -0.76747685881E+03  0.44460874871E+03 -0.18683341545E+04  0.20681804035E+04  0.00000000000E+00 0. -1.
         22    1    1    2    0    0  0.11298475487E+04 -0.70501408413E+03  0.13401897195E+03  0.13384922215E+04  0.00000000000E+00 0.  1.
<mgrwt>
<rscale>  0 0.35954944E+04</rscale>
<asrwt>0</asrwt>
<pdfrwt beam="1">  1        2 0.56397409E+00 0.35954944E+04</pdfrwt>
<pdfrwt beam="2">  1       -2 0.13563487E+00 0.35954944E+04</pdfrwt>
<totfact> 0.19616426E-01</totfact>
</mgrwt>
</event>
<event>
 6    1  0.1885829E-005  0.3197318E+04  0.7818608E-02  0.8189526E-01
         -2   -1    0    0    0  501 -0.00000000000E+00  0.00000000000E+00  0.19425121990E+04  0.19425121990E+04  0.00000000000E+00 0.  1.
          2   -1    0    0  501    0  0.00000000000E+00 -0.00000000000E+00 -0.13156728469E+04  0.13156728469E+04  0.00000000000E+00 0. -1.
         23    2    1    2    0    0 -0.55427274176E+03 -0.60434079165E+03 -0.10832015689E+04  0.13616919622E+04  0.91832980934E+02 0.  0.
         13    1    3    3    0    0 -0.11638273768E+03 -0.91731764954E+02 -0.15443659174E+03  0.21403345346E+03  0.00000000000E+00 0. -1.
        -13    1    3    3    0    0 -0.43789000408E+03 -0.51260902670E+03 -0.92876497716E+03  0.11476585088E+04  0.00000000000E+00 0.  1.
         22    1    1    2    0    0  0.55427274176E+03  0.60434079165E+03  0.17100409210E+04  0.18964930837E+04  0.00000000000E+00 0.  1.
<mgrwt>
<rscale>  0 0.31973180E+04</rscale>
<asrwt>0</asrwt>
<pdfrwt beam="1">  1        2 0.20241121E+00 0.31973180E+04</pdfrwt>
<pdfrwt beam="2">  1       -2 0.29884803E+00 0.31973180E+04</pdfrwt>
<totfact> 0.44037571E-01</totfact>
</mgrwt>
</event>
<event>
 6    1  0.1885829E-005  0.2542042E+04  0.7818608E-02  0.8388159E-01
          2   -1    0    0  501    0  0.00000000000E+00  0.00000000000E+00  0.24286588587E+04  0.24286588587E+04  0.00000000000E+00 0. -1.
         -2   -1    0    0    0  501 -0.00000000000E+00 -0.00000000000E+00 -0.66517974232E+03  0.66517974232E+03  0.00000000000E+00 0.  1.
         23    2    1    2    0    0  0.38885590717E+03  0.23132035412E+03 -0.56061185868E+03  0.72611461308E+03  0.90767573817E+02 0.  0.
         11    1    3    3    0    0  0.24176051659E+03  0.14950486933E+03 -0.41805810739E+03  0.50554172379E+03  0.00000000000E+00 0. -1.
        -11    1    3    3    0    0  0.14709539058E+03  0.81815484792E+02 -0.14255375129E+03  0.22057288929E+03  0.00000000000E+00 0.  1.
         22    1    1    2    0    0 -0.38885590717E+03 -0.23132035412E+03  0.23240909750E+04  0.23677239879E+04  0.00000000000E+00 0. -1.
<mgrwt>
<rscale>  0 0.25420422E+04</rscale>
<asrwt>0</asrwt>
<pdfrwt beam="1">  1        2 0.37363982E+00 0.25420422E+04</pdfrwt>
<pdfrwt beam="2">  1       -2 0.10233535E+00 0.25420422E+04</pdfrwt>
<totfact> 0.26591388E+00</totfact>
</mgrwt>
</event>
<event>
 6    1  0.1885829E-005  0.2883769E+04  0.7818608E-02  0.8277723E-01
          2   -1    0    0  501    0  0.00000000000E+00  0.00000000000E+00  0.37801406063E+04  0.37801406063E+04  0.00000000000E+00 0. -1.
         -2   -1    0    0    0  501 -0.00000000000E+00 -0.00000000000E+00 -0.54998764905E+03  0.54998764905E+03  0.00000000000E+00 0.  1.
         23    2    1    2    0    0 -0.13277329827E+04  0.25357287760E+02  0.77861752205E+03  0.15420206793E+04  0.89803477438E+02 0.  0.
         13    1    3    3    0    0 -0.47265428965E+03  0.26133511991E+02  0.23215320038E+03  0.52723822549E+03  0.00000000000E+00 0.  1.
        -13    1    3    3    0    0 -0.85507869303E+03 -0.77622423125E+00  0.54646432167E+03  0.10147824539E+04  0.00000000000E+00 0. -1.
         22    1    1    2    0    0  0.13277329827E+04 -0.25357287760E+02  0.24515354352E+04  0.27881075760E+04  0.00000000000E+00 0. -1.
<mgrwt>
<rscale>  0 0.28837688E+04</rscale>
<asrwt>0</asrwt>
<pdfrwt beam="1">  1        2 0.58156008E+00 0.28837688E+04</pdfrwt>
<pdfrwt beam="2">  1       -2 0.84613487E-01 0.28837688E+04</pdfrwt>
<totfact> 0.53488812E-01</totfact>
</mgrwt>
</event>
<event>
 6    1  0.1885829E-005  0.1119630E+04  0.7818608E-02  0.9186267E-01
          2   -1    0    0  501    0  0.00000000000E+00  0.00000000000E+00  0.13324876548E+04  0.13324876548E+04  0.00000000000E+00 0. -1.
         -2   -1    0    0    0  501 -0.00000000000E+00 -0.00000000000E+00 -0.23519396173E+03  0.23519396173E+03  0.00000000000E+00 0.  1.
         23    2    1    2    0    0  0.75828667827E+02 -0.35416239247E+03 -0.38584587748E+02  0.37545661431E+03  0.91092874115E+02 0.  0.
         13    1    3    3    0    0  0.37729232965E+02 -0.17378873566E+03  0.26813208009E+02  0.17984706778E+03  0.00000000000E+00 0. -1.
        -13    1    3    3    0    0  0.38099434862E+02 -0.18037365680E+03 -0.65397795756E+02  0.19560954654E+03  0.00000000000E+00 0.  1.
         22    1    1    2    0    0 -0.75828667827E+02  0.35416239247E+03  0.11358782809E+04  0.11922250023E+04  0.00000000000E+00 0. -1.
<mgrwt>
<rscale>  0 0.11196304E+04</rscale>
<asrwt>0</asrwt>
<pdfrwt beam="1">  1        2 0.20499810E+00 0.11196304E+04</pdfrwt>
<pdfrwt beam="2">  1       -2 0.36183687E-01 0.11196304E+04</pdfrwt>
<totfact> 0.11270207E+02</totfact>
</mgrwt>
</event>
<event>
 6    1  0.1885829E-005  0.2469353E+04  0.7818608E-02  0.8413986E-01
         -1   -1    0    0    0  501 -0.00000000000E+00  0.00000000000E+00  0.92799353906E+03  0.92799353906E+03  0.00000000000E+00 0.  1.
          1   -1    0    0  501    0  0.00000000000E+00 -0.00000000000E+00 -0.16427125540E+04  0.16427125540E+04  0.00000000000E+00 0. -1.
         23    2    1    2    0    0 -0.33974270074E+03 -0.10838186794E+04 -0.85726520235E+03  0.14259757981E+04  0.91735038164E+02 0.  0.
         11    1    3    3    0    0 -0.88477516570E+02 -0.35049093893E+03 -0.32039189359E+03  0.48303533482E+03  0.00000000000E+00 0. -1.
        -11    1    3    3    0    0 -0.25126518417E+03 -0.73332774047E+03 -0.53687330877E+03  0.94294046333E+03  0.00000000000E+00 0.  1.
         22    1    1    2    0    0  0.33974270074E+03  0.10838186794E+04  0.14254618743E+03  0.11447302949E+04  0.00000000000E+00 0.  1.
<mgrwt>
<rscale>  0 0.24693535E+04</rscale>
<asrwt>0</asrwt>
<pdfrwt beam="1">  1        1 0.25272501E+00 0.24693535E+04</pdfrwt>
<pdfrwt beam="2">  1       -1 0.14276824E+00 0.24693535E+04</pdfrwt>
<totfact> 0.18497171E+00</totfact>
</mgrwt>
</event>
<event>
 6    1  0.1885829E-005  0.1909273E+04  0.7818608E-02  0.8650254E-01
          2   -1    0    0  501    0  0.00000000000E+00  0.00000000000E+00  0.31874074116E+04  0.31874074116E+04  0.00000000000E+00 0. -1.
         -2   -1    0    0    0  501 -0.00000000000E+00 -0.00000000000E+00 -0.28591609467E+03  0.28591609467E+03  0.00000000000E+00 0.  1.
         23    2    1    2    0    0 -0.50542367715E+03 -0.79689716594E+03  0.12204654550E+04  0.15455408072E+04  0.93071334205E+02 0.  0.
         11    1    3    3    0    0 -0.42876557785E+03 -0.66616529560E+03  0.96534439359E+03  0.12488017937E+04  0.00000000000E+00 0.  1.
        -11    1    3    3    0    0 -0.76658099297E+02 -0.13073187034E+03  0.25512106145E+03  0.29673901345E+03  0.00000000000E+00 0. -1.
         22    1    1    2    0    0  0.50542367715E+03  0.79689716594E+03  0.16810258619E+04  0.19277826991E+04  0.00000000000E+00 0. -1.
<mgrwt>
<rscale>  0 0.19092732E+04</rscale>
<asrwt>0</asrwt>
<pdfrwt beam="1">  1        2 0.49037035E+00 0.19092732E+04</pdfrwt>
<pdfrwt beam="2">  1       -2 0.43987094E-01 0.19092732E+04</pdfrwt>
<totfact> 0.60872114E+00</totfact>
</mgrwt>
</event>
<event>
 6    1  0.1885829E-005  0.1440370E+04  0.7818608E-02  0.8925104E-01
         -2   -1    0    0    0  501 -0.00000000000E+00  0.00000000000E+00  0.19255152255E+03  0.19255152255E+03  0.00000000000E+00 0.  1.
          2   -1    0    0  501    0  0.00000000000E+00 -0.00000000000E+00 -0.26936504825E+04  0.26936504825E+04  0.00000000000E+00 0. -1.
         23    2    1    2    0    0 -0.66789791159E+03 -0.13396836113E+03 -0.80670235312E+03  0.10599996605E+04  0.93784068909E+02 0.  0.
         11    1    3    3    0    0 -0.34031219146E+03 -0.11603061273E+03 -0.42077955902E+03  0.55347170482E+03  0.00000000000E+00 0. -1.
        -11    1    3    3    0    0 -0.32758572013E+03 -0.17937748394E+02 -0.38592279410E+03  0.50652795565E+03  0.00000000000E+00 0.  1.
         22    1    1    2    0    0  0.66789791159E+03  0.13396836113E+03 -0.16943966069E+04  0.18262023446E+04  0.00000000000E+00 0. -1.
<mgrwt>
<rscale>  0 0.14403701E+04</rscale>
<asrwt>0</asrwt>
<pdfrwt beam="1">  1        2 0.41440773E+00 0.14403701E+04</pdfrwt>
<pdfrwt beam="2">  1       -2 0.29623314E-01 0.14403701E+04</pdfrwt>
<totfact> 0.27430436E+01</totfact>
</mgrwt>
</event>
<event>
 6    1  0.1885829E-005  0.3045943E+04  0.7818608E-02  0.8230732E-01
         -2   -1    0    0    0  501 -0.00000000000E+00  0.00000000000E+00  0.20848074443E+04  0.20848074443E+04  0.00000000000E+00 0. -1.
          2   -1    0    0  501    0  0.00000000000E+00 -0.00000000000E+00 -0.11125449053E+04  0.11125449053E+04  0.00000000000E+00 0.  1.
         23    2    1    2    0    0 -0.14894835564E+04 -0.69238948046E+02  0.16816664175E+03  0.15032669005E+04  0.90421558687E+02 0.  0.
         11    1    3    3    0    0 -0.72157546803E+03 -0.68695220351E+02  0.11028811481E+03  0.73318050822E+03  0.00000000000E+00 0.  1.
        -11    1    3    3    0    0 -0.76790808834E+03 -0.54372769536E+00  0.57878526934E+02  0.77008639233E+03  0.00000000000E+00 0. -1.
         22    1    1    2    0    0  0.14894835564E+04  0.69238948046E+02  0.80409589733E+03  0.16940854491E+04  0.00000000000E+00 0.  1.
<mgrwt>
<rscale>  0 0.30459428E+04</rscale>
<asrwt>0</asrwt>
<pdfrwt beam="1">  1        2 0.17116075E+00 0.30459428E+04</pdfrwt>
<pdfrwt beam="2">  1       -2 0.32073961E+00 0.30459428E+04</pdfrwt>
<totfact> 0.43236844E-01</totfact>
</mgrwt>
</event>
<event>
 6    1  0.1885829E-005  0.1355169E+04  0.7818608E-02  0.8986924E-01
          2   -1    0    0  501    0  0.00000000000E+00  0.00000000000E+00  0.17318025275E+04  0.17318025275E+04  0.00000000000E+00 0. -1.
         -2   -1    0    0    0  501 -0.00000000000E+00 -0.00000000000E+00 -0.26511159670E+03  0.26511159670E+03  0.00000000000E+00 0.  1.
         23    2    1    2    0    0 -0.29349149327E+03  0.28821165645E+03  0.15252776283E+04  0.15814196999E+04  0.72202550839E+02 0.  0.
         13    1    3    3    0    0 -0.23907101083E+03  0.21937046492E+03  0.10847650237E+04  0.11322515205E+04  0.00000000000E+00 0.  1.
        -13    1    3    3    0    0 -0.54420482436E+02  0.68841191531E+02  0.44051260456E+03  0.44916817935E+03  0.00000000000E+00 0. -1.
         22    1    1    2    0    0  0.29349149327E+03 -0.28821165645E+03 -0.58586697455E+02  0.41549442433E+03  0.00000000000E+00 0.  1.
<mgrwt>
<rscale>  0 0.13551693E+04</rscale>
<asrwt>0</asrwt>
<pdfrwt beam="1">  1        2 0.26643115E+00 0.13551693E+04</pdfrwt>
<pdfrwt beam="2">  1       -2 0.40786401E-01 0.13551693E+04</pdfrwt>
<totfact> 0.52327849E+01</totfact>
</mgrwt>
</event>
<event>
 6    1  0.1885829E-005  0.1837993E+04  0.7818608E-02  0.8686352E-01
          2   -1    0    0  501    0  0.00000000000E+00  0.00000000000E+00  0.16015350741E+04  0.16015350741E+04  0.00000000000E+00 0. -1.
         -2   -1    0    0    0  501 -0.00000000000E+00 -0.00000000000E+00 -0.52734045209E+03  0.52734045209E+03  0.00000000000E+00 0.  1.
         23    2    1    2    0    0  0.23341118228E+03  0.33087081031E+03  0.14910760636E+04  0.15477159874E+04  0.90336466268E+02 0.  0.
         11    1    3    3    0    0  0.16404658530E+03  0.17301894647E+03  0.96915467642E+03  0.99805191489E+03  0.00000000000E+00 0. -1.
        -11    1    3    3    0    0  0.69364596977E+02  0.15785186385E+03  0.52192138717E+03  0.54966407252E+03  0.00000000000E+00 0.  1.
         22    1    1    2    0    0 -0.23341118228E+03 -0.33087081031E+03 -0.41688144161E+03  0.58115953876E+03  0.00000000000E+00 0.  1.
<mgrwt>
<rscale>  0 0.18379926E+04</rscale>
<asrwt>0</asrwt>
<pdfrwt beam="1">  1        2 0.24639001E+00 0.18379926E+04</pdfrwt>
<pdfrwt beam="2">  1       -2 0.81129302E-01 0.18379926E+04</pdfrwt>
<totfact> 0.14029217E+01</totfact>
</mgrwt>
</event>
<event>
 6    1  0.1885829E-005  0.8069715E+03  0.7818608E-02  0.9549981E-01
         -1   -1    0    0    0  501 -0.00000000000E+00  0.00000000000E+00  0.22648843295E+03  0.22648843295E+03  0.00000000000E+00 0.  1.
          1   -1    0    0  501    0  0.00000000000E+00 -0.00000000000E+00 -0.71880377948E+03  0.71880377948E+03  0.00000000000E+00 0. -1.
         23    2    1    2    0    0 -0.28230235958E+03 -0.25677428656E+03 -0.11556279796E+03  0.40903654643E+03  0.91260503954E+02 0.  0.
         13    1    3    3    0    0 -0.22826680946E+03 -0.16786204430E+03 -0.54944406494E+02  0.28862136099E+03  0.00000000000E+00 0. -1.
        -13    1    3    3    0    0 -0.54035550123E+02 -0.88912242260E+02 -0.60618391461E+02  0.12041518544E+03  0.00000000000E+00 0.  1.
         22    1    1    2    0    0  0.28230235958E+03  0.25677428656E+03 -0.37675254858E+03  0.53625566600E+03  0.00000000000E+00 0.  1.
<mgrwt>
<rscale>  0 0.80697148E+03</rscale>
<asrwt>0</asrwt>
<pdfrwt beam="1">  1        1 0.11058519E+00 0.80697148E+03</pdfrwt>
<pdfrwt beam="2">  1       -1 0.34844375E-01 0.80697148E+03</pdfrwt>
<totfact> 0.20665160E+02</totfact>
</mgrwt>
</event>
<event>
 6    1  0.1885829E-005  0.3464796E+04  0.7818608E-02  0.8122184E-01
         -1   -1    0    0    0  501 -0.00000000000E+00  0.00000000000E+00  0.19120121686E+04  0.19120121686E+04  0.00000000000E+00 0.  1.
          1   -1    0    0  501    0  0.00000000000E+00 -0.00000000000E+00 -0.15696570631E+04  0.15696570631E+04  0.00000000000E+00 0. -1.
         23    2    1    2    0    0 -0.16429220032E+04  0.52485245816E+03  0.32199485572E+03  0.17568279778E+04  0.90005805410E+02 0.  0.
         11    1    3    3    0    0 -0.12617880017E+04  0.43251471151E+03  0.22305898247E+03  0.13523805850E+04  0.00000000000E+00 0.  1.
        -11    1    3    3    0    0 -0.38113400147E+03  0.92337746647E+02  0.98935873252E+02  0.40444739281E+03  0.00000000000E+00 0. -1.
         22    1    1    2    0    0  0.16429220032E+04 -0.52485245816E+03  0.20360249711E+02  0.17248412539E+04  0.00000000000E+00 0. -1.
<mgrwt>
<rscale>  0 0.34647963E+04</rscale>
<asrwt>0</asrwt>
<pdfrwt beam="1">  1        1 0.24148570E+00 0.34647963E+04</pdfrwt>
<pdfrwt beam="2">  1       -1 0.29415572E+00 0.34647963E+04</pdfrwt>
<totfact> 0.17262029E-01</totfact>
</mgrwt>
</event>
<event>
 6    1  0.1885829E-005  0.2928031E+04  0.7818608E-02  0.8264586E-01
          2   -1    0    0  501    0  0.00000000000E+00  0.00000000000E+00  0.16580718630E+04  0.16580718630E+04  0.00000000000E+00 0. -1.
         -2   -1    0    0    0  501 -0.00000000000E+00 -0.00000000000E+00 -0.12926711019E+04  0.12926711019E+04  0.00000000000E+00 0.  1.
         23    2    1    2    0    0 -0.80247081940E+03  0.11650674203E+04 -0.19139060503E+03  0.14304278214E+04  0.90287754901E+02 0.  0.
         13    1    3    3    0    0 -0.34381818746E+03  0.45142648205E+03 -0.41450853113E+02  0.56895956618E+03  0.00000000000E+00 0.  1.
        -13    1    3    3    0    0 -0.45865263194E+03  0.71364093828E+03 -0.14993975191E+03  0.86146825524E+03  0.00000000000E+00 0. -1.
         22    1    1    2    0    0  0.80247081940E+03 -0.11650674203E+04  0.55679136613E+03  0.15203151434E+04  0.00000000000E+00 0.  1.
<mgrwt>
<rscale>  0 0.29280311E+04</rscale>
<asrwt>0</asrwt>
<pdfrwt beam="1">  1        2 0.25508798E+00 0.29280311E+04</pdfrwt>
<pdfrwt beam="2">  1       -2 0.19887248E+00 0.29280311E+04</pdfrwt>
<totfact> 0.12057707E+00</totfact>
</mgrwt>
</event>
<event>
 6    1  0.1885829E-005  0.1210694E+04  0.7818608E-02  0.9103547E-01
         -1   -1    0    0    0  501 -0.00000000000E+00  0.00000000000E+00  0.28619899075E+03  0.28619899075E+03  0.00000000000E+00 0.  1.
          1   -1    0    0  501    0  0.00000000000E+00 -0.00000000000E+00 -0.12803863141E+04  0.12803863141E+04  0.00000000000E+00 0. -1.
         23    2    1    2    0    0  0.47583480004E+03  0.85710458595E+02 -0.36422621952E+02  0.49370215050E+03  0.93006270640E+02 0.  0.
         13    1    3    3    0    0  0.10382923850E+02 -0.39991817488E+00 -0.17036458252E+02  0.19955098396E+02  0.00000000000E+00 0. -1.
        -13    1    3    3    0    0  0.46545187619E+03  0.86110376770E+02 -0.19386163701E+02  0.47374705210E+03  0.00000000000E+00 0.  1.
         22    1    1    2    0    0 -0.47583480004E+03 -0.85710458595E+02 -0.95776470144E+03  0.10728831544E+04  0.00000000000E+00 0. -1.
<mgrwt>
<rscale>  0 0.12106945E+04</rscale>
<asrwt>0</asrwt>
<pdfrwt beam="1">  1        1 0.19698251E+00 0.12106945E+04</pdfrwt>
<pdfrwt beam="2">  1       -1 0.44030613E-01 0.12106945E+04</pdfrwt>
<totfact> 0.47113071E+01</totfact>
</mgrwt>
</event>
<event>
 6    1  0.1885829E-005  0.2797443E+04  0.7818608E-02  0.8304062E-01
          2   -1    0    0  501    0  0.00000000000E+00  0.00000000000E+00  0.33915035447E+04  0.33915035447E+04  0.00000000000E+00 0. -1.
         -2   -1    0    0    0  501 -0.00000000000E+00 -0.00000000000E+00 -0.57685993077E+03  0.57685993077E+03  0.00000000000E+00 0.  1.
         23    2    1    2    0    0 -0.95796023999E+03  0.14116028092E+02  0.28515501461E+04  0.30095886449E+04  0.91643286715E+02 0.  0.
         11    1    3    3    0    0 -0.64605379341E+03  0.48011192105E+02  0.18606454936E+04  0.19702010637E+04  0.00000000000E+00 0. -1.
        -11    1    3    3    0    0 -0.31190644658E+03 -0.33895164013E+02  0.99090465247E+03  0.10393875811E+04  0.00000000000E+00 0.  1.
         22    1    1    2    0    0  0.95796023999E+03 -0.14116028092E+02 -0.36906532167E+02  0.95877483059E+03  0.00000000000E+00 0.  1.
<mgrwt>
<rscale>  0 0.27974435E+04</rscale>
<asrwt>0</asrwt>
<pdfrwt beam="1">  1        2 0.52176977E+00 0.27974435E+04</pdfrwt>
<pdfrwt beam="2">  1       -2 0.88747683E-01 0.27974435E+04</pdfrwt>
<totfact> 0.91765979E-01</totfact>
</mgrwt>
</event>
<event>
 6    1  0.1885829E-005  0.3333772E+04  0.7818608E-02  0.8154355E-01
          2   -1    0    0  501    0  0.00000000000E+00  0.00000000000E+00  0.26808493491E+04  0.26808493491E+04  0.00000000000E+00 0. -1.
         -2   -1    0    0    0  501 -0.00000000000E+00 -0.00000000000E+00 -0.10364286232E+04  0.10364286232E+04  0.00000000000E+00 0.  1.
         23    2    1    2    0    0 -0.75116266824E+03 -0.10491808653E+04  0.19970511524E+04  0.23796031014E+04  0.96290044713E+02 0.  0.
         13    1    3    3    0    0 -0.19926751097E+03 -0.30916481107E+03  0.49813605759E+03  0.61921721004E+03  0.00000000000E+00 0.  1.
        -13    1    3    3    0    0 -0.55189515727E+03 -0.74001605426E+03  0.14989150948E+04  0.17603858914E+04  0.00000000000E+00 0. -1.
         22    1    1    2    0    0  0.75116266824E+03  0.10491808653E+04 -0.35263042653E+03  0.13376748708E+04  0.00000000000E+00 0.  1.
<mgrwt>
<rscale>  0 0.33337720E+04</rscale>
<asrwt>0</asrwt>
<pdfrwt beam="1">  1        2 0.41243836E+00 0.33337720E+04</pdfrwt>
<pdfrwt beam="2">  1       -2 0.15945056E+00 0.33337720E+04</pdfrwt>
<totfact> 0.57715143E-01</totfact>
</mgrwt>
</event>
<event>
 6    1  0.1885829E-005  0.2982148E+04  0.7818608E-02  0.8248847E-01
         -2   -1    0    0    0  501 -0.00000000000E+00  0.00000000000E+00  0.12961141526E+04  0.12961141526E+04  0.00000000000E+00 0.  1.
          2   -1    0    0  501    0  0.00000000000E+00 -0.00000000000E+00 -0.17153589952E+04  0.17153589952E+04  0.00000000000E+00 0. -1.
         23    2    1    2    0    0  0.52926666029E+03  0.81311986772E+03  0.93159998994E+03  0.13483228604E+04  0.93855621689E+02 0.  0.
         13    1    3    3    0    0  0.12772461127E+03  0.27234696351E+03  0.30485192126E+03  0.42827694166E+03  0.00000000000E+00 0. -1.
        -13    1    3    3    0    0  0.40154204902E+03  0.54077290421E+03  0.62674806868E+03  0.92004591877E+03  0.00000000000E+00 0.  1.
         22    1    1    2    0    0 -0.52926666029E+03 -0.81311986772E+03 -0.13508448325E+04  0.16631502874E+04  0.00000000000E+00 0. -1.
<mgrwt>
<rscale>  0 0.29821476E+04</rscale>
<asrwt>0</asrwt>
<pdfrwt beam="1">  1        2 0.26390138E+00 0.29821476E+04</pdfrwt>
<pdfrwt beam="2">  1       -2 0.19940218E+00 0.29821476E+04</pdfrwt>
<totfact> 0.11064604E+00</totfact>
</mgrwt>
</event>
<event>
 6    1  0.1885829E-005  0.3856818E+04  0.7818608E-02  0.8034071E-01
         -2   -1    0    0    0  501 -0.00000000000E+00  0.00000000000E+00  0.30120359289E+04  0.30120359289E+04  0.00000000000E+00 0.  1.
          2   -1    0    0  501    0  0.00000000000E+00 -0.00000000000E+00 -0.12346338093E+04  0.12346338093E+04  0.00000000000E+00 0. -1.
         23    2    1    2    0    0 -0.59497441058E+03  0.72421932743E+03 -0.96499662042E+03  0.13485256712E+04  0.93887299228E+02 0.  0.
         13    1    3    3    0    0 -0.25618896305E+03  0.38369420208E+03 -0.48861025798E+03  0.67200744765E+03  0.00000000000E+00 0.  1.
        -13    1    3    3    0    0 -0.33878544753E+03  0.34052512535E+03 -0.47638636244E+03  0.67651822353E+03  0.00000000000E+00 0. -1.
         22    1    1    2    0    0  0.59497441058E+03 -0.72421932743E+03  0.27423987400E+04  0.28981440669E+04  0.00000000000E+00 0.  1.
<mgrwt>
<rscale>  0 0.38568181E+04</rscale>
<asrwt>0</asrwt>
<pdfrwt beam="1">  1        2 0.18994366E+00 0.38568181E+04</pdfrwt>
<pdfrwt beam="2">  1       -2 0.46339014E+00 0.38568181E+04</pdfrwt>
<totfact> 0.40824949E-02</totfact>
</mgrwt>
</event>
<event>
 6    1  0.1885829E-005  0.7040965E+03  0.7818608E-02  0.9710252E-01
          2   -1    0    0  501    0  0.00000000000E+00  0.00000000000E+00  0.13541034859E+04  0.13541034859E+04  0.00000000000E+00 0. -1.
         -2   -1    0    0    0  501 -0.00000000000E+00 -0.00000000000E+00 -0.91527705138E+02  0.91527705138E+02  0.00000000000E+00 0.  1.
         23    2    1    2    0    0 -0.23134380477E+03  0.62349733858E+02  0.13252816275E+03  0.29046234438E+03  0.96939229738E+02 0.  0.
         13    1    3    3    0    0 -0.66171697375E+02  0.30772110503E+02 -0.51068121823E+01  0.73155285858E+02  0.00000000000E+00 0.  1.
        -13    1    3    3    0    0 -0.16517210740E+03  0.31577623356E+02  0.13763497493E+03  0.21730705852E+03  0.00000000000E+00 0. -1.
         22    1    1    2    0    0  0.23134380477E+03 -0.62349733858E+02  0.11300476180E+04  0.11551688466E+04  0.00000000000E+00 0. -1.
<mgrwt>
<rscale>  0 0.70409654E+03</rscale>
<asrwt>0</asrwt>
<pdfrwt beam="1">  1        2 0.20832360E+00 0.70409654E+03</pdfrwt>
<pdfrwt beam="2">  1       -2 0.14081186E-01 0.70409654E+03</pdfrwt>
<totfact> 0.60653311E+02</totfact>
</mgrwt>
</event>
<event>
 6    1  0.1885829E-005  0.1968613E+04  0.7818608E-02  0.8621437E-01
          2   -1    0    0  501    0  0.00000000000E+00  0.00000000000E+00  0.70984386712E+03  0.70984386712E+03  0.00000000000E+00 0. -1.
         -2   -1    0    0    0  501 -0.00000000000E+00 -0.00000000000E+00 -0.13648907824E+04  0.13648907824E+04  0.00000000000E+00 0.  1.
         23    2    1    2    0    0  0.91180703871E+03  0.12706734921E+03 -0.68905112366E+03  0.11534884972E+04  0.90587388722E+02 0.  0.
         13    1    3    3    0    0  0.59315527204E+03  0.71761831218E+02 -0.39390226335E+03  0.71564092269E+03  0.00000000000E+00 0. -1.
        -13    1    3    3    0    0  0.31865176667E+03  0.55305517996E+02 -0.29514886032E+03  0.43784757447E+03  0.00000000000E+00 0.  1.
         22    1    1    2    0    0 -0.91180703871E+03 -0.12706734921E+03  0.34004208363E+02  0.92124615237E+03  0.00000000000E+00 0.  1.
<mgrwt>
<rscale>  0 0.19686131E+04</rscale>
<asrwt>0</asrwt>
<pdfrwt beam="1">  1        2 0.10920675E+00 0.19686131E+04</pdfrwt>
<pdfrwt beam="2">  1       -2 0.20998319E+00 0.19686131E+04</pdfrwt>
<totfact> 0.42915814E+00</totfact>
</mgrwt>
</event>
<event>
 6    1  0.1885829E-005  0.9586070E+03  0.7818608E-02  0.9355146E-01
          2   -1    0    0  501    0  0.00000000000E+00  0.00000000000E+00  0.15338310110E+04  0.15338310110E+04  0.00000000000E+00 0. -1.
         -2   -1    0    0    0  501 -0.00000000000E+00 -0.00000000000E+00 -0.14977650556E+03  0.14977650556E+03  0.00000000000E+00 0.  1.
         23    2    1    2    0    0 -0.10665668258E+03  0.46012809996E+03  0.60892653408E+03  0.77590883952E+03  0.90274509260E+02 0.  0.
         13    1    3    3    0    0 -0.98807499423E+02  0.23291116607E+03  0.30264319011E+03  0.39446601088E+03  0.00000000000E+00 0.  1.
        -13    1    3    3    0    0 -0.78491831575E+01  0.22721693389E+03  0.30628334397E+03  0.38144282863E+03  0.00000000000E+00 0. -1.
         22    1    1    2    0    0  0.10665668258E+03 -0.46012809996E+03  0.77512797137E+03  0.90769867705E+03  0.00000000000E+00 0. -1.
<mgrwt>
<rscale>  0 0.95860701E+03</rscale>
<asrwt>0</asrwt>
<pdfrwt beam="1">  1        2 0.23597399E+00 0.95860701E+03</pdfrwt>
<pdfrwt beam="2">  1       -2 0.23042540E-01 0.95860701E+03</pdfrwt>
<totfact> 0.20188716E+02</totfact>
</mgrwt>
</event>
<event>
 6    1  0.1885829E-005  0.3393431E+04  0.7818608E-02  0.8139520E-01
          1   -1    0    0  501    0  0.00000000000E+00  0.00000000000E+00  0.17704089331E+04  0.17704089331E+04  0.00000000000E+00 0. -1.
         -1   -1    0    0    0  501 -0.00000000000E+00 -0.00000000000E+00 -0.16260894478E+04  0.16260894478E+04  0.00000000000E+00 0.  1.
         23    2    1    2    0    0 -0.61939791355E+03 -0.25891404393E+03  0.16305695507E+04  0.17656613215E+04  0.90069890858E+02 0.  0.
         13    1    3    3    0    0 -0.45028707365E+03 -0.14914452031E+03  0.11946702453E+04  0.12853946988E+04  0.00000000000E+00 0.  1.
        -13    1    3    3    0    0 -0.16911083991E+03 -0.10976952362E+03  0.43589930535E+03  0.48026662271E+03  0.00000000000E+00 0. -1.
         22    1    1    2    0    0  0.61939791355E+03  0.25891404393E+03 -0.14862500654E+04  0.16308370594E+04  0.00000000000E+00 0.  1.
<mgrwt>
<rscale>  0 0.33934309E+04</rscale>
<asrwt>0</asrwt>
<pdfrwt beam="1">  1        1 0.27237060E+00 0.33934309E+04</pdfrwt>
<pdfrwt beam="2">  1       -1 0.25016761E+00 0.33934309E+04</pdfrwt>
<totfact> 0.24429179E-01</totfact>
</mgrwt>
</event>
<event>
 6    1  0.1885829E-005  0.7448075E+03  0.7818608E-02  0.9643532E-01
          2   -1    0    0  501    0  0.00000000000E+00  0.00000000000E+00  0.19053851485E+03  0.19053851485E+03  0.00000000000E+00 0. -1.
         -2   -1    0    0    0  501 -0.00000000000E+00 -0.00000000000E+00 -0.72785584185E+03  0.72785584185E+03  0.00000000000E+00 0.  1.
         23    2    1    2    0    0  0.83176824544E+02 -0.15180567472E+03  0.12585242970E+03  0.23300580032E+03  0.92138601601E+02 0.  0.
         11    1    3    3    0    0  0.31734094114E+02 -0.26700080502E+02 -0.85210291604E+01  0.42338575389E+02  0.00000000000E+00 0.  1.
        -11    1    3    3    0    0  0.51442730431E+02 -0.12510559422E+03  0.13437345886E+03  0.19066722493E+03  0.00000000000E+00 0. -1.
         22    1    1    2    0    0 -0.83176824544E+02  0.15180567472E+03 -0.66316975669E+03  0.68538855638E+03  0.00000000000E+00 0.  1.
<mgrwt>
<rscale>  0 0.74480755E+03</rscale>
<asrwt>0</asrwt>
<pdfrwt beam="1">  1        2 0.29313618E-01 0.74480755E+03</pdfrwt>
<pdfrwt beam="2">  1       -2 0.11197782E+00 0.74480755E+03</pdfrwt>
<totfact> 0.11602047E+02</totfact>
</mgrwt>
</event>
<event>
 6    1  0.1885829E-005  0.2496314E+04  0.7818608E-02  0.8404300E-01
         -2   -1    0    0    0  501 -0.00000000000E+00  0.00000000000E+00  0.68846605579E+03  0.68846605579E+03  0.00000000000E+00 0.  1.
          2   -1    0    0  501    0  0.00000000000E+00 -0.00000000000E+00 -0.22628506029E+04  0.22628506029E+04  0.00000000000E+00 0. -1.
         23    2    1    2    0    0  0.70611442532E+03  0.70722643527E+03 -0.16689589025E+04  0.19474685023E+04  0.91885454754E+02 0.  0.
         13    1    3    3    0    0  0.58183467118E+03  0.53301055481E+03 -0.12865402262E+04  0.15092440458E+04  0.00000000000E+00 0. -1.
        -13    1    3    3    0    0  0.12427975415E+03  0.17421588046E+03 -0.38241867625E+03  0.43822445646E+03  0.00000000000E+00 0.  1.
         22    1    1    2    0    0 -0.70611442532E+03 -0.70722643527E+03  0.94574355396E+02  0.10038481564E+04  0.00000000000E+00 0.  1.
<mgrwt>
<rscale>  0 0.24963139E+04</rscale>
<asrwt>0</asrwt>
<pdfrwt beam="1">  1        2 0.34813087E+00 0.24963139E+04</pdfrwt>
<pdfrwt beam="2">  1       -2 0.10591785E+00 0.24963139E+04</pdfrwt>
<totfact> 0.30557743E+00</totfact>
</mgrwt>
</event>
<event>
 6    1  0.1885829E-005  0.8986823E+03  0.7818608E-02  0.9427230E-01
          2   -1    0    0  501    0  0.00000000000E+00  0.00000000000E+00  0.59319174667E+03  0.59319174667E+03  0.00000000000E+00 0.  1.
         -2   -1    0    0    0  501 -0.00000000000E+00 -0.00000000000E+00 -0.34037472173E+03  0.34037472173E+03  0.00000000000E+00 0. -1.
         23    2    1    2    0    0 -0.26298213238E+03  0.21983112323E+03  0.42248922654E+03  0.55110865284E+03  0.87967471292E+02 0.  0.
         11    1    3    3    0    0 -0.11070816193E+03  0.60340889428E+02  0.20960837662E+03  0.24460783226E+03  0.00000000000E+00 0.  1.
        -11    1    3    3    0    0 -0.15227397045E+03  0.15949023380E+03  0.21288084992E+03  0.30650082058E+03  0.00000000000E+00 0. -1.
         22    1    1    2    0    0  0.26298213238E+03 -0.21983112323E+03 -0.16967220160E+03  0.38245781557E+03  0.00000000000E+00 0. -1.
<mgrwt>
<rscale>  0 0.89868231E+03</rscale>
<asrwt>0</asrwt>
<pdfrwt beam="1">  1        2 0.91260269E-01 0.89868231E+03</pdfrwt>
<pdfrwt beam="2">  1       -2 0.52365342E-01 0.89868231E+03</pdfrwt>
<totfact> 0.17368790E+02</totfact>
</mgrwt>
</event>
<event>
 6    1  0.1885829E-005  0.2587245E+04  0.7818608E-02  0.8372547E-01
         -2   -1    0    0    0  501 -0.00000000000E+00  0.00000000000E+00  0.80480679940E+03  0.80480679940E+03  0.00000000000E+00 0.  1.
          2   -1    0    0  501    0  0.00000000000E+00 -0.00000000000E+00 -0.20793310327E+04  0.20793310327E+04  0.00000000000E+00 0. -1.
         23    2    1    2    0    0 -0.87033222983E+03  0.35036484558E+03 -0.16282281893E+04  0.18814712855E+04  0.92592906650E+02 0.  0.
         13    1    3    3    0    0 -0.71201479287E+03  0.31170658633E+03 -0.12907818452E+04  0.15067328340E+04  0.00000000000E+00 0. -1.
        -13    1    3    3    0    0 -0.15831743696E+03  0.38658259251E+02 -0.33744634413E+03  0.37473845148E+03  0.00000000000E+00 0.  1.
         22    1    1    2    0    0  0.87033222983E+03 -0.35036484558E+03  0.35370395596E+03  0.10026665466E+04  0.00000000000E+00 0.  1.
<mgrwt>
<rscale>  0 0.25872454E+04</rscale>
<asrwt>0</asrwt>
<pdfrwt beam="1">  1        2 0.31989708E+00 0.25872454E+04</pdfrwt>
<pdfrwt beam="2">  1       -2 0.12381643E+00 0.25872454E+04</pdfrwt>
<totfact> 0.26238426E+00</totfact>
</mgrwt>
</event>
<event>
 6    1  0.1885829E-005  0.4500370E+04  0.7818608E-02  0.7910572E-01
          2   -1    0    0  501    0  0.00000000000E+00  0.00000000000E+00  0.17385811834E+04  0.17385811834E+04  0.00000000000E+00 0. -1.
         -2   -1    0    0    0  501 -0.00000000000E+00 -0.00000000000E+00 -0.29123357961E+04  0.29123357961E+04  0.00000000000E+00 0.  1.
         23    2    1    2    0    0  0.56864080308E+03 -0.41798214233E+03 -0.27943061179E+04  0.28833625630E+04  0.87014682718E+02 0.  0.
         13    1    3    3    0    0  0.44471474310E+03 -0.35229822014E+03 -0.21184475121E+04  0.21931039875E+04  0.00000000000E+00 0. -1.
        -13    1    3    3    0    0  0.12392605998E+03 -0.65683922188E+02 -0.67585860583E+03  0.69025857550E+03  0.00000000000E+00 0.  1.
         22    1    1    2    0    0 -0.56864080308E+03  0.41798214233E+03  0.16205515052E+04  0.17675544165E+04  0.00000000000E+00 0. -1.
<mgrwt>
<rscale>  0 0.45003699E+04</rscale>
<asrwt>0</asrwt>
<pdfrwt beam="1">  1        2 0.26747403E+00 0.45003699E+04</pdfrwt>
<pdfrwt beam="2">  1       -2 0.44805166E+00 0.45003699E+04</pdfrwt>
<totfact> 0.25317894E-02</totfact>
</mgrwt>
</event>
<event>
 6    1  0.1885829E-005  0.1314460E+04  0.7818608E-02  0.9018177E-01
          1   -1    0    0  501    0  0.00000000000E+00  0.00000000000E+00  0.87819021390E+03  0.87819021390E+03  0.00000000000E+00 0. -1.
         -1   -1    0    0    0  501 -0.00000000000E+00 -0.00000000000E+00 -0.49186496005E+03  0.49186496005E+03  0.00000000000E+00 0.  1.
         23    2    1    2    0    0 -0.94210599847E+02 -0.64732130507E+03  0.18889517548E+03  0.68676962239E+03  0.89836617200E+02 0.  0.
         11    1    3    3    0    0 -0.92158988485E+02 -0.41640125062E+03  0.91728412595E+02  0.43623088194E+03  0.00000000000E+00 0.  1.
        -11    1    3    3    0    0 -0.20516113619E+01 -0.23092005445E+03  0.97166762890E+02  0.25053874045E+03  0.00000000000E+00 0. -1.
         22    1    1    2    0    0  0.94210599847E+02  0.64732130507E+03  0.19743007837E+03  0.68328555156E+03  0.00000000000E+00 0.  1.
<mgrwt>
<rscale>  0 0.13144596E+04</rscale>
<asrwt>0</asrwt>
<pdfrwt beam="1">  1        1 0.13510619E+00 0.13144596E+04</pdfrwt>
<pdfrwt beam="2">  1       -1 0.75671533E-01 0.13144596E+04</pdfrwt>
<totfact> 0.32677132E+01</totfact>
</mgrwt>
</event>
<event>
 6    1  0.1885829E-005  0.2477447E+04  0.7818608E-02  0.8411064E-01
          2   -1    0    0  501    0  0.00000000000E+00  0.00000000000E+00  0.20686903896E+04  0.20686903896E+04  0.00000000000E+00 0. -1.
         -2   -1    0    0    0  501 -0.00000000000E+00 -0.00000000000E+00 -0.74174280237E+03  0.74174280237E+03  0.00000000000E+00 0.  1.
         23    2    1    2    0    0  0.91092632806E+03 -0.33258918389E+03 -0.20681959622E+03  0.99581364136E+03  0.92022402448E+02 0.  0.
         11    1    3    3    0    0  0.31382062012E+03 -0.10161604256E+03 -0.27787484044E+02  0.33103073270E+03  0.00000000000E+00 0.  1.
        -11    1    3    3    0    0  0.59710570793E+03 -0.23097314133E+03 -0.17903211217E+03  0.66478290866E+03  0.00000000000E+00 0. -1.
         22    1    1    2    0    0 -0.91092632806E+03  0.33258918389E+03  0.15337671834E+04  0.18146195506E+04  0.00000000000E+00 0. -1.
<mgrwt>
<rscale>  0 0.24774472E+04</rscale>
<asrwt>0</asrwt>
<pdfrwt beam="1">  1        2 0.31826006E+00 0.24774472E+04</pdfrwt>
<pdfrwt beam="2">  1       -2 0.11411428E+00 0.24774472E+04</pdfrwt>
<totfact> 0.32843516E+00</totfact>
</mgrwt>
</event>
<event>
 6    1  0.1885829E-005  0.1256940E+04  0.7818608E-02  0.9064427E-01
          1   -1    0    0  501    0  0.00000000000E+00  0.00000000000E+00  0.22819650582E+04  0.22819650582E+04  0.00000000000E+00 0. -1.
         -1   -1    0    0    0  501 -0.00000000000E+00 -0.00000000000E+00 -0.17308530728E+03  0.17308530728E+03  0.00000000000E+00 0.  1.
         23    2    1    2    0    0 -0.87664070658E+02  0.58095233003E+03  0.64356297369E+03  0.87633447696E+03  0.92726562266E+02 0.  0.
         13    1    3    3    0    0 -0.22792677055E+02  0.21909285317E+03  0.17852623879E+03  0.28353624526E+03  0.00000000000E+00 0. -1.
        -13    1    3    3    0    0 -0.64871393603E+02  0.36185947686E+03  0.46503673490E+03  0.59279823170E+03  0.00000000000E+00 0.  1.
         22    1    1    2    0    0  0.87664070658E+02 -0.58095233003E+03  0.14653167773E+04  0.15787158886E+04  0.00000000000E+00 0. -1.
<mgrwt>
<rscale>  0 0.12569401E+04</rscale>
<asrwt>0</asrwt>
<pdfrwt beam="1">  1        1 0.35107153E+00 0.12569401E+04</pdfrwt>
<pdfrwt beam="2">  1       -1 0.26628510E-01 0.12569401E+04</pdfrwt>
<totfact> 0.23791250E+01</totfact>
</mgrwt>
</event>
<event>
 6    1  0.2637676E-005  0.2396953E+04  0.7818608E-02  0.8440645E-01
          2   -1    0    0  501    0  0.00000000000E+00  0.00000000000E+00  0.13459248706E+04  0.13459248706E+04  0.00000000000E+00 0.  1.
         -2   -1    0    0    0  501 -0.00000000000E+00 -0.00000000000E+00 -0.10671813445E+04  0.10671813445E+04  0.00000000000E+00 0. -1.
         23    2    1    2    0    0 -0.58615504447E+03  0.43546301521E+03  0.10942023977E+04  0.13184926096E+04  0.89096019068E+02 0.  0.
         13    1    3    3    0    0 -0.21520897587E+03  0.11099310383E+03  0.33479344087E+03  0.41318400313E+03  0.00000000000E+00 0. -1.
        -13    1    3    3    0    0 -0.37094606860E+03  0.32446991138E+03  0.75940895688E+03  0.90530860649E+03  0.00000000000E+00 0.  1.
         22    1    1    2    0    0  0.58615504447E+03 -0.43546301521E+03 -0.81545887169E+03  0.10946136054E+04  0.00000000000E+00 0. -1.
<mgrwt>
<rscale>  0 0.23969530E+04</rscale>
<asrwt>0</asrwt>
<pdfrwt beam="1">  1        2 0.20706536E+00 0.23969530E+04</pdfrwt>
<pdfrwt beam="2">  1       -2 0.16418175E+00 0.23969530E+04</pdfrwt>
<totfact> 0.32823208E+00</totfact>
</mgrwt>
</event>
<event>
 6    1  0.1885829E-005  0.1120354E+04  0.7818608E-02  0.9185578E-01
          2   -1    0    0  501    0  0.00000000000E+00  0.00000000000E+00  0.25942042707E+04  0.25942042707E+04  0.00000000000E+00 0. -1.
         -2   -1    0    0    0  501 -0.00000000000E+00 -0.00000000000E+00 -0.12096123900E+03  0.12096123900E+03  0.00000000000E+00 0.  1.
         23    2    1    2    0    0 -0.16023231812E+03 -0.14198129696E+03  0.24895779008E+04  0.25004566082E+04  0.91934982181E+02 0.  0.
         13    1    3    3    0    0 -0.13128691636E+03 -0.58519260291E+02  0.16470874750E+04  0.16533474857E+04  0.00000000000E+00 0.  1.
        -13    1    3    3    0    0 -0.28945401763E+02 -0.83462036668E+02  0.84249042579E+03  0.84710912248E+03  0.00000000000E+00 0. -1.
         22    1    1    2    0    0  0.16023231812E+03  0.14198129696E+03 -0.16334869047E+02  0.21470890155E+03  0.00000000000E+00 0.  1.
<mgrwt>
<rscale>  0 0.11203538E+04</rscale>
<asrwt>0</asrwt>
<pdfrwt beam="1">  1        2 0.39910831E+00 0.11203538E+04</pdfrwt>
<pdfrwt beam="2">  1       -2 0.18609423E-01 0.11203538E+04</pdfrwt>
<totfact> 0.74481618E+01</totfact>
</mgrwt>
</event>
<event>
 6    1  0.1885829E-005  0.3974652E+04  0.7818608E-02  0.8009680E-01
          2   -1    0    0  501    0  0.00000000000E+00  0.00000000000E+00  0.25102019094E+04  0.25102019094E+04  0.00000000000E+00 0. -1.
         -2   -1    0    0    0  501 -0.00000000000E+00 -0.00000000000E+00 -0.15733652241E+04  0.15733652241E+04  0.00000000000E+00 0.  1.
         23    2    1    2    0    0  0.19114924894E+03 -0.79851913475E+03  0.23268829191E+04  0.24691324411E+04  0.89777772019E+02 0.  0.
         11    1    3    3    0    0  0.99482772439E+02 -0.29560287444E+03  0.98358412485E+03  0.10318505764E+04  0.00000000000E+00 0. -1.
        -11    1    3    3    0    0  0.91666476503E+02 -0.50291626031E+03  0.13432987943E+04  0.14372818647E+04  0.00000000000E+00 0.  1.
         22    1    1    2    0    0 -0.19114924894E+03  0.79851913475E+03 -0.13900462338E+04  0.16144346924E+04  0.00000000000E+00 0.  1.
<mgrwt>
<rscale>  0 0.39746519E+04</rscale>
<asrwt>0</asrwt>
<pdfrwt beam="1">  1        2 0.38618491E+00 0.39746519E+04</pdfrwt>
<pdfrwt beam="2">  1       -2 0.24205619E+00 0.39746519E+04</pdfrwt>
<totfact> 0.19527208E-01</totfact>
</mgrwt>
</event>
<event>
 6    1  0.1885829E-005  0.1229451E+04  0.7818608E-02  0.9087462E-01
          1   -1    0    0  501    0  0.00000000000E+00  0.00000000000E+00  0.85398736364E+03  0.85398736364E+03  0.00000000000E+00 0. -1.
         -1   -1    0    0    0  501 -0.00000000000E+00 -0.00000000000E+00 -0.44249736938E+03  0.44249736938E+03  0.00000000000E+00 0.  1.
         23    2    1    2    0    0  0.19790583772E+03 -0.38761298412E+03 -0.24596861069E+03  0.50802905050E+03  0.90456689349E+02 0.  0.
         13    1    3    3    0    0  0.67227157069E+02 -0.18942695227E+03 -0.15492104616E+03  0.25377665660E+03  0.00000000000E+00 0. -1.
        -13    1    3    3    0    0  0.13067868065E+03 -0.19818603185E+03 -0.91047564537E+02  0.25425239390E+03  0.00000000000E+00 0.  1.
         22    1    1    2    0    0 -0.19790583772E+03  0.38761298412E+03  0.65745860496E+03  0.78845568252E+03  0.00000000000E+00 0. -1.
<mgrwt>
<rscale>  0 0.12294505E+04</rscale>
<asrwt>0</asrwt>
<pdfrwt beam="1">  1        1 0.13138267E+00 0.12294505E+04</pdfrwt>
<pdfrwt beam="2">  1       -1 0.68076519E-01 0.12294505E+04</pdfrwt>
<totfact> 0.42886901E+01</totfact>
</mgrwt>
</event>
<event>
 6    1  0.1885829E-005  0.1965332E+04  0.7818608E-02  0.8623003E-01
          2   -1    0    0  501    0  0.00000000000E+00  0.00000000000E+00  0.88686462189E+03  0.88686462189E+03  0.00000000000E+00 0. -1.
         -2   -1    0    0    0  501 -0.00000000000E+00 -0.00000000000E+00 -0.10888165286E+04  0.10888165286E+04  0.00000000000E+00 0.  1.
         23    2    1    2    0    0 -0.75931330537E+03 -0.15889880420E+03 -0.70426135773E+03  0.10514948542E+04  0.88610624480E+02 0.  0.
         13    1    3    3    0    0 -0.20422334907E+03 -0.65044341633E+02 -0.24013529162E+03  0.32187404519E+03  0.00000000000E+00 0. -1.
        -13    1    3    3    0    0 -0.55508995631E+03 -0.93854462564E+02 -0.46412606611E+03  0.72962080903E+03  0.00000000000E+00 0.  1.
         22    1    1    2    0    0  0.75931330537E+03  0.15889880420E+03  0.50230945100E+03  0.92418629629E+03  0.00000000000E+00 0. -1.
<mgrwt>
<rscale>  0 0.19653324E+04</rscale>
<asrwt>0</asrwt>
<pdfrwt beam="1">  1        2 0.13644071E+00 0.19653324E+04</pdfrwt>
<pdfrwt beam="2">  1       -2 0.16751023E+00 0.19653324E+04</pdfrwt>
<totfact> 0.61900688E+00</totfact>
</mgrwt>
</event>
<event>
 6    1  0.2721352E-005  0.2897074E+04  0.7818608E-02  0.8273748E-01
         -2   -1    0    0    0  501 -0.00000000000E+00  0.00000000000E+00  0.11098382850E+04  0.11098382850E+04  0.00000000000E+00 0.  1.
          2   -1    0    0  501    0  0.00000000000E+00 -0.00000000000E+00 -0.18905996659E+04  0.18905996659E+04  0.00000000000E+00 0. -1.
         23    2    1    2    0    0 -0.24591616797E+03  0.13493529963E+04  0.87187997078E+02  0.13773038242E+04  0.90198707960E+02 0.  0.
         11    1    3    3    0    0 -0.11043024367E+03  0.76320969975E+03  0.83787933550E+02  0.77569601154E+03  0.00000000000E+00 0.  1.
        -11    1    3    3    0    0 -0.13548592430E+03  0.58614329657E+03  0.34000635271E+01  0.60160781264E+03  0.00000000000E+00 0. -1.
         22    1    1    2    0    0  0.24591616797E+03 -0.13493529963E+04 -0.86794937798E+03  0.16231341266E+04  0.00000000000E+00 0. -1.
<mgrwt>
<rscale>  0 0.28970743E+04</rscale>
<asrwt>0</asrwt>
<pdfrwt beam="1">  1        2 0.29086149E+00 0.28970743E+04</pdfrwt>
<pdfrwt beam="2">  1       -2 0.17074435E+00 0.28970743E+04</pdfrwt>
<totfact> 0.13970588E+00</totfact>
</mgrwt>
</event>
<event>
 6    1  0.1885829E-005  0.2925705E+04  0.7818608E-02  0.8265270E-01
         -2   -1    0    0    0  501 -0.00000000000E+00  0.00000000000E+00  0.12722587977E+04  0.12722587977E+04  0.00000000000E+00 0.  1.
          2   -1    0    0  501    0  0.00000000000E+00 -0.00000000000E+00 -0.16819988036E+04  0.16819988036E+04  0.00000000000E+00 0. -1.
         23    2    1    2    0    0  0.65083577876E+03 -0.64907022687E+03  0.94214958229E+03  0.13194839690E+04  0.92264504242E+02 0.  0.
         13    1    3    3    0    0  0.42845907659E+03 -0.36463773838E+03  0.58467597410E+03  0.81140856247E+03  0.00000000000E+00 0.  1.
        -13    1    3    3    0    0  0.22237670217E+03 -0.28443248849E+03  0.35747360819E+03  0.50807540654E+03  0.00000000000E+00 0. -1.
         22    1    1    2    0    0 -0.65083577876E+03  0.64907022687E+03 -0.13518895881E+04  0.16347736323E+04  0.00000000000E+00 0. -1.
<mgrwt>
<rscale>  0 0.29257052E+04</rscale>
<asrwt>0</asrwt>
<pdfrwt beam="1">  1        2 0.25876904E+00 0.29257052E+04</pdfrwt>
<pdfrwt beam="2">  1       -2 0.19573212E+00 0.29257052E+04</pdfrwt>
<totfact> 0.12268216E+00</totfact>
</mgrwt>
</event>
<event>
 6    1  0.1885829E-005  0.2189624E+04  0.7818608E-02  0.8522759E-01
          1   -1    0    0  501    0  0.00000000000E+00  0.00000000000E+00  0.95501340741E+03  0.95501340741E+03  0.00000000000E+00 0. -1.
         -1   -1    0    0    0  501 -0.00000000000E+00 -0.00000000000E+00 -0.12550747700E+04  0.12550747700E+04  0.00000000000E+00 0.  1.
         23    2    1    2    0    0  0.36355851855E+03  0.60640970830E+03 -0.99105099491E+03  0.12214658013E+04  0.99443946137E+02 0.  0.
         11    1    3    3    0    0  0.22175031226E+03  0.34799914339E+03 -0.49492650094E+03  0.64438253090E+03  0.00000000000E+00 0.  1.
        -11    1    3    3    0    0  0.14180820629E+03  0.25841056490E+03 -0.49612449397E+03  0.57708327037E+03  0.00000000000E+00 0. -1.
         22    1    1    2    0    0 -0.36355851855E+03 -0.60640970830E+03  0.69098963230E+03  0.98862237617E+03  0.00000000000E+00 0. -1.
<mgrwt>
<rscale>  0 0.21896239E+04</rscale>
<asrwt>0</asrwt>
<pdfrwt beam="1">  1        1 0.14692514E+00 0.21896239E+04</pdfrwt>
<pdfrwt beam="2">  1       -1 0.19308843E+00 0.21896239E+04</pdfrwt>
<totfact> 0.25192133E+00</totfact>
</mgrwt>
</event>
<event>
 6    1  0.1885829E-005  0.2724272E+04  0.7818608E-02  0.8327172E-01
         -2   -1    0    0    0  501 -0.00000000000E+00  0.00000000000E+00  0.10102882921E+04  0.10102882921E+04  0.00000000000E+00 0.  1.
          2   -1    0    0  501    0  0.00000000000E+00 -0.00000000000E+00 -0.18365197453E+04  0.18365197453E+04  0.00000000000E+00 0. -1.
         23    2    1    2    0    0 -0.57111162224E+03  0.12039402397E+04 -0.70111953158E+03  0.15084158756E+04  0.90051487872E+02 0.  0.
         11    1    3    3    0    0 -0.52818176689E+03  0.10446017838E+04 -0.61271471897E+03  0.13212070968E+04  0.00000000000E+00 0.  1.
        -11    1    3    3    0    0 -0.42929855349E+02  0.15933845582E+03 -0.88404812609E+02  0.18720877884E+03  0.00000000000E+00 0. -1.
         22    1    1    2    0    0  0.57111162224E+03 -0.12039402397E+04 -0.12511192162E+03  0.13383921618E+04  0.00000000000E+00 0.  1.
<mgrwt>
<rscale>  0 0.27242719E+04</rscale>
<asrwt>0</asrwt>
<pdfrwt beam="1">  1        2 0.28254150E+00 0.27242719E+04</pdfrwt>
<pdfrwt beam="2">  1       -2 0.15542897E+00 0.27242719E+04</pdfrwt>
<totfact> 0.19650322E+00</totfact>
</mgrwt>
</event>
<event>
 6    1  0.1885829E-005  0.1739463E+04  0.7818608E-02  0.8739172E-01
          2   -1    0    0  501    0  0.00000000000E+00  0.00000000000E+00  0.25424877553E+04  0.25424877553E+04  0.00000000000E+00 0. -1.
         -2   -1    0    0    0  501 -0.00000000000E+00 -0.00000000000E+00 -0.29751681153E+03  0.29751681153E+03  0.00000000000E+00 0.  1.
         23    2    1    2    0    0  0.31446358217E+03  0.22794843719E+02  0.24448116073E+04  0.24667174921E+04  0.90467901282E+02 0.  0.
         11    1    3    3    0    0  0.13718554858E+03 -0.19875577984E+02  0.81085728586E+03  0.82262047833E+03  0.00000000000E+00 0.  1.
        -11    1    3    3    0    0  0.17727803359E+03  0.42670421703E+02  0.16339543214E+04  0.16440970137E+04  0.00000000000E+00 0. -1.
         22    1    1    2    0    0 -0.31446358217E+03 -0.22794843719E+02 -0.19984066350E+03  0.37328707478E+03  0.00000000000E+00 0.  1.
<mgrwt>
<rscale>  0 0.17394630E+04</rscale>
<asrwt>0</asrwt>
<pdfrwt beam="1">  1        2 0.39115195E+00 0.17394630E+04</pdfrwt>
<pdfrwt beam="2">  1       -2 0.45771819E-01 0.17394630E+04</pdfrwt>
<totfact> 0.14142563E+01</totfact>
</mgrwt>
</event>
<event>
 6    1  0.1885829E-005  0.1509872E+04  0.7818608E-02  0.8877915E-01
          2   -1    0    0  501    0  0.00000000000E+00  0.00000000000E+00  0.16663160188E+04  0.16663160188E+04  0.00000000000E+00 0. -1.
         -2   -1    0    0    0  501 -0.00000000000E+00 -0.00000000000E+00 -0.34202892943E+03  0.34202892943E+03  0.00000000000E+00 0.  1.
         23    2    1    2    0    0  0.28880926519E+03  0.55117382458E+03  0.10222310959E+03  0.63697929778E+03  0.89942676775E+02 0.  0.
         11    1    3    3    0    0  0.16441564077E+03  0.36239845990E+03  0.10235795250E+03  0.41090424323E+03  0.00000000000E+00 0.  1.
        -11    1    3    3    0    0  0.12439362442E+03  0.18877536468E+03 -0.13484290332E+00  0.22607505455E+03  0.00000000000E+00 0. -1.
         22    1    1    2    0    0 -0.28880926519E+03 -0.55117382458E+03  0.12220639798E+04  0.13713656505E+04  0.00000000000E+00 0. -1.
<mgrwt>
<rscale>  0 0.15098719E+04</rscale>
<asrwt>0</asrwt>
<pdfrwt beam="1">  1        2 0.25635631E+00 0.15098719E+04</pdfrwt>
<pdfrwt beam="2">  1       -2 0.52619836E-01 0.15098719E+04</pdfrwt>
<totfact> 0.33683506E+01</totfact>
</mgrwt>
</event>
<event>
 6    1  0.1885829E-005  0.1315192E+04  0.7818608E-02  0.9017604E-01
         -2   -1    0    0    0  501 -0.00000000000E+00  0.00000000000E+00  0.29002718736E+03  0.29002718736E+03  0.00000000000E+00 0.  1.
          2   -1    0    0  501    0  0.00000000000E+00 -0.00000000000E+00 -0.14910071439E+04  0.14910071439E+04  0.00000000000E+00 0. -1.
         23    2    1    2    0    0 -0.53899460367E+03  0.34306373973E+03 -0.79517244811E+03  0.10241409133E+04  0.91419230639E+02 0.  0.
         11    1    3    3    0    0 -0.16905374052E+03  0.13535999613E+03 -0.32827742804E+03  0.39327797484E+03  0.00000000000E+00 0. -1.
        -11    1    3    3    0    0 -0.36994086316E+03  0.20770374360E+03 -0.46689502007E+03  0.63086293844E+03  0.00000000000E+00 0.  1.
         22    1    1    2    0    0  0.53899460367E+03 -0.34306373973E+03 -0.40580750848E+03  0.75689341802E+03  0.00000000000E+00 0.  1.
<mgrwt>
<rscale>  0 0.13151922E+04</rscale>
<asrwt>0</asrwt>
<pdfrwt beam="1">  1        2 0.22938572E+00 0.13151922E+04</pdfrwt>
<pdfrwt beam="2">  1       -2 0.44619567E-01 0.13151922E+04</pdfrwt>
<totfact> 0.59882064E+01</totfact>
</mgrwt>
</event>
<event>
 6    1  0.1885829E-005  0.2404176E+04  0.7818608E-02  0.8437942E-01
         -2   -1    0    0    0  501 -0.00000000000E+00  0.00000000000E+00  0.85409952397E+03  0.85409952397E+03  0.00000000000E+00 0.  1.
          2   -1    0    0  501    0  0.00000000000E+00 -0.00000000000E+00 -0.16918591176E+04  0.16918591176E+04  0.00000000000E+00 0. -1.
         23    2    1    2    0    0  0.11242671812E+04 -0.22580015391E+02  0.23452465316E+02  0.11295643595E+04  0.10430279139E+03 0.  0.
         11    1    3    3    0    0  0.57049776776E+03  0.32827078449E+02  0.39435172460E+02  0.57280053502E+03  0.00000000000E+00 0.  1.
        -11    1    3    3    0    0  0.55376941345E+03 -0.55407093840E+02 -0.15982707143E+02  0.55676382448E+03  0.00000000000E+00 0. -1.
         22    1    1    2    0    0 -0.11242671812E+04  0.22580015391E+02 -0.86121205899E+03  0.14163942821E+04  0.00000000000E+00 0. -1.
<mgrwt>
<rscale>  0 0.24041764E+04</rscale>
<asrwt>0</asrwt>
<pdfrwt beam="1">  1        2 0.26028602E+00 0.24041764E+04</pdfrwt>
<pdfrwt beam="2">  1       -2 0.13139993E+00 0.24041764E+04</pdfrwt>
<totfact> 0.37656080E+00</totfact>
</mgrwt>
</event>
<event>
 6    1  0.1885829E-005  0.5701854E+04  0.7818608E-02  0.7728509E-01
         -2   -1    0    0    0  501 -0.00000000000E+00  0.00000000000E+00  0.18774181525E+04  0.18774181525E+04  0.00000000000E+00 0.  1.
          2   -1    0    0  501    0  0.00000000000E+00 -0.00000000000E+00 -0.43292353447E+04  0.43292353447E+04  0.00000000000E+00 0. -1.
         23    2    1    2    0    0  0.21733001340E+04  0.16606491297E+04 -0.20984061542E+04  0.34487759860E+04  0.98784659867E+02 0.  0.
         11    1    3    3    0    0  0.20867932918E+03  0.18878722758E+03 -0.19243784697E+03  0.34091055230E+03  0.00000000000E+00 0. -1.
        -11    1    3    3    0    0  0.19646208049E+04  0.14718619022E+04 -0.19059683072E+04  0.31078654337E+04  0.00000000000E+00 0.  1.
         22    1    1    2    0    0 -0.21733001340E+04 -0.16606491297E+04 -0.35341103802E+03  0.27578775111E+04  0.00000000000E+00 0.  1.
<mgrwt>
<rscale>  0 0.57018541E+04</rscale>
<asrwt>0</asrwt>
<pdfrwt beam="1">  1        2 0.66603621E+00 0.57018541E+04</pdfrwt>
<pdfrwt beam="2">  1       -2 0.28883356E+00 0.57018541E+04</pdfrwt>
<totfact> 0.45314255E-03</totfact>
</mgrwt>
</event>
<event>
 6    1  0.1885829E-005  0.1758995E+04  0.7818608E-02  0.8728414E-01
         -1   -1    0    0    0  501 -0.00000000000E+00  0.00000000000E+00  0.11545185386E+04  0.11545185386E+04  0.00000000000E+00 0.  1.
          1   -1    0    0  501    0  0.00000000000E+00 -0.00000000000E+00 -0.66999028965E+03  0.66999028965E+03  0.00000000000E+00 0. -1.
         23    2    1    2    0    0 -0.59774220509E+03 -0.61972539167E+03  0.69347407073E+02  0.86861634670E+03  0.91268779191E+02 0.  0.
         11    1    3    3    0    0 -0.51092049968E+03 -0.56807274656E+03  0.73099318839E+02  0.76752192984E+03  0.00000000000E+00 0. -1.
        -11    1    3    3    0    0 -0.86821705406E+02 -0.51652645114E+02 -0.37519117664E+01  0.10109441685E+03  0.00000000000E+00 0.  1.
         22    1    1    2    0    0  0.59774220509E+03  0.61972539167E+03  0.41518084189E+03  0.95589248156E+03  0.00000000000E+00 0.  1.
<mgrwt>
<rscale>  0 0.17589954E+04</rscale>
<asrwt>0</asrwt>
<pdfrwt beam="1">  1        1 0.10307543E+00 0.17589954E+04</pdfrwt>
<pdfrwt beam="2">  1       -1 0.17761824E+00 0.17589954E+04</pdfrwt>
<totfact> 0.59672361E+00</totfact>
</mgrwt>
</event>
<event>
 6    1  0.1885829E-005  0.3657009E+04  0.7818608E-02  0.8077556E-01
          2   -1    0    0  501    0  0.00000000000E+00  0.00000000000E+00  0.24156545147E+04  0.24156545147E+04  0.00000000000E+00 0. -1.
         -2   -1    0    0    0  501 -0.00000000000E+00 -0.00000000000E+00 -0.13840677750E+04  0.13840677750E+04  0.00000000000E+00 0.  1.
         23    2    1    2    0    0 -0.12425419532E+04  0.50462012050E+03 -0.77374852221E+03  0.15507697825E+04  0.87453823454E+02 0.  0.
         13    1    3    3    0    0 -0.83530328114E+02  0.42863342216E+02 -0.31340448076E+02  0.98978813422E+02  0.00000000000E+00 0. -1.
        -13    1    3    3    0    0 -0.11590116251E+04  0.46175677828E+03 -0.74240807413E+03  0.14517909691E+04  0.00000000000E+00 0.  1.
         22    1    1    2    0    0  0.12425419532E+04 -0.50462012050E+03  0.18053352620E+04  0.22489525072E+04  0.00000000000E+00 0. -1.
<mgrwt>
<rscale>  0 0.36570095E+04</rscale>
<asrwt>0</asrwt>
<pdfrwt beam="1">  1        2 0.37163916E+00 0.36570095E+04</pdfrwt>
<pdfrwt beam="2">  1       -2 0.21293350E+00 0.36570095E+04</pdfrwt>
<totfact> 0.34635654E-01</totfact>
</mgrwt>
</event>
<event>
 6    1  0.1885829E-005  0.1525946E+04  0.7818608E-02  0.8867380E-01
         -2   -1    0    0    0  501 -0.00000000000E+00  0.00000000000E+00  0.21308330692E+04  0.21308330692E+04  0.00000000000E+00 0.  1.
          2   -1    0    0  501    0  0.00000000000E+00 -0.00000000000E+00 -0.27319265082E+03  0.27319265082E+03  0.00000000000E+00 0. -1.
         23    2    1    2    0    0 -0.64867110436E+03  0.15890679613E+03  0.35849738010E+03  0.76285070781E+03  0.85995693917E+02 0.  0.
         13    1    3    3    0    0 -0.28395331229E+03  0.41230577734E+02  0.11696312804E+03  0.30985451009E+03  0.00000000000E+00 0. -1.
        -13    1    3    3    0    0 -0.36471779207E+03  0.11767621840E+03  0.24153425206E+03  0.45299619772E+03  0.00000000000E+00 0.  1.
         22    1    1    2    0    0  0.64867110436E+03 -0.15890679613E+03  0.14991430382E+04  0.16411750122E+04  0.00000000000E+00 0.  1.
<mgrwt>
<rscale>  0 0.15259462E+04</rscale>
<asrwt>0</asrwt>
<pdfrwt beam="1">  1        2 0.42029640E-01 0.15259462E+04</pdfrwt>
<pdfrwt beam="2">  1       -2 0.32782046E+00 0.15259462E+04</pdfrwt>
<totfact> 0.25305782E+00</totfact>
</mgrwt>
</event>
<event>
 6    1  0.1885829E-005  0.5670303E+04  0.7818608E-02  0.7732680E-01
          1   -1    0    0  501    0  0.00000000000E+00  0.00000000000E+00  0.25781761520E+04  0.25781761520E+04  0.00000000000E+00 0. -1.
         -1   -1    0    0    0  501 -0.00000000000E+00 -0.00000000000E+00 -0.31177409321E+04  0.31177409321E+04  0.00000000000E+00 0.  1.
         23    2    1    2    0    0  0.84409601425E+03  0.12227453845E+04  0.21548081462E+04  0.26190274497E+04  0.92207803592E+02 0.  0.
         13    1    3    3    0    0  0.35600115622E+03  0.48880348229E+03  0.95249792213E+03  0.11282366592E+04  0.00000000000E+00 0. -1.
        -13    1    3    3    0    0  0.48809485804E+03  0.73394190224E+03  0.12023102240E+04  0.14907907905E+04  0.00000000000E+00 0.  1.
         22    1    1    2    0    0 -0.84409601425E+03 -0.12227453845E+04 -0.26943729263E+04  0.30768896344E+04  0.00000000000E+00 0.  1.
<mgrwt>
<rscale>  0 0.56703035E+04</rscale>
<asrwt>0</asrwt>
<pdfrwt beam="1">  1        1 0.39664249E+00 0.56703035E+04</pdfrwt>
<pdfrwt beam="2">  1       -1 0.47965245E+00 0.56703035E+04</pdfrwt>
<totfact> 0.16731256E-03</totfact>
</mgrwt>
</event>
<event>
 6    1  0.1885829E-005  0.7099685E+03  0.7818608E-02  0.9700335E-01
         -2   -1    0    0    0  501 -0.00000000000E+00  0.00000000000E+00  0.12694415647E+03  0.12694415647E+03  0.00000000000E+00 0.  1.
          2   -1    0    0  501    0  0.00000000000E+00 -0.00000000000E+00 -0.99267113783E+03  0.99267113783E+03  0.00000000000E+00 0. -1.
         23    2    1    2    0    0  0.16442680922E+03  0.56705112211E+01 -0.92597970665E+03  0.94440478892E+03  0.85986382224E+02 0.  0.
         11    1    3    3    0    0  0.23353146892E+02  0.19739989013E+02 -0.34599752808E+03  0.34734611855E+03  0.00000000000E+00 0. -1.
        -11    1    3    3    0    0  0.14107366232E+03 -0.14069477792E+02 -0.57998217857E+03  0.59705867038E+03  0.00000000000E+00 0.  1.
         22    1    1    2    0    0 -0.16442680922E+03 -0.56705112211E+01  0.60252725289E+02  0.17521050537E+03  0.00000000000E+00 0.  1.
<mgrwt>
<rscale>  0 0.70996845E+03</rscale>
<asrwt>0</asrwt>
<pdfrwt beam="1">  1        2 0.15271864E+00 0.70996845E+03</pdfrwt>
<pdfrwt beam="2">  1       -2 0.19529870E-01 0.70996845E+03</pdfrwt>
<totfact> 0.57037252E+02</totfact>
</mgrwt>
</event>
<event>
 6    1  0.1885829E-005  0.3988297E+04  0.7818608E-02  0.8006912E-01
         -2   -1    0    0    0  501 -0.00000000000E+00  0.00000000000E+00  0.18624697952E+04  0.18624697952E+04  0.00000000000E+00 0.  1.
          2   -1    0    0  501    0  0.00000000000E+00 -0.00000000000E+00 -0.21351370781E+04  0.21351370781E+04  0.00000000000E+00 0. -1.
         23    2    1    2    0    0 -0.15727213418E+04 -0.30016360072E+03 -0.13262484186E+04  0.20809473272E+04  0.88635796533E+02 0.  0.
         11    1    3    3    0    0 -0.69140350890E+01  0.29830982216E+01 -0.12755154697E+02  0.14812046704E+02  0.00000000000E+00 0.  1.
        -11    1    3    3    0    0 -0.15658073068E+04 -0.30314669894E+03 -0.13134932639E+04  0.20661352805E+04  0.00000000000E+00 0. -1.
         22    1    1    2    0    0  0.15727213418E+04  0.30016360072E+03  0.10535811357E+04  0.19166595461E+04  0.00000000000E+00 0.  1.
<mgrwt>
<rscale>  0 0.39882970E+04</rscale>
<asrwt>0</asrwt>
<pdfrwt beam="1">  1        2 0.32848263E+00 0.39882970E+04</pdfrwt>
<pdfrwt beam="2">  1       -2 0.28653382E+00 0.39882970E+04</pdfrwt>
<totfact> 0.17036616E-01</totfact>
</mgrwt>
</event>
<event>
 6    1  0.1885829E-005  0.9032601E+03  0.7818608E-02  0.9421515E-01
          2   -1    0    0  501    0  0.00000000000E+00  0.00000000000E+00  0.70461020481E+03  0.70461020481E+03  0.00000000000E+00 0. -1.
         -2   -1    0    0    0  501 -0.00000000000E+00 -0.00000000000E+00 -0.28947879534E+03  0.28947879534E+03  0.00000000000E+00 0.  1.
         23    2    1    2    0    0  0.29292527251E+03 -0.22185992775E+03 -0.70404680050E+02  0.38517822094E+03  0.91533600918E+02 0.  0.
         13    1    3    3    0    0  0.22340548274E+03 -0.14127139387E+03 -0.13928852332E+02  0.26469157405E+03  0.00000000000E+00 0.  1.
        -13    1    3    3    0    0  0.69519789764E+02 -0.80588533882E+02 -0.56475827718E+02  0.12048664689E+03  0.00000000000E+00 0. -1.
         22    1    1    2    0    0 -0.29292527251E+03  0.22185992775E+03  0.48553608952E+03  0.60891077921E+03  0.00000000000E+00 0. -1.
<mgrwt>
<rscale>  0 0.90326012E+03</rscale>
<asrwt>0</asrwt>
<pdfrwt beam="1">  1        2 0.10840157E+00 0.90326012E+03</pdfrwt>
<pdfrwt beam="2">  1       -2 0.44535200E-01 0.90326012E+03</pdfrwt>
<totfact> 0.19480291E+02</totfact>
</mgrwt>
</event>
<event>
 6    1  0.1885829E-005  0.9459421E+03  0.7818608E-02  0.9369906E-01
          1   -1    0    0  501    0  0.00000000000E+00  0.00000000000E+00  0.27003746886E+03  0.27003746886E+03  0.00000000000E+00 0. -1.
         -1   -1    0    0    0  501 -0.00000000000E+00 -0.00000000000E+00 -0.82840949410E+03  0.82840949410E+03  0.00000000000E+00 0.  1.
         23    2    1    2    0    0  0.30501270082E+03  0.22325470790E+03  0.40165039509E+02  0.39054723126E+03  0.89657666628E+02 0.  0.
         11    1    3    3    0    0  0.79249795628E+02  0.90757710392E+02 -0.19515186211E+02  0.12205873420E+03  0.00000000000E+00 0.  1.
        -11    1    3    3    0    0  0.22576290519E+03  0.13249699751E+03  0.59680225720E+02  0.26848849706E+03  0.00000000000E+00 0. -1.
         22    1    1    2    0    0 -0.30501270082E+03 -0.22325470790E+03 -0.59853706475E+03  0.70789973170E+03  0.00000000000E+00 0. -1.
<mgrwt>
<rscale>  0 0.94594208E+03</rscale>
<asrwt>0</asrwt>
<pdfrwt beam="1">  1        1 0.41544226E-01 0.94594208E+03</pdfrwt>
<pdfrwt beam="2">  1       -1 0.12744762E+00 0.94594208E+03</pdfrwt>
<totfact> 0.53945277E+01</totfact>
</mgrwt>
</event>
<event>
 6    1  0.1885829E-005  0.2602352E+04  0.7818608E-02  0.8367403E-01
         -2   -1    0    0    0  501 -0.00000000000E+00  0.00000000000E+00  0.17512793193E+04  0.17512793193E+04  0.00000000000E+00 0.  1.
          2   -1    0    0  501    0  0.00000000000E+00 -0.00000000000E+00 -0.96675518468E+03  0.96675518468E+03  0.00000000000E+00 0. -1.
         23    2    1    2    0    0  0.31048415813E+03  0.10487263531E+02 -0.92522507196E+03  0.98029092550E+03  0.91752219056E+02 0.  0.
         13    1    3    3    0    0  0.86847581581E+02  0.17918006207E+02 -0.15893595040E+03  0.18200053215E+03  0.00000000000E+00 0.  1.
        -13    1    3    3    0    0  0.22363657655E+03 -0.74307426759E+01 -0.76628912155E+03  0.79829039335E+03  0.00000000000E+00 0. -1.
         22    1    1    2    0    0 -0.31048415813E+03 -0.10487263531E+02  0.17097492065E+04  0.17377435784E+04  0.00000000000E+00 0.  1.
<mgrwt>
<rscale>  0 0.26023515E+04</rscale>
<asrwt>0</asrwt>
<pdfrwt beam="1">  1        2 0.14873157E+00 0.26023515E+04</pdfrwt>
<pdfrwt beam="2">  1       -2 0.26942759E+00 0.26023515E+04</pdfrwt>
<totfact> 0.11437539E+00</totfact>
</mgrwt>
</event>
<event>
 6    1  0.1885829E-005  0.3289040E+04  0.7818608E-02  0.8165690E-01
          2   -1    0    0  501    0  0.00000000000E+00  0.00000000000E+00  0.22059268460E+04  0.22059268460E+04  0.00000000000E+00 0. -1.
         -2   -1    0    0    0  501 -0.00000000000E+00 -0.00000000000E+00 -0.12259905059E+04  0.12259905059E+04  0.00000000000E+00 0.  1.
         23    2    1    2    0    0  0.15047624396E+04 -0.26523911100E+03 -0.14059334469E+03  0.15371222284E+04  0.91194685386E+02 0.  0.
         11    1    3    3    0    0  0.17858008075E+03 -0.18539829430E+02 -0.43285445501E+02  0.18468405537E+03  0.00000000000E+00 0. -1.
        -11    1    3    3    0    0  0.13261823589E+04 -0.24669928157E+03 -0.97307899184E+02  0.13524381730E+04  0.00000000000E+00 0.  1.
         22    1    1    2    0    0 -0.15047624396E+04  0.26523911100E+03  0.11205296848E+04  0.18947951236E+04  0.00000000000E+00 0. -1.
<mgrwt>
<rscale>  0 0.32890396E+04</rscale>
<asrwt>0</asrwt>
<pdfrwt beam="1">  1        2 0.33937336E+00 0.32890396E+04</pdfrwt>
<pdfrwt beam="2">  1       -2 0.18861392E+00 0.32890396E+04</pdfrwt>
<totfact> 0.67839047E-01</totfact>
</mgrwt>
</event>
<event>
 6    1  0.1885829E-005  0.3846883E+04  0.7818608E-02  0.8036168E-01
         -2   -1    0    0    0  501 -0.00000000000E+00  0.00000000000E+00  0.12151744645E+04  0.12151744645E+04  0.00000000000E+00 0.  1.
          2   -1    0    0  501    0  0.00000000000E+00 -0.00000000000E+00 -0.30445237040E+04  0.30445237040E+04  0.00000000000E+00 0. -1.
         23    2    1    2    0    0 -0.10078412341E+04  0.94284517821E+03  0.56668647525E+03  0.14946144212E+04  0.89653352677E+02 0.  0.
         13    1    3    3    0    0 -0.21107694344E+03  0.20726138641E+03  0.16114995094E+03  0.33686802318E+03  0.00000000000E+00 0.  1.
        -13    1    3    3    0    0 -0.79676429065E+03  0.73558379179E+03  0.40553652431E+03  0.11577463980E+04  0.00000000000E+00 0. -1.
         22    1    1    2    0    0  0.10078412341E+04 -0.94284517821E+03 -0.23960357148E+04  0.27650837473E+04  0.00000000000E+00 0. -1.
<mgrwt>
<rscale>  0 0.38468831E+04</rscale>
<asrwt>0</asrwt>
<pdfrwt beam="1">  1        2 0.46838825E+00 0.38468831E+04</pdfrwt>
<pdfrwt beam="2">  1       -2 0.18694992E+00 0.38468831E+04</pdfrwt>
<totfact> 0.21173196E-01</totfact>
</mgrwt>
</event>
<event>
 6    1  0.1885829E-005  0.2302101E+04  0.7818608E-02  0.8477093E-01
          2   -1    0    0  501    0  0.00000000000E+00  0.00000000000E+00  0.13898124554E+04  0.13898124554E+04  0.00000000000E+00 0. -1.
         -2   -1    0    0    0  501 -0.00000000000E+00 -0.00000000000E+00 -0.95330622564E+03  0.95330622564E+03  0.00000000000E+00 0.  1.
         23    2    1    2    0    0 -0.21781544751E+03 -0.90023834817E+03 -0.47377706289E+03  0.10444700274E+04  0.92629801802E+02 0.  0.
         13    1    3    3    0    0 -0.45999426825E+02 -0.76830709997E+02 -0.51055763134E+02  0.10308053267E+03  0.00000000000E+00 0. -1.
        -13    1    3    3    0    0 -0.17181602069E+03 -0.82340763817E+03 -0.42272129975E+03  0.94138949475E+03  0.00000000000E+00 0.  1.
         22    1    1    2    0    0  0.21781544751E+03  0.90023834817E+03  0.91028329267E+03  0.12986486536E+04  0.00000000000E+00 0. -1.
<mgrwt>
<rscale>  0 0.23021007E+04</rscale>
<asrwt>0</asrwt>
<pdfrwt beam="1">  1        2 0.21381730E+00 0.23021007E+04</pdfrwt>
<pdfrwt beam="2">  1       -2 0.14666250E+00 0.23021007E+04</pdfrwt>
<totfact> 0.42282869E+00</totfact>
</mgrwt>
</event>
<event>
 6    1  0.1885829E-005  0.3939004E+04  0.7818608E-02  0.8016966E-01
         -2   -1    0    0    0  501 -0.00000000000E+00  0.00000000000E+00  0.27012661266E+04  0.27012661266E+04  0.00000000000E+00 0.  1.
          2   -1    0    0  501    0  0.00000000000E+00 -0.00000000000E+00 -0.14359701453E+04  0.14359701453E+04  0.00000000000E+00 0. -1.
         23    2    1    2    0    0 -0.43936275958E+03  0.15557537739E+04 -0.54634403038E+03  0.17091817067E+04  0.96958071366E+02 0.  0.
         13    1    3    3    0    0 -0.15541376617E+03  0.70327232530E+03 -0.21740451077E+03  0.75233644306E+03  0.00000000000E+00 0.  1.
        -13    1    3    3    0    0 -0.28394899341E+03  0.85248144857E+03 -0.32893951961E+03  0.95684526365E+03  0.00000000000E+00 0. -1.
         22    1    1    2    0    0  0.43936275958E+03 -0.15557537739E+04  0.18116400117E+04  0.24280545651E+04  0.00000000000E+00 0.  1.
<mgrwt>
<rscale>  0 0.39390037E+04</rscale>
<asrwt>0</asrwt>
<pdfrwt beam="1">  1        2 0.22091848E+00 0.39390037E+04</pdfrwt>
<pdfrwt beam="2">  1       -2 0.41557940E+00 0.39390037E+04</pdfrwt>
<totfact> 0.64128044E-02</totfact>
</mgrwt>
</event>
<event>
 6    1  0.1885829E-005  0.7640836E+03  0.7818608E-02  0.9613511E-01
         -2   -1    0    0    0  501 -0.00000000000E+00  0.00000000000E+00  0.85325067803E+02  0.85325067803E+02  0.00000000000E+00 0.  1.
          2   -1    0    0  501    0  0.00000000000E+00 -0.00000000000E+00 -0.17105870489E+04  0.17105870489E+04  0.00000000000E+00 0. -1.
         23    2    1    2    0    0 -0.10314869458E+03  0.29862185449E+03 -0.13062477964E+04  0.13469302515E+04  0.90128418531E+02 0.  0.
         11    1    3    3    0    0 -0.22497273340E+02  0.17950484342E+03 -0.82712508956E+03  0.84667823280E+03  0.00000000000E+00 0.  1.
        -11    1    3    3    0    0 -0.80651421241E+02  0.11911701107E+03 -0.47912270681E+03  0.50025201874E+03  0.00000000000E+00 0. -1.
         22    1    1    2    0    0  0.10314869458E+03 -0.29862185449E+03 -0.31901418469E+03  0.44898186512E+03  0.00000000000E+00 0. -1.
<mgrwt>
<rscale>  0 0.76408365E+03</rscale>
<asrwt>0</asrwt>
<pdfrwt beam="1">  1        2 0.26316722E+00 0.76408365E+03</pdfrwt>
<pdfrwt beam="2">  1       -2 0.13126934E-01 0.76408365E+03</pdfrwt>
<totfact> 0.43086734E+02</totfact>
</mgrwt>
</event>
<event>
 6    1  0.1885829E-005  0.4391947E+04  0.7818608E-02  0.7929832E-01
         -2   -1    0    0    0  501 -0.00000000000E+00  0.00000000000E+00  0.23683379732E+04  0.23683379732E+04  0.00000000000E+00 0.  1.
          2   -1    0    0  501    0  0.00000000000E+00 -0.00000000000E+00 -0.20361531726E+04  0.20361531726E+04  0.00000000000E+00 0. -1.
         23    2    1    2    0    0  0.32557684354E+03 -0.21475054608E+04  0.48346896703E+03  0.22271838905E+04  0.93946021204E+02 0.  0.
         11    1    3    3    0    0  0.13456317370E+02 -0.13607769452E+03  0.53066528327E+02  0.14667742789E+03  0.00000000000E+00 0. -1.
        -11    1    3    3    0    0  0.31212052617E+03 -0.20114277663E+04  0.43040243870E+03  0.20805064626E+04  0.00000000000E+00 0.  1.
         22    1    1    2    0    0 -0.32557684354E+03  0.21475054608E+04 -0.15128416640E+03  0.21773072553E+04  0.00000000000E+00 0.  1.
<mgrwt>
<rscale>  0 0.43919467E+04</rscale>
<asrwt>0</asrwt>
<pdfrwt beam="1">  1        2 0.31325433E+00 0.43919467E+04</pdfrwt>
<pdfrwt beam="2">  1       -2 0.36435969E+00 0.43919467E+04</pdfrwt>
<totfact> 0.61495817E-02</totfact>
</mgrwt>
</event>
<event>
 6    1  0.1885829E-005  0.9635298E+03  0.7818608E-02  0.9349475E-01
         -2   -1    0    0    0  501 -0.00000000000E+00  0.00000000000E+00  0.34463262367E+03  0.34463262367E+03  0.00000000000E+00 0. -1.
          2   -1    0    0  501    0  0.00000000000E+00 -0.00000000000E+00 -0.67346326799E+03  0.67346326799E+03  0.00000000000E+00 0.  1.
         23    2    1    2    0    0 -0.68753873442E+02  0.11959256371E+03 -0.64874514854E+03  0.66970707666E+03  0.92778361490E+02 0.  0.
         13    1    3    3    0    0 -0.16974173767E+02  0.88259195563E+02 -0.51662382650E+03  0.52438343441E+03  0.00000000000E+00 0. -1.
        -13    1    3    3    0    0 -0.51779699675E+02  0.31333368150E+02 -0.13212132204E+03  0.14532364225E+03  0.00000000000E+00 0.  1.
         22    1    1    2    0    0  0.68753873442E+02 -0.11959256371E+03  0.31991450422E+03  0.34838881500E+03  0.00000000000E+00 0. -1.
<mgrwt>
<rscale>  0 0.96352979E+03</rscale>
<asrwt>0</asrwt>
<pdfrwt beam="1">  1        2 0.10360973E+00 0.96352979E+03</pdfrwt>
<pdfrwt beam="2">  1       -2 0.53020404E-01 0.96352979E+03</pdfrwt>
<totfact> 0.14438464E+02</totfact>
</mgrwt>
</event>
<event>
 6    1  0.1885829E-005  0.7910128E+03  0.7818608E-02  0.9573118E-01
          2   -1    0    0  501    0  0.00000000000E+00  0.00000000000E+00  0.32987435741E+03  0.32987435741E+03  0.00000000000E+00 0. -1.
         -2   -1    0    0    0  501 -0.00000000000E+00 -0.00000000000E+00 -0.47419669908E+03  0.47419669908E+03  0.00000000000E+00 0.  1.
         23    2    1    2    0    0  0.85158654631E+01 -0.22256451530E+03  0.25284194750E+03  0.34871739611E+03  0.89818085586E+02 0.  0.
         13    1    3    3    0    0  0.13664022734E+02 -0.13095680669E+02  0.63671011452E+02  0.66424393627E+02  0.00000000000E+00 0.  1.
        -13    1    3    3    0    0 -0.51481572712E+01 -0.20946883463E+03  0.18917093605E+03  0.28229300248E+03  0.00000000000E+00 0. -1.
         22    1    1    2    0    0 -0.85158654631E+01  0.22256451530E+03 -0.39716428917E+03  0.45535366039E+03  0.00000000000E+00 0.  1.
<mgrwt>
<rscale>  0 0.79101285E+03</rscale>
<asrwt>0</asrwt>
<pdfrwt beam="1">  1        2 0.50749901E-01 0.79101285E+03</pdfrwt>
<pdfrwt beam="2">  1       -2 0.72953338E-01 0.79101285E+03</pdfrwt>
<totfact> 0.16896945E+02</totfact>
</mgrwt>
</event>
<event>
 6    1  0.1885829E-005  0.4976241E+03  0.7818608E-02  0.1014401E+00
         -2   -1    0    0    0  501 -0.00000000000E+00  0.00000000000E+00  0.46231983451E+03  0.46231983451E+03  0.00000000000E+00 0.  1.
          2   -1    0    0  501    0  0.00000000000E+00 -0.00000000000E+00 -0.13390607471E+03  0.13390607471E+03  0.00000000000E+00 0. -1.
         23    2    1    2    0    0 -0.12391976419E+03  0.17285445897E+03  0.30384929315E+03  0.38212736891E+03  0.91990005847E+02 0.  0.
         13    1    3    3    0    0 -0.52083354419E+02  0.10261438221E+03  0.90827673227E+02  0.14660168303E+03  0.00000000000E+00 0. -1.
        -13    1    3    3    0    0 -0.71836409767E+02  0.70240076766E+02  0.21302161993E+03  0.23552568588E+03  0.00000000000E+00 0.  1.
         22    1    1    2    0    0  0.12391976419E+03 -0.17285445897E+03  0.24564466640E+02  0.21409854031E+03  0.00000000000E+00 0. -1.
<mgrwt>
<rscale>  0 0.49762409E+03</rscale>
<asrwt>0</asrwt>
<pdfrwt beam="1">  1        2 0.20600935E-01 0.49762409E+03</pdfrwt>
<pdfrwt beam="2">  1       -2 0.71126128E-01 0.49762409E+03</pdfrwt>
<totfact> 0.49685329E+02</totfact>
</mgrwt>
</event>
<event>
 6    1  0.1885829E-005  0.4284134E+04  0.7818608E-02  0.7949558E-01
         -2   -1    0    0    0  501 -0.00000000000E+00  0.00000000000E+00  0.22549767290E+04  0.22549767290E+04  0.00000000000E+00 0. -1.
          2   -1    0    0  501    0  0.00000000000E+00 -0.00000000000E+00 -0.20348112553E+04  0.20348112553E+04  0.00000000000E+00 0.  1.
         23    2    1    2    0    0  0.23423326228E+03  0.17265585485E+04 -0.11358269056E+04  0.20819417543E+04  0.92244599299E+02 0.  0.
         13    1    3    3    0    0  0.11026649513E+03  0.50426026521E+03 -0.34460395572E+03  0.62063596521E+03  0.00000000000E+00 0. -1.
        -13    1    3    3    0    0  0.12396676715E+03  0.12222982833E+04 -0.79122294984E+03  0.14613057891E+04  0.00000000000E+00 0.  1.
         22    1    1    2    0    0 -0.23423326228E+03 -0.17265585485E+04  0.13559923792E+04  0.22078462300E+04  0.00000000000E+00 0. -1.
<mgrwt>
<rscale>  0 0.42841345E+04</rscale>
<asrwt>0</asrwt>
<pdfrwt beam="1">  1        2 0.31304789E+00 0.42841345E+04</pdfrwt>
<pdfrwt beam="2">  1       -2 0.34691950E+00 0.42841345E+04</pdfrwt>
<totfact> 0.80140824E-02</totfact>
</mgrwt>
</event>
<event>
 6    1  0.1885829E-005  0.1854702E+04  0.7818608E-02  0.8677739E-01
         -2   -1    0    0    0  501 -0.00000000000E+00  0.00000000000E+00  0.35645905307E+03  0.35645905307E+03  0.00000000000E+00 0.  1.
          2   -1    0    0  501    0  0.00000000000E+00 -0.00000000000E+00 -0.24125619613E+04  0.24125619613E+04  0.00000000000E+00 0. -1.
         23    2    1    2    0    0 -0.25361635463E+03  0.57348280279E+02 -0.23560089193E+04  0.23720906728E+04  0.91793525810E+02 0.  0.
         11    1    3    3    0    0 -0.95478517416E+02 -0.13514821947E+02 -0.61999045538E+03  0.62744478838E+03  0.00000000000E+00 0. -1.
        -11    1    3    3    0    0 -0.15813783722E+03  0.70863102227E+02 -0.17360184639E+04  0.17446458844E+04  0.00000000000E+00 0.  1.
         22    1    1    2    0    0  0.25361635463E+03 -0.57348280279E+02  0.29990601109E+03  0.39693034159E+03  0.00000000000E+00 0.  1.
<mgrwt>
<rscale>  0 0.18547016E+04</rscale>
<asrwt>0</asrwt>
<pdfrwt beam="1">  1        2 0.37116338E+00 0.18547016E+04</pdfrwt>
<pdfrwt beam="2">  1       -2 0.54839854E-01 0.18547016E+04</pdfrwt>
<totfact> 0.11503806E+01</totfact>
</mgrwt>
</event>
<event>
 6    1  0.1885829E-005  0.3353276E+04  0.7818608E-02  0.8149470E-01
          2   -1    0    0  501    0  0.00000000000E+00  0.00000000000E+00  0.21070761373E+04  0.21070761373E+04  0.00000000000E+00 0. -1.
         -2   -1    0    0    0  501 -0.00000000000E+00 -0.00000000000E+00 -0.13341308653E+04  0.13341308653E+04  0.00000000000E+00 0.  1.
         23    2    1    2    0    0 -0.76963976925E+03  0.11577099388E+03  0.19092909573E+04  0.20638799485E+04  0.91979260862E+02 0.  0.
         13    1    3    3    0    0 -0.58575573026E+03  0.12488267905E+03  0.14228972333E+04  0.15438076291E+04  0.00000000000E+00 0.  1.
        -13    1    3    3    0    0 -0.18388403899E+03 -0.91116851744E+01  0.48639372400E+03  0.52007231934E+03  0.00000000000E+00 0. -1.
         22    1    1    2    0    0  0.76963976925E+03 -0.11577099388E+03 -0.11363456853E+04  0.13773270541E+04  0.00000000000E+00 0.  1.
<mgrwt>
<rscale>  0 0.33532762E+04</rscale>
<asrwt>0</asrwt>
<pdfrwt beam="1">  1        2 0.32416556E+00 0.33532762E+04</pdfrwt>
<pdfrwt beam="2">  1       -2 0.20525090E+00 0.33532762E+04</pdfrwt>
<totfact> 0.59510101E-01</totfact>
</mgrwt>
</event>
<event>
 6    1  0.1885829E-005  0.2007349E+04  0.7818608E-02  0.8603193E-01
         -2   -1    0    0    0  501 -0.00000000000E+00  0.00000000000E+00  0.13527409872E+04  0.13527409872E+04  0.00000000000E+00 0.  1.
          2   -1    0    0  501    0  0.00000000000E+00 -0.00000000000E+00 -0.74468235534E+03  0.74468235534E+03  0.00000000000E+00 0. -1.
         23    2    1    2    0    0  0.29005023858E+03 -0.57187461717E+03 -0.49884119756E+03  0.81820602285E+03  0.97205127370E+02 0.  0.
         11    1    3    3    0    0  0.19754156154E+03 -0.37148246316E+03 -0.26809103752E+03  0.49889346896E+03  0.00000000000E+00 0. -1.
        -11    1    3    3    0    0  0.92508677045E+02 -0.20039215401E+03 -0.23075016004E+03  0.31931255389E+03  0.00000000000E+00 0.  1.
         22    1    1    2    0    0 -0.29005023858E+03  0.57187461717E+03  0.11068998294E+04  0.12792173197E+04  0.00000000000E+00 0.  1.
<mgrwt>
<rscale>  0 0.20073488E+04</rscale>
<asrwt>0</asrwt>
<pdfrwt beam="1">  1        2 0.11456652E+00 0.20073488E+04</pdfrwt>
<pdfrwt beam="2">  1       -2 0.20811400E+00 0.20073488E+04</pdfrwt>
<totfact> 0.41360286E+00</totfact>
</mgrwt>
</event>
<event>
 6    1  0.1885829E-005  0.3414095E+04  0.7818608E-02  0.8134456E-01
          2   -1    0    0  501    0  0.00000000000E+00  0.00000000000E+00  0.35672667741E+04  0.35672667741E+04  0.00000000000E+00 0. -1.
         -2   -1    0    0    0  501 -0.00000000000E+00 -0.00000000000E+00 -0.81687492435E+03  0.81687492435E+03  0.00000000000E+00 0.  1.
         23    2    1    2    0    0  0.78250765068E+03  0.12994888006E+04  0.37408441191E+03  0.15649527361E+04  0.90269333937E+02 0.  0.
         13    1    3    3    0    0  0.23369969107E+03  0.44133397912E+03  0.15648288653E+03  0.52333366078E+03  0.00000000000E+00 0.  1.
        -13    1    3    3    0    0  0.54880795960E+03  0.85815482151E+03  0.21760152538E+03  0.10416190753E+04  0.00000000000E+00 0. -1.
         22    1    1    2    0    0 -0.78250765068E+03 -0.12994888006E+04  0.23763074378E+04  0.28191889623E+04  0.00000000000E+00 0.  1.
<mgrwt>
<rscale>  0 0.34140948E+04</rscale>
<asrwt>0</asrwt>
<pdfrwt beam="1">  1        2 0.54881027E+00 0.34140948E+04</pdfrwt>
<pdfrwt beam="2">  1       -2 0.12567307E+00 0.34140948E+04</pdfrwt>
<totfact> 0.28476617E-01</totfact>
</mgrwt>
</event>
<event>
 6    1  0.1885829E-005  0.3871548E+04  0.7818608E-02  0.8030973E-01
         -2   -1    0    0    0  501 -0.00000000000E+00  0.00000000000E+00  0.11781852621E+04  0.11781852621E+04  0.00000000000E+00 0.  1.
          2   -1    0    0  501    0  0.00000000000E+00 -0.00000000000E+00 -0.31805021718E+04  0.31805021718E+04  0.00000000000E+00 0. -1.
         23    2    1    2    0    0 -0.37203655401E+03  0.11239323588E+04  0.72098657489E+03  0.13891728248E+04  0.91347421071E+02 0.  0.
         13    1    3    3    0    0 -0.29155039068E+03  0.87706981430E+03  0.51740612143E+03  0.10592271635E+04  0.00000000000E+00 0. -1.
        -13    1    3    3    0    0 -0.80486163329E+02  0.24686254446E+03  0.20358045347E+03  0.32994566125E+03  0.00000000000E+00 0.  1.
         22    1    1    2    0    0  0.37203655401E+03 -0.11239323588E+04 -0.27233034846E+04  0.29695146091E+04  0.00000000000E+00 0. -1.
<mgrwt>
<rscale>  0 0.38715479E+04</rscale>
<asrwt>0</asrwt>
<pdfrwt beam="1">  1        2 0.48930802E+00 0.38715479E+04</pdfrwt>
<pdfrwt beam="2">  1       -2 0.18125927E+00 0.38715479E+04</pdfrwt>
<totfact> 0.18899089E-01</totfact>
</mgrwt>
</event>
<event>
 6    1  0.1885829E-005  0.1278741E+04  0.7818608E-02  0.9046596E-01
         -2   -1    0    0    0  501 -0.00000000000E+00  0.00000000000E+00  0.22105904260E+03  0.22105904260E+03  0.00000000000E+00 0.  1.
          2   -1    0    0  501    0  0.00000000000E+00 -0.00000000000E+00 -0.18492541480E+04  0.18492541480E+04  0.00000000000E+00 0. -1.
         23    2    1    2    0    0  0.45203012254E+03 -0.63097171577E+02 -0.10054229397E+03  0.47593694987E+03  0.89970787628E+02 0.  0.
         13    1    3    3    0    0  0.24633771102E+03  0.88366128989E+01 -0.67208168262E+02  0.25549421026E+03  0.00000000000E+00 0.  1.
        -13    1    3    3    0    0  0.20569241152E+03 -0.71933784476E+02 -0.33334125710E+02  0.22044273961E+03  0.00000000000E+00 0. -1.
         22    1    1    2    0    0 -0.45203012254E+03  0.63097171577E+02 -0.15276528114E+04  0.15943762407E+04  0.00000000000E+00 0. -1.
<mgrwt>
<rscale>  0 0.12787406E+04</rscale>
<asrwt>0</asrwt>
<pdfrwt beam="1">  1        2 0.28450064E+00 0.12787406E+04</pdfrwt>
<pdfrwt beam="2">  1       -2 0.34009084E-01 0.12787406E+04</pdfrwt>
<totfact> 0.64383466E+01</totfact>
</mgrwt>
</event>
<event>
 6    1  0.1885829E-005  0.3503471E+04  0.7818608E-02  0.8112968E-01
          2   -1    0    0  501    0  0.00000000000E+00  0.00000000000E+00  0.23547114583E+04  0.23547114583E+04  0.00000000000E+00 0.  1.
         -2   -1    0    0    0  501 -0.00000000000E+00 -0.00000000000E+00 -0.13031648155E+04  0.13031648155E+04  0.00000000000E+00 0. -1.
         23    2    1    2    0    0  0.16507307494E+04 -0.57668587129E+03  0.43973616786E+03  0.18053669869E+04  0.92214201427E+02 0.  0.
         11    1    3    3    0    0  0.14282363631E+04 -0.48332253519E+03  0.40780155906E+03  0.15619737173E+04  0.00000000000E+00 0. -1.
        -11    1    3    3    0    0  0.22249438622E+03 -0.93363336100E+02  0.31934608808E+02  0.24339326956E+03  0.00000000000E+00 0.  1.
         22    1    1    2    0    0 -0.16507307494E+04  0.57668587129E+03  0.61181047496E+03  0.18525092870E+04  0.00000000000E+00 0. -1.
<mgrwt>
<rscale>  0 0.35034709E+04</rscale>
<asrwt>0</asrwt>
<pdfrwt beam="1">  1        2 0.36226330E+00 0.35034709E+04</pdfrwt>
<pdfrwt beam="2">  1       -2 0.20048689E+00 0.35034709E+04</pdfrwt>
<totfact> 0.45765537E-01</totfact>
</mgrwt>
</event>
<event>
 6    1  0.1885829E-005  0.2356255E+04  0.7818608E-02  0.8456065E-01
         -2   -1    0    0    0  501 -0.00000000000E+00  0.00000000000E+00  0.91690474579E+03  0.91690474579E+03  0.00000000000E+00 0.  1.
          2   -1    0    0  501    0  0.00000000000E+00 -0.00000000000E+00 -0.15137721285E+04  0.15137721285E+04  0.00000000000E+00 0. -1.
         23    2    1    2    0    0  0.10344101696E+04  0.51110730240E+03 -0.53569418252E+03  0.12752647254E+04  0.89982159830E+02 0.  0.
         11    1    3    3    0    0  0.19639444000E+03  0.63937098866E+02 -0.11517742731E+03  0.23648375935E+03  0.00000000000E+00 0.  1.
        -11    1    3    3    0    0  0.83801572956E+03  0.44717020353E+03 -0.42051675521E+03  0.10387809660E+04  0.00000000000E+00 0. -1.
         22    1    1    2    0    0 -0.10344101696E+04 -0.51110730240E+03 -0.61173200175E+02  0.11554121489E+04  0.00000000000E+00 0. -1.
<mgrwt>
<rscale>  0 0.23562554E+04</rscale>
<asrwt>0</asrwt>
<pdfrwt beam="1">  1        2 0.23288802E+00 0.23562554E+04</pdfrwt>
<pdfrwt beam="2">  1       -2 0.14106227E+00 0.23562554E+04</pdfrwt>
<totfact> 0.39632936E+00</totfact>
</mgrwt>
</event>
<event>
 6    1  0.1885829E-005  0.6909994E+03  0.7818608E-02  0.9732749E-01
          2   -1    0    0  501    0  0.00000000000E+00  0.00000000000E+00  0.58116832768E+02  0.58116832768E+02  0.00000000000E+00 0. -1.
         -2   -1    0    0    0  501 -0.00000000000E+00 -0.00000000000E+00 -0.20539669765E+04  0.20539669765E+04  0.00000000000E+00 0.  1.
         23    2    1    2    0    0  0.54112539206E+02  0.14475919433E+03 -0.19392440560E+04  0.19475005768E+04  0.90595786799E+02 0.  0.
         13    1    3    3    0    0  0.71865522292E+02  0.72678964336E+02 -0.95255251481E+03  0.95802044791E+03  0.00000000000E+00 0.  1.
        -13    1    3    3    0    0 -0.17752983086E+02  0.72080229995E+02 -0.98669154119E+03  0.98948012887E+03  0.00000000000E+00 0. -1.
         22    1    1    2    0    0 -0.54112539206E+02 -0.14475919433E+03 -0.56606087710E+02  0.16458323246E+03  0.00000000000E+00 0. -1.
<mgrwt>
<rscale>  0 0.69099944E+03</rscale>
<asrwt>0</asrwt>
<pdfrwt beam="1">  1        2 0.89410520E-02 0.69099944E+03</pdfrwt>
<pdfrwt beam="2">  1       -2 0.31599489E+00 0.69099944E+03</pdfrwt>
<totfact> 0.20449243E+01</totfact>
</mgrwt>
</event>
<event>
 6    1  0.1885829E-005  0.4067888E+04  0.7818608E-02  0.7990990E-01
         -2   -1    0    0    0  501 -0.00000000000E+00  0.00000000000E+00  0.20280832287E+04  0.20280832287E+04  0.00000000000E+00 0. -1.
          2   -1    0    0  501    0  0.00000000000E+00 -0.00000000000E+00 -0.20398217187E+04  0.20398217187E+04  0.00000000000E+00 0.  1.
         23    2    1    2    0    0  0.17834823019E+04 -0.52888453104E+03 -0.82580589280E+03  0.20373302247E+04  0.90725429183E+02 0.  0.
         11    1    3    3    0    0  0.13057995609E+04 -0.38529907636E+03 -0.64785776377E+03  0.15077425356E+04  0.00000000000E+00 0. -1.
        -11    1    3    3    0    0  0.47768274100E+03 -0.14358545468E+03 -0.17794812902E+03  0.52958768912E+03  0.00000000000E+00 0.  1.
         22    1    1    2    0    0 -0.17834823019E+04  0.52888453104E+03  0.81406740277E+03  0.20305747228E+04  0.00000000000E+00 0.  1.
<mgrwt>
<rscale>  0 0.40678880E+04</rscale>
<asrwt>0</asrwt>
<pdfrwt beam="1">  1        2 0.31381873E+00 0.40678880E+04</pdfrwt>
<pdfrwt beam="2">  1       -2 0.31201280E+00 0.40678880E+04</pdfrwt>
<totfact> 0.13358385E-01</totfact>
</mgrwt>
</event>
<event>
 6    1  0.1885829E-005  0.3344913E+04  0.7818608E-02  0.8151560E-01
          2   -1    0    0  501    0  0.00000000000E+00  0.00000000000E+00  0.39103158014E+04  0.39103158014E+04  0.00000000000E+00 0. -1.
         -2   -1    0    0    0  501 -0.00000000000E+00 -0.00000000000E+00 -0.71531599574E+03  0.71531599574E+03  0.00000000000E+00 0.  1.
         23    2    1    2    0    0  0.43043912096E+03 -0.93820411046E+03  0.34162632149E+04  0.35699508388E+04  0.90497777846E+02 0.  0.
         13    1    3    3    0    0  0.39962506747E+03 -0.89675535724E+03  0.31797583256E+04  0.33278721992E+04  0.00000000000E+00 0. -1.
        -13    1    3    3    0    0  0.30814053488E+02 -0.41448753224E+02  0.23650488932E+03  0.24207863952E+03  0.00000000000E+00 0.  1.
         22    1    1    2    0    0 -0.43043912096E+03  0.93820411046E+03 -0.22126340921E+03  0.10556809584E+04  0.00000000000E+00 0.  1.
<mgrwt>
<rscale>  0 0.33449134E+04</rscale>
<asrwt>0</asrwt>
<pdfrwt beam="1">  1        2 0.60158703E+00 0.33449134E+04</pdfrwt>
<pdfrwt beam="2">  1       -2 0.11004862E+00 0.33449134E+04</pdfrwt>
<totfact> 0.21989796E-01</totfact>
</mgrwt>
</event>
<event>
 6    1  0.1885829E-005  0.4558433E+04  0.7818608E-02  0.7900486E-01
          2   -1    0    0  501    0  0.00000000000E+00  0.00000000000E+00  0.23251589754E+04  0.23251589754E+04  0.00000000000E+00 0. -1.
         -2   -1    0    0    0  501 -0.00000000000E+00 -0.00000000000E+00 -0.22341821281E+04  0.22341821281E+04  0.00000000000E+00 0.  1.
         23    2    1    2    0    0 -0.21668641966E+04  0.18026817883E+03 -0.63483399157E+03  0.22670500145E+04  0.93297956303E+02 0.  0.
         13    1    3    3    0    0 -0.21194722825E+04  0.17504774265E+03 -0.60605315320E+03  0.22113581557E+04  0.00000000000E+00 0. -1.
        -13    1    3    3    0    0 -0.47391914131E+02  0.52204361855E+01 -0.28780838365E+02  0.55691858794E+02  0.00000000000E+00 0.  1.
         22    1    1    2    0    0  0.21668641966E+04 -0.18026817883E+03  0.72581083892E+03  0.22922910890E+04  0.00000000000E+00 0.  1.
<mgrwt>
<rscale>  0 0.45584333E+04</rscale>
<asrwt>0</asrwt>
<pdfrwt beam="1">  1        2 0.35771677E+00 0.45584333E+04</pdfrwt>
<pdfrwt beam="2">  1       -2 0.34372033E+00 0.45584333E+04</pdfrwt>
<totfact> 0.56374096E-02</totfact>
</mgrwt>
</event>
<event>
 6    1  0.1885829E-005  0.2155439E+04  0.7818608E-02  0.8537208E-01
         -2   -1    0    0    0  501 -0.00000000000E+00  0.00000000000E+00  0.30463998794E+03  0.30463998794E+03  0.00000000000E+00 0. -1.
          2   -1    0    0  501    0  0.00000000000E+00 -0.00000000000E+00 -0.38126275271E+04  0.38126275271E+04  0.00000000000E+00 0.  1.
         23    2    1    2    0    0 -0.27280006607E+03 -0.59762349260E+03 -0.12968466318E+03  0.67568299089E+03  0.90308788998E+02 0.  0.
         13    1    3    3    0    0 -0.17930082256E+03 -0.48082019548E+03 -0.10943044123E+03  0.52470169318E+03  0.00000000000E+00 0. -1.
        -13    1    3    3    0    0 -0.93499243515E+02 -0.11680329711E+03 -0.20254221951E+02  0.15098129772E+03  0.00000000000E+00 0.  1.
         22    1    1    2    0    0  0.27280006607E+03  0.59762349260E+03 -0.33783028760E+04  0.34415845242E+04  0.00000000000E+00 0.  1.
<mgrwt>
<rscale>  0 0.21554385E+04</rscale>
<asrwt>0</asrwt>
<pdfrwt beam="1">  1        2 0.58655811E+00 0.21554385E+04</pdfrwt>
<pdfrwt beam="2">  1       -2 0.46867688E-01 0.21554385E+04</pdfrwt>
<totfact> 0.19136269E+00</totfact>
</mgrwt>
</event>
<event>
 6    1  0.1885829E-005  0.4236780E+04  0.7818608E-02  0.7958413E-01
          2   -1    0    0  501    0  0.00000000000E+00  0.00000000000E+00  0.20044775764E+04  0.20044775764E+04  0.00000000000E+00 0. -1.
         -2   -1    0    0    0  501 -0.00000000000E+00 -0.00000000000E+00 -0.22387763119E+04  0.22387763119E+04  0.00000000000E+00 0.  1.
         23    2    1    2    0    0 -0.84674686209E+03  0.15093162211E+04 -0.13390149760E+04  0.21901066273E+04  0.92683488659E+02 0.  0.
         11    1    3    3    0    0 -0.28220897693E+03  0.41705545888E+03 -0.38904597618E+03  0.63634419462E+03  0.00000000000E+00 0. -1.
        -11    1    3    3    0    0 -0.56453788516E+03  0.10922607622E+04 -0.94996899987E+03  0.15537624326E+04  0.00000000000E+00 0.  1.
         22    1    1    2    0    0  0.84674686209E+03 -0.15093162211E+04  0.11047162405E+04  0.20531472611E+04  0.00000000000E+00 0. -1.
<mgrwt>
<rscale>  0 0.42367803E+04</rscale>
<asrwt>0</asrwt>
<pdfrwt beam="1">  1        2 0.30838117E+00 0.42367803E+04</pdfrwt>
<pdfrwt beam="2">  1       -2 0.34442712E+00 0.42367803E+04</pdfrwt>
<totfact> 0.86711699E-02</totfact>
</mgrwt>
</event>
<event>
 6    1  0.1885829E-005  0.1956195E+04  0.7818608E-02  0.8627379E-01
          2   -1    0    0  501    0  0.00000000000E+00  0.00000000000E+00  0.10778355509E+04  0.10778355509E+04  0.00000000000E+00 0. -1.
         -2   -1    0    0    0  501 -0.00000000000E+00 -0.00000000000E+00 -0.88758834221E+03  0.88758834221E+03  0.00000000000E+00 0.  1.
         23    2    1    2    0    0 -0.63733932761E+03  0.57122673935E+03 -0.37582197928E+03  0.93929732595E+03  0.92389935335E+02 0.  0.
         11    1    3    3    0    0 -0.23673358498E+03  0.20288989323E+03 -0.18540433441E+03  0.36274214843E+03  0.00000000000E+00 0. -1.
        -11    1    3    3    0    0 -0.40060574263E+03  0.36833684613E+03 -0.19041764488E+03  0.57655517752E+03  0.00000000000E+00 0.  1.
         22    1    1    2    0    0  0.63733932761E+03 -0.57122673935E+03  0.56606918800E+03  0.10261265672E+04  0.00000000000E+00 0. -1.
<mgrwt>
<rscale>  0 0.19561945E+04</rscale>
<asrwt>0</asrwt>
<pdfrwt beam="1">  1        2 0.16582085E+00 0.19561945E+04</pdfrwt>
<pdfrwt beam="2">  1       -2 0.13655205E+00 0.19561945E+04</pdfrwt>
<totfact> 0.80329203E+00</totfact>
</mgrwt>
</event>
<event>
 6    1  0.1885829E-005  0.2006524E+04  0.7818608E-02  0.8603576E-01
          1   -1    0    0  501    0  0.00000000000E+00  0.00000000000E+00  0.10651204001E+04  0.10651204001E+04  0.00000000000E+00 0. -1.
         -1   -1    0    0    0  501 -0.00000000000E+00 -0.00000000000E+00 -0.94499635204E+03  0.94499635204E+03  0.00000000000E+00 0.  1.
         23    2    1    2    0    0  0.84384719620E+03  0.25449940676E+03  0.53582689941E+03  0.10356133405E+04  0.92393107740E+02 0.  0.
         11    1    3    3    0    0  0.45711462174E+03  0.12496027502E+03  0.23591351820E+03  0.52936191383E+03  0.00000000000E+00 0. -1.
        -11    1    3    3    0    0  0.38673257446E+03  0.12953913174E+03  0.29991338121E+03  0.50625142669E+03  0.00000000000E+00 0.  1.
         22    1    1    2    0    0 -0.84384719620E+03 -0.25449940676E+03 -0.41570285137E+03  0.97450341160E+03  0.00000000000E+00 0.  1.
<mgrwt>
<rscale>  0 0.20065243E+04</rscale>
<asrwt>0</asrwt>
<pdfrwt beam="1">  1        1 0.16386468E+00 0.20065243E+04</pdfrwt>
<pdfrwt beam="2">  1       -1 0.14538405E+00 0.20065243E+04</pdfrwt>
<totfact> 0.47404080E+00</totfact>
</mgrwt>
</event>
<event>
 6    1  0.1885829E-005  0.1473301E+04  0.7818608E-02  0.8902404E-01
         -2   -1    0    0    0  501 -0.00000000000E+00  0.00000000000E+00  0.76652394238E+03  0.76652394238E+03  0.00000000000E+00 0.  1.
          2   -1    0    0  501    0  0.00000000000E+00 -0.00000000000E+00 -0.70794173100E+03  0.70794173100E+03  0.00000000000E+00 0. -1.
         23    2    1    2    0    0 -0.28108976389E+03 -0.62071358288E+03  0.30210681971E+03  0.75086285263E+03  0.90717614609E+02 0.  0.
         13    1    3    3    0    0 -0.11641535069E+03 -0.26312197972E+03  0.17684982729E+03  0.33773002754E+03  0.00000000000E+00 0.  1.
        -13    1    3    3    0    0 -0.16467441320E+03 -0.35759160316E+03  0.12525699242E+03  0.41313282509E+03  0.00000000000E+00 0. -1.
         22    1    1    2    0    0  0.28108976389E+03  0.62071358288E+03 -0.24352460832E+03  0.72360282075E+03  0.00000000000E+00 0. -1.
<mgrwt>
<rscale>  0 0.14733014E+04</rscale>
<asrwt>0</asrwt>
<pdfrwt beam="1">  1        2 0.10891411E+00 0.14733014E+04</pdfrwt>
<pdfrwt beam="2">  1       -2 0.11792676E+00 0.14733014E+04</pdfrwt>
<totfact> 0.21677569E+01</totfact>
</mgrwt>
</event>
<event>
 6    1  0.1885829E-005  0.3783608E+04  0.7818608E-02  0.8049682E-01
         -2   -1    0    0    0  501 -0.00000000000E+00  0.00000000000E+00  0.12306058463E+04  0.12306058463E+04  0.00000000000E+00 0.  1.
          2   -1    0    0  501    0  0.00000000000E+00 -0.00000000000E+00 -0.29082599547E+04  0.29082599547E+04  0.00000000000E+00 0. -1.
         23    2    1    2    0    0 -0.86539846693E+03  0.10489364766E+04  0.59759020440E+03  0.14882207999E+04  0.92221788432E+02 0.  0.
         11    1    3    3    0    0 -0.34610302416E+03  0.47077472992E+03  0.29142622845E+03  0.65295129703E+03  0.00000000000E+00 0.  1.
        -11    1    3    3    0    0 -0.51929544277E+03  0.57816174673E+03  0.30616397595E+03  0.83526950288E+03  0.00000000000E+00 0. -1.
         22    1    1    2    0    0  0.86539846693E+03 -0.10489364766E+04 -0.22752443128E+04  0.26506450010E+04  0.00000000000E+00 0. -1.
<mgrwt>
<rscale>  0 0.37836076E+04</rscale>
<asrwt>0</asrwt>
<pdfrwt beam="1">  1        2 0.44742460E+00 0.37836076E+04</pdfrwt>
<pdfrwt beam="2">  1       -2 0.18932398E+00 0.37836076E+04</pdfrwt>
<totfact> 0.24958631E-01</totfact>
</mgrwt>
</event>
<event>
 6    1  0.1885829E-005  0.1496116E+04  0.7818608E-02  0.8887040E-01
          2   -1    0    0  501    0  0.00000000000E+00  0.00000000000E+00  0.83138733471E+03  0.83138733471E+03  0.00000000000E+00 0. -1.
         -2   -1    0    0    0  501 -0.00000000000E+00 -0.00000000000E+00 -0.67308109051E+03  0.67308109051E+03  0.00000000000E+00 0.  1.
         23    2    1    2    0    0  0.19656638134E+03 -0.66203660409E+03  0.36152442385E+03  0.78458757676E+03  0.89145662495E+02 0.  0.
         13    1    3    3    0    0  0.10178904412E+03 -0.24799073133E+03  0.17861619874E+03  0.32212444611E+03  0.00000000000E+00 0.  1.
        -13    1    3    3    0    0  0.94777337218E+02 -0.41404587276E+03  0.18290822510E+03  0.46246313065E+03  0.00000000000E+00 0. -1.
         22    1    1    2    0    0 -0.19656638134E+03  0.66203660409E+03 -0.20321817964E+03  0.71988084845E+03  0.00000000000E+00 0.  1.
<mgrwt>
<rscale>  0 0.14961164E+04</rscale>
<asrwt>0</asrwt>
<pdfrwt beam="1">  1        2 0.12790574E+00 0.14961164E+04</pdfrwt>
<pdfrwt beam="2">  1       -2 0.10355094E+00 0.14961164E+04</pdfrwt>
<totfact> 0.24030591E+01</totfact>
</mgrwt>
</event>
<event>
 6    1  0.1885829E-005  0.4676989E+04  0.7818608E-02  0.7880363E-01
          2   -1    0    0  501    0  0.00000000000E+00  0.00000000000E+00  0.33359879285E+04  0.33359879285E+04  0.00000000000E+00 0. -1.
         -2   -1    0    0    0  501 -0.00000000000E+00 -0.00000000000E+00 -0.16392616183E+04  0.16392616183E+04  0.00000000000E+00 0.  1.
         23    2    1    2    0    0  0.29134442576E+03  0.23044533928E+04  0.11250066436E+04  0.25831269765E+04  0.10732201479E+03 0.  0.
         13    1    3    3    0    0  0.43590930588E+02  0.59302557794E+03  0.32704944135E+03  0.67863159550E+03  0.00000000000E+00 0.  1.
        -13    1    3    3    0    0  0.24775349517E+03  0.17114278148E+04  0.79795720220E+03  0.19044953810E+04  0.00000000000E+00 0. -1.
         22    1    1    2    0    0 -0.29134442576E+03 -0.23044533928E+04  0.57171966664E+03  0.23921225703E+04  0.00000000000E+00 0. -1.
<mgrwt>
<rscale>  0 0.46769892E+04</rscale>
<asrwt>0</asrwt>
<pdfrwt beam="1">  1        2 0.51322891E+00 0.46769892E+04</pdfrwt>
<pdfrwt beam="2">  1       -2 0.25219410E+00 0.46769892E+04</pdfrwt>
<totfact> 0.48961805E-02</totfact>
</mgrwt>
</event>
<event>
 6    1  0.1885829E-005  0.1401615E+04  0.7818608E-02  0.8952650E-01
         -2   -1    0    0    0  501 -0.00000000000E+00  0.00000000000E+00  0.13047340556E+04  0.13047340556E+04  0.00000000000E+00 0.  1.
          2   -1    0    0  501    0  0.00000000000E+00 -0.00000000000E+00 -0.37642257169E+03  0.37642257169E+03  0.00000000000E+00 0. -1.
         23    2    1    2    0    0 -0.94881560672E+01  0.51557599623E+03 -0.97738795287E+02  0.53281529806E+03  0.91818498964E+02 0.  0.
         11    1    3    3    0    0  0.41274609780E+02  0.24729154718E+03 -0.48929049682E+02  0.25544227258E+03  0.00000000000E+00 0. -1.
        -11    1    3    3    0    0 -0.50762765847E+02  0.26828444905E+03 -0.48809745605E+02  0.27737302548E+03  0.00000000000E+00 0.  1.
         22    1    1    2    0    0  0.94881560672E+01 -0.51557599623E+03  0.10260502792E+04  0.11483413292E+04  0.00000000000E+00 0.  1.
<mgrwt>
<rscale>  0 0.14016153E+04</rscale>
<asrwt>0</asrwt>
<pdfrwt beam="1">  1        2 0.57911165E-01 0.14016153E+04</pdfrwt>
<pdfrwt beam="2">  1       -2 0.20072831E+00 0.14016153E+04</pdfrwt>
<totfact> 0.10891054E+01</totfact>
</mgrwt>
</event>
<event>
 6    1  0.1885829E-005  0.1386857E+04  0.7818608E-02  0.8963387E-01
          2   -1    0    0  501    0  0.00000000000E+00  0.00000000000E+00  0.22583075717E+03  0.22583075717E+03  0.00000000000E+00 0. -1.
         -2   -1    0    0    0  501 -0.00000000000E+00 -0.00000000000E+00 -0.21292190507E+04  0.21292190507E+04  0.00000000000E+00 0.  1.
         23    2    1    2    0    0  0.39358648011E+03 -0.54996842905E+03 -0.72023936843E+03  0.99225232871E+03  0.91893121146E+02 0.  0.
         13    1    3    3    0    0  0.15353352781E+03 -0.27660952786E+03 -0.37618713866E+03  0.49153040430E+03  0.00000000000E+00 0. -1.
        -13    1    3    3    0    0  0.24005295230E+03 -0.27335890119E+03 -0.34405222978E+03  0.50072192441E+03  0.00000000000E+00 0.  1.
         22    1    1    2    0    0 -0.39358648011E+03  0.54996842905E+03 -0.11831489251E+04  0.13627974792E+04  0.00000000000E+00 0.  1.
<mgrwt>
<rscale>  0 0.13868571E+04</rscale>
<asrwt>0</asrwt>
<pdfrwt beam="1">  1        2 0.34743194E-01 0.13868571E+04</pdfrwt>
<pdfrwt beam="2">  1       -2 0.32757215E+00 0.13868571E+04</pdfrwt>
<totfact> 0.31824767E+00</totfact>
</mgrwt>
</event>
<event>
 6    1  0.1885829E-005  0.7772763E+03  0.7818608E-02  0.9593504E-01
         -2   -1    0    0    0  501 -0.00000000000E+00  0.00000000000E+00  0.10416758880E+03  0.10416758880E+03  0.00000000000E+00 0.  1.
          2   -1    0    0  501    0  0.00000000000E+00 -0.00000000000E+00 -0.14499672532E+04  0.14499672532E+04  0.00000000000E+00 0. -1.
         23    2    1    2    0    0 -0.33706467239E+03  0.14891286034E+02 -0.10455437517E+04  0.11024845825E+04  0.92066140104E+02 0.  0.
         13    1    3    3    0    0 -0.13564492940E+03  0.12676257267E+02 -0.56968259201E+03  0.58574609688E+03  0.00000000000E+00 0. -1.
        -13    1    3    3    0    0 -0.20141974299E+03  0.22150287671E+01 -0.47586115972E+03  0.51673848565E+03  0.00000000000E+00 0.  1.
         22    1    1    2    0    0  0.33706467239E+03 -0.14891286034E+02 -0.30025591263E+03  0.45165025943E+03  0.00000000000E+00 0.  1.
<mgrwt>
<rscale>  0 0.77727625E+03</rscale>
<asrwt>0</asrwt>
<pdfrwt beam="1">  1        2 0.22307187E+00 0.77727625E+03</pdfrwt>
<pdfrwt beam="2">  1       -2 0.16025784E-01 0.77727625E+03</pdfrwt>
<totfact> 0.42856672E+02</totfact>
</mgrwt>
</event>
<event>
 6    1  0.1885829E-005  0.3324232E+04  0.7818608E-02  0.8156757E-01
         -2   -1    0    0    0  501 -0.00000000000E+00  0.00000000000E+00  0.15040667592E+04  0.15040667592E+04  0.00000000000E+00 0. -1.
          2   -1    0    0  501    0  0.00000000000E+00 -0.00000000000E+00 -0.18367733449E+04  0.18367733449E+04  0.00000000000E+00 0.  1.
         23    2    1    2    0    0 -0.84482749170E+03  0.85264602392E+03 -0.13202619146E+04  0.17864899954E+04  0.87842174815E+02 0.  0.
         11    1    3    3    0    0 -0.21571884091E+03  0.23968833610E+03 -0.40898009915E+03  0.52081651115E+03  0.00000000000E+00 0. -1.
        -11    1    3    3    0    0 -0.62910865080E+03  0.61295768782E+03 -0.91128181543E+03  0.12656734842E+04  0.00000000000E+00 0.  1.
         22    1    1    2    0    0  0.84482749170E+03 -0.85264602392E+03  0.98755532885E+03  0.15543501087E+04  0.00000000000E+00 0. -1.
<mgrwt>
<rscale>  0 0.33242321E+04</rscale>
<asrwt>0</asrwt>
<pdfrwt beam="1">  1        2 0.28258051E+00 0.33242321E+04</pdfrwt>
<pdfrwt beam="2">  1       -2 0.23139489E+00 0.33242321E+04</pdfrwt>
<totfact> 0.57509019E-01</totfact>
</mgrwt>
</event>
<event>
 6    1  0.1885829E-005  0.4562924E+04  0.7818608E-02  0.7899712E-01
         -1   -1    0    0    0  501 -0.00000000000E+00  0.00000000000E+00  0.31576230777E+04  0.31576230777E+04  0.00000000000E+00 0.  1.
          1   -1    0    0  501    0  0.00000000000E+00 -0.00000000000E+00 -0.16484136885E+04  0.16484136885E+04  0.00000000000E+00 0. -1.
         23    2    1    2    0    0  0.16417283130E+04  0.42498752075E+03 -0.85115788093E+03  0.18996266271E+04  0.90693647755E+02 0.  0.
         11    1    3    3    0    0  0.48213340152E+03  0.90125435749E+02 -0.21958996855E+03  0.53739646940E+03  0.00000000000E+00 0.  1.
        -11    1    3    3    0    0  0.11595949115E+04  0.33486208500E+03 -0.63156791238E+03  0.13622301577E+04  0.00000000000E+00 0. -1.
         22    1    1    2    0    0 -0.16417283130E+04 -0.42498752075E+03  0.23603672701E+04  0.29064101390E+04  0.00000000000E+00 0.  1.
<mgrwt>
<rscale>  0 0.45629241E+04</rscale>
<asrwt>0</asrwt>
<pdfrwt beam="1">  1        1 0.25360211E+00 0.45629241E+04</pdfrwt>
<pdfrwt beam="2">  1       -1 0.48578816E+00 0.45629241E+04</pdfrwt>
<totfact> 0.71601059E-03</totfact>
</mgrwt>
</event>
<event>
 6    1  0.1885829E-005  0.1898688E+04  0.7818608E-02  0.8655510E-01
          2   -1    0    0  501    0  0.00000000000E+00  0.00000000000E+00  0.21030989305E+04  0.21030989305E+04  0.00000000000E+00 0. -1.
         -2   -1    0    0    0  501 -0.00000000000E+00 -0.00000000000E+00 -0.42853611540E+03  0.42853611540E+03  0.00000000000E+00 0.  1.
         23    2    1    2    0    0 -0.93658857898E+02  0.78010414750E+02  0.20916001215E+04  0.20971494634E+04  0.91581641748E+02 0.  0.
         13    1    3    3    0    0  0.49033244092E+01 -0.15329142841E+02  0.28710652852E+03  0.28755727070E+03  0.00000000000E+00 0.  1.
        -13    1    3    3    0    0 -0.98562182307E+02  0.93339557591E+02  0.18044935930E+04  0.18095921927E+04  0.00000000000E+00 0. -1.
         22    1    1    2    0    0  0.93658857898E+02 -0.78010414750E+02 -0.41703730640E+03  0.43448558251E+03  0.00000000000E+00 0.  1.
<mgrwt>
<rscale>  0 0.18986878E+04</rscale>
<asrwt>0</asrwt>
<pdfrwt beam="1">  1        2 0.32355367E+00 0.18986878E+04</pdfrwt>
<pdfrwt beam="2">  1       -2 0.65928635E-01 0.18986878E+04</pdfrwt>
<totfact> 0.11607323E+01</totfact>
</mgrwt>
</event>
<event>
 6    1  0.1885829E-005  0.2910656E+04  0.7818608E-02  0.8269714E-01
         -2   -1    0    0    0  501 -0.00000000000E+00  0.00000000000E+00  0.14877153038E+04  0.14877153038E+04  0.00000000000E+00 0.  1.
          2   -1    0    0  501    0  0.00000000000E+00 -0.00000000000E+00 -0.14236453299E+04  0.14236453299E+04  0.00000000000E+00 0. -1.
         23    2    1    2    0    0  0.72988758836E+03  0.88173856815E+03  0.92873062558E+03  0.14768443959E+04  0.91268836643E+02 0.  0.
         13    1    3    3    0    0  0.44382465114E+03  0.46724815915E+03  0.53539214334E+03  0.83782212333E+03  0.00000000000E+00 0. -1.
        -13    1    3    3    0    0  0.28606293722E+03  0.41449040900E+03  0.39333848223E+03  0.63902227254E+03  0.00000000000E+00 0.  1.
         22    1    1    2    0    0 -0.72988758836E+03 -0.88173856815E+03 -0.86466065163E+03  0.14345162379E+04  0.00000000000E+00 0. -1.
<mgrwt>
<rscale>  0 0.29106556E+04</rscale>
<asrwt>0</asrwt>
<pdfrwt beam="1">  1        2 0.21902236E+00 0.29106556E+04</pdfrwt>
<pdfrwt beam="2">  1       -2 0.22887928E+00 0.29106556E+04</pdfrwt>
<totfact> 0.10510678E+00</totfact>
</mgrwt>
</event>
<event>
 6    1  0.1885829E-005  0.3547128E+04  0.7818608E-02  0.8102711E-01
          2   -1    0    0  501    0  0.00000000000E+00  0.00000000000E+00  0.14879725007E+04  0.14879725007E+04  0.00000000000E+00 0. -1.
         -2   -1    0    0    0  501 -0.00000000000E+00 -0.00000000000E+00 -0.21139697833E+04  0.21139697833E+04  0.00000000000E+00 0.  1.
         23    2    1    2    0    0  0.15676744755E+04  0.74309537679E+03 -0.68245454108E+03  0.18661481078E+04  0.83489876823E+02 0.  0.
         11    1    3    3    0    0  0.67966611970E+03  0.34057482090E+03 -0.25831462415E+03  0.80290951417E+03  0.00000000000E+00 0. -1.
        -11    1    3    3    0    0  0.88800835578E+03  0.40252055589E+03 -0.42413991693E+03  0.10632385936E+04  0.00000000000E+00 0.  1.
         22    1    1    2    0    0 -0.15676744755E+04 -0.74309537679E+03  0.56457258530E+02  0.17357941762E+04  0.00000000000E+00 0.  1.
<mgrwt>
<rscale>  0 0.35471278E+04</rscale>
<asrwt>0</asrwt>
<pdfrwt beam="1">  1        2 0.22891885E+00 0.35471278E+04</pdfrwt>
<pdfrwt beam="2">  1       -2 0.32522612E+00 0.35471278E+04</pdfrwt>
<totfact> 0.23452322E-01</totfact>
</mgrwt>
</event>
<event>
 6    1  0.1885829E-005  0.1050137E+04  0.7818608E-02  0.9255202E-01
          2   -1    0    0  501    0  0.00000000000E+00  0.00000000000E+00  0.30146284239E+04  0.30146284239E+04  0.00000000000E+00 0. -1.
         -2   -1    0    0    0  501 -0.00000000000E+00 -0.00000000000E+00 -0.91453118241E+02  0.91453118241E+02  0.00000000000E+00 0.  1.
         23    2    1    2    0    0  0.26108352839E+03 -0.21076949340E+03  0.26519824271E+04  0.26746490845E+04  0.90269281767E+02 0.  0.
         11    1    3    3    0    0  0.17455131901E+03 -0.83812732227E+02  0.15235539530E+04  0.15358090327E+04  0.00000000000E+00 0.  1.
        -11    1    3    3    0    0  0.86532209385E+02 -0.12695676117E+03  0.11284284741E+04  0.11388400518E+04  0.00000000000E+00 0. -1.
         22    1    1    2    0    0 -0.26108352839E+03  0.21076949340E+03  0.27119287852E+03  0.43143245764E+03  0.00000000000E+00 0.  1.
<mgrwt>
<rscale>  0 0.10501375E+04</rscale>
<asrwt>0</asrwt>
<pdfrwt beam="1">  1        2 0.46378891E+00 0.10501375E+04</pdfrwt>
<pdfrwt beam="2">  1       -2 0.14069713E-01 0.10501375E+04</pdfrwt>
<totfact> 0.67863124E+01</totfact>
</mgrwt>
</event>
<event>
 6    1  0.1885829E-005  0.3821193E+04  0.7818608E-02  0.8041622E-01
          2   -1    0    0  501    0  0.00000000000E+00  0.00000000000E+00  0.55909120988E+04  0.55909120988E+04  0.00000000000E+00 0. -1.
         -2   -1    0    0    0  501 -0.00000000000E+00 -0.00000000000E+00 -0.65291288744E+03  0.65291288744E+03  0.00000000000E+00 0.  1.
         23    2    1    2    0    0 -0.48003681771E+03  0.18479889171E+04  0.24272541977E+04  0.30895677191E+04  0.91473310705E+02 0.  0.
         11    1    3    3    0    0 -0.13316597287E+03  0.45613917031E+03  0.54553401125E+03  0.72346629255E+03  0.00000000000E+00 0. -1.
        -11    1    3    3    0    0 -0.34687084484E+03  0.13918497468E+04  0.18817201865E+04  0.23661014266E+04  0.00000000000E+00 0.  1.
         22    1    1    2    0    0  0.48003681771E+03 -0.18479889171E+04  0.25107450137E+04  0.31542572672E+04  0.00000000000E+00 0. -1.
<mgrwt>
<rscale>  0 0.38211928E+04</rscale>
<asrwt>0</asrwt>
<pdfrwt beam="1">  1        2 0.86014029E+00 0.38211928E+04</pdfrwt>
<pdfrwt beam="2">  1       -2 0.10044814E+00 0.38211928E+04</pdfrwt>
<totfact> 0.25700213E-03</totfact>
</mgrwt>
</event>
<event>
 6    1  0.1885829E-005  0.8951754E+03  0.7818608E-02  0.9431633E-01
          2   -1    0    0  501    0  0.00000000000E+00  0.00000000000E+00  0.46792184690E+03  0.46792184690E+03  0.00000000000E+00 0. -1.
         -2   -1    0    0    0  501 -0.00000000000E+00 -0.00000000000E+00 -0.42813717640E+03  0.42813717640E+03  0.00000000000E+00 0.  1.
         23    2    1    2    0    0  0.21603131528E+03  0.32998265472E+03 -0.18178138733E+03  0.44367688442E+03  0.90810921077E+02 0.  0.
         11    1    3    3    0    0  0.42462772665E+02  0.46765385174E+02 -0.67375208086E+02  0.92355329990E+02  0.00000000000E+00 0.  1.
        -11    1    3    3    0    0  0.17356854261E+03  0.28321726955E+03 -0.11440617925E+03  0.35132155443E+03  0.00000000000E+00 0. -1.
         22    1    1    2    0    0 -0.21603131528E+03 -0.32998265472E+03  0.22156605783E+03  0.45238213888E+03  0.00000000000E+00 0. -1.
<mgrwt>
<rscale>  0 0.89517538E+03</rscale>
<asrwt>0</asrwt>
<pdfrwt beam="1">  1        2 0.71987976E-01 0.89517538E+03</pdfrwt>
<pdfrwt beam="2">  1       -2 0.65867258E-01 0.89517538E+03</pdfrwt>
<totfact> 0.14167928E+02</totfact>
</mgrwt>
</event>
<event>
 6    1  0.1885829E-005  0.4950676E+04  0.7818608E-02  0.7836161E-01
         -2   -1    0    0    0  501 -0.00000000000E+00  0.00000000000E+00  0.47684638149E+04  0.47684638149E+04  0.00000000000E+00 0.  1.
          2   -1    0    0  501    0  0.00000000000E+00 -0.00000000000E+00 -0.12849625619E+04  0.12849625619E+04  0.00000000000E+00 0. -1.
         23    2    1    2    0    0  0.12127523725E+04  0.10816584259E+04 -0.53935872520E+03  0.17147450481E+04  0.93217370338E+02 0.  0.
         11    1    3    3    0    0  0.30601249892E+03  0.22840241721E+03 -0.10424434184E+03  0.39582596742E+03  0.00000000000E+00 0. -1.
        -11    1    3    3    0    0  0.90673987361E+03  0.85325600864E+03 -0.43511438337E+03  0.13189190806E+04  0.00000000000E+00 0.  1.
         22    1    1    2    0    0 -0.12127523725E+04 -0.10816584259E+04  0.40228599783E+04  0.43386813287E+04  0.00000000000E+00 0.  1.
<mgrwt>
<rscale>  0 0.49506757E+04</rscale>
<asrwt>0</asrwt>
<pdfrwt beam="1">  1        2 0.19768655E+00 0.49506757E+04</pdfrwt>
<pdfrwt beam="2">  1       -2 0.73360981E+00 0.49506757E+04</pdfrwt>
<totfact> 0.20962846E-03</totfact>
</mgrwt>
</event>
<event>
 6    1  0.1885829E-005  0.2639979E+04  0.7818608E-02  0.8354747E-01
          1   -1    0    0  501    0  0.00000000000E+00  0.00000000000E+00  0.18114537925E+04  0.18114537925E+04  0.00000000000E+00 0.  1.
         -1   -1    0    0    0  501 -0.00000000000E+00 -0.00000000000E+00 -0.96186430342E+03  0.96186430342E+03  0.00000000000E+00 0. -1.
         23    2    1    2    0    0 -0.69503420158E+03 -0.16304198078E+03 -0.73925160221E+03  0.10314595362E+04  0.88094349976E+02 0.  0.
         13    1    3    3    0    0 -0.64399534701E+03 -0.15250681878E+03 -0.71402393246E+03  0.97355971202E+03  0.00000000000E+00 0.  1.
        -13    1    3    3    0    0 -0.51038854567E+02 -0.10535162001E+02 -0.25227669753E+02  0.57899824136E+02  0.00000000000E+00 0. -1.
         22    1    1    2    0    0  0.69503420158E+03  0.16304198078E+03  0.15888410913E+04  0.17418585597E+04  0.00000000000E+00 0.  1.
<mgrwt>
<rscale>  0 0.26399793E+04</rscale>
<asrwt>0</asrwt>
<pdfrwt beam="1">  1        1 0.27868520E+00 0.26399793E+04</pdfrwt>
<pdfrwt beam="2">  1       -1 0.14797912E+00 0.26399793E+04</pdfrwt>
<totfact> 0.12709186E+00</totfact>
</mgrwt>
</event>
<event>
 6    1  0.1885829E-005  0.1497023E+04  0.7818608E-02  0.8886435E-01
         -2   -1    0    0    0  501 -0.00000000000E+00  0.00000000000E+00  0.28289944653E+03  0.28289944653E+03  0.00000000000E+00 0.  1.
          2   -1    0    0  501    0  0.00000000000E+00 -0.00000000000E+00 -0.19804536995E+04  0.19804536995E+04  0.00000000000E+00 0. -1.
         23    2    1    2    0    0  0.11030363648E+02 -0.47505834706E+03 -0.17208746147E+04  0.17875948657E+04  0.91015725724E+02 0.  0.
         11    1    3    3    0    0 -0.18959921125E+02 -0.20295822604E+03 -0.59619465345E+03  0.63007903070E+03  0.00000000000E+00 0. -1.
        -11    1    3    3    0    0  0.29990284773E+02 -0.27210012102E+03 -0.11246799612E+04  0.11575158350E+04  0.00000000000E+00 0.  1.
         22    1    1    2    0    0 -0.11030363648E+02  0.47505834706E+03  0.23320361729E+02  0.47575828033E+03  0.00000000000E+00 0.  1.
<mgrwt>
<rscale>  0 0.14970227E+04</rscale>
<asrwt>0</asrwt>
<pdfrwt beam="1">  1        2 0.30468519E+00 0.14970227E+04</pdfrwt>
<pdfrwt beam="2">  1       -2 0.43522992E-01 0.14970227E+04</pdfrwt>
<totfact> 0.33152627E+01</totfact>
</mgrwt>
</event>
<event>
 6    1  0.1885829E-005  0.2459463E+04  0.7818608E-02  0.8417571E-01
          2   -1    0    0  501    0  0.00000000000E+00  0.00000000000E+00  0.15735186071E+04  0.15735186071E+04  0.00000000000E+00 0. -1.
         -2   -1    0    0    0  501 -0.00000000000E+00 -0.00000000000E+00 -0.96105629868E+03  0.96105629868E+03  0.00000000000E+00 0.  1.
         23    2    1    2    0    0  0.49642087015E+03  0.87941525328E+03  0.10266997926E+04  0.14430633110E+04  0.92273438685E+02 0.  0.
         13    1    3    3    0    0  0.45976978705E+03  0.79764389194E+03  0.89678980894E+03  0.12852455006E+04  0.00000000000E+00 0. -1.
        -13    1    3    3    0    0  0.36651083099E+02  0.81771361340E+02  0.12990998369E+03  0.15781781043E+03  0.00000000000E+00 0.  1.
         22    1    1    2    0    0 -0.49642087015E+03 -0.87941525328E+03 -0.41423748423E+03  0.10915115947E+04  0.00000000000E+00 0.  1.
<mgrwt>
<rscale>  0 0.24594633E+04</rscale>
<asrwt>0</asrwt>
<pdfrwt beam="1">  1        2 0.24207978E+00 0.24594633E+04</pdfrwt>
<pdfrwt beam="2">  1       -2 0.14785482E+00 0.24594633E+04</pdfrwt>
<totfact> 0.32148035E+00</totfact>
</mgrwt>
</event>
<event>
 6    1  0.1885829E-005  0.1969338E+04  0.7818608E-02  0.8621092E-01
          2   -1    0    0  501    0  0.00000000000E+00  0.00000000000E+00  0.10789057089E+04  0.10789057089E+04  0.00000000000E+00 0.  1.
         -2   -1    0    0    0  501 -0.00000000000E+00 -0.00000000000E+00 -0.89866362251E+03  0.89866362251E+03  0.00000000000E+00 0. -1.
         23    2    1    2    0    0 -0.31303847377E+02 -0.32253238654E+03  0.10223635740E+04  0.10752524961E+04  0.77029746563E+02 0.  0.
         13    1    3    3    0    0  0.24533237237E+02 -0.13648759039E+03  0.44233488194E+03  0.46356325333E+03  0.00000000000E+00 0. -1.
        -13    1    3    3    0    0 -0.55837084614E+02 -0.18604479615E+03  0.58002869202E+03  0.61168924281E+03  0.00000000000E+00 0.  1.
         22    1    1    2    0    0  0.31303847377E+02  0.32253238654E+03 -0.84212148762E+03  0.90231683523E+03  0.00000000000E+00 0. -1.
<mgrwt>
<rscale>  0 0.19693383E+04</rscale>
<asrwt>0</asrwt>
<pdfrwt beam="1">  1        2 0.16598549E+00 0.19693383E+04</pdfrwt>
<pdfrwt beam="2">  1       -2 0.13825594E+00 0.19693383E+04</pdfrwt>
<totfact> 0.77593007E+00</totfact>
</mgrwt>
</event>
<event>
 6    1  0.1885829E-005  0.1010176E+04  0.7818608E-02  0.9297454E-01
         -1   -1    0    0    0  501 -0.00000000000E+00  0.00000000000E+00  0.15565561907E+03  0.15565561907E+03  0.00000000000E+00 0.  1.
          1   -1    0    0  501    0  0.00000000000E+00 -0.00000000000E+00 -0.16389631191E+04  0.16389631191E+04  0.00000000000E+00 0. -1.
         23    2    1    2    0    0 -0.22337882430E+03 -0.21250548276E+03 -0.14492104249E+04  0.14844263948E+04  0.90852554205E+02 0.  0.
         13    1    3    3    0    0 -0.18657962823E+03 -0.21336396140E+03 -0.12379127957E+04  0.12699465451E+04  0.00000000000E+00 0.  1.
        -13    1    3    3    0    0 -0.36799196065E+02  0.85847863755E+00 -0.21129762923E+03  0.21447984972E+03  0.00000000000E+00 0. -1.
         22    1    1    2    0    0  0.22337882430E+03  0.21250548276E+03 -0.34097075128E+02  0.31019234336E+03  0.00000000000E+00 0.  1.
<mgrwt>
<rscale>  0 0.10101759E+04</rscale>
<asrwt>0</asrwt>
<pdfrwt beam="1">  1        1 0.25214817E+00 0.10101759E+04</pdfrwt>
<pdfrwt beam="2">  1       -1 0.23947019E-01 0.10101759E+04</pdfrwt>
<totfact> 0.79348714E+01</totfact>
</mgrwt>
</event>
<event>
 6    1  0.1885829E-005  0.2334863E+04  0.7818608E-02  0.8464301E-01
          1   -1    0    0  501    0  0.00000000000E+00  0.00000000000E+00  0.98089984192E+03  0.98089984192E+03  0.00000000000E+00 0. -1.
         -1   -1    0    0    0  501 -0.00000000000E+00 -0.00000000000E+00 -0.13894343369E+04  0.13894343369E+04  0.00000000000E+00 0.  1.
         23    2    1    2    0    0  0.22569549787E+03  0.79020705589E+03  0.63486990584E+03  0.10421555792E+04  0.87537448549E+02 0.  0.
         11    1    3    3    0    0  0.11158058722E+03  0.24186126887E+03  0.20344955464E+03  0.33516984068E+03  0.00000000000E+00 0. -1.
        -11    1    3    3    0    0  0.11411491065E+03  0.54834578703E+03  0.43142035120E+03  0.70698573848E+03  0.00000000000E+00 0.  1.
         22    1    1    2    0    0 -0.22569549787E+03 -0.79020705589E+03 -0.10434044008E+04  0.13281785996E+04  0.00000000000E+00 0.  1.
<mgrwt>
<rscale>  0 0.23348627E+04</rscale>
<asrwt>0</asrwt>
<pdfrwt beam="1">  1        1 0.15090767E+00 0.23348627E+04</pdfrwt>
<pdfrwt beam="2">  1       -1 0.21375913E+00 0.23348627E+04</pdfrwt>
<totfact> 0.17111438E+00</totfact>
</mgrwt>
</event>
<event>
 6    1  0.1885829E-005  0.6320444E+03  0.7818608E-02  0.9841067E-01
          1   -1    0    0  501    0  0.00000000000E+00  0.00000000000E+00  0.69814927123E+03  0.69814927123E+03  0.00000000000E+00 0. -1.
         -1   -1    0    0    0  501 -0.00000000000E+00 -0.00000000000E+00 -0.14304968448E+03  0.14304968448E+03  0.00000000000E+00 0.  1.
         23    2    1    2    0    0 -0.21097788282E+03  0.16873704949E+03  0.48394630178E+03  0.56183065244E+03  0.92009782652E+02 0.  0.
         11    1    3    3    0    0 -0.15503756756E+03  0.70887502907E+02  0.25641834114E+03  0.30791565581E+03  0.00000000000E+00 0.  1.
        -11    1    3    3    0    0 -0.55940315263E+02  0.97849546580E+02  0.22752796064E+03  0.25391499662E+03  0.00000000000E+00 0. -1.
         22    1    1    2    0    0  0.21097788282E+03 -0.16873704949E+03  0.71153284976E+02  0.27936830327E+03  0.00000000000E+00 0.  1.
<mgrwt>
<rscale>  0 0.63204441E+03</rscale>
<asrwt>0</asrwt>
<pdfrwt beam="1">  1        1 0.10740758E+00 0.63204441E+03</pdfrwt>
<pdfrwt beam="2">  1       -1 0.22007644E-01 0.63204441E+03</pdfrwt>
<totfact> 0.48125440E+02</totfact>
</mgrwt>
</event>
<event>
 6    1  0.1885829E-005  0.1874005E+04  0.7818608E-02  0.8667905E-01
         -2   -1    0    0    0  501 -0.00000000000E+00  0.00000000000E+00  0.51472473396E+03  0.51472473396E+03  0.00000000000E+00 0.  1.
          2   -1    0    0  501    0  0.00000000000E+00 -0.00000000000E+00 -0.17057157687E+04  0.17057157687E+04  0.00000000000E+00 0. -1.
         23    2    1    2    0    0 -0.64113115409E+03 -0.61639300031E+03 -0.93745370695E+03  0.12956320554E+04  0.94092946876E+02 0.  0.
         11    1    3    3    0    0 -0.31287736191E+03 -0.34541201726E+03 -0.53949065471E+03  0.71291785766E+03  0.00000000000E+00 0. -1.
        -11    1    3    3    0    0 -0.32825379218E+03 -0.27098098305E+03 -0.39796305225E+03  0.58271419771E+03  0.00000000000E+00 0.  1.
         22    1    1    2    0    0  0.64113115409E+03  0.61639300031E+03 -0.25353732777E+03  0.92480844727E+03  0.00000000000E+00 0. -1.
<mgrwt>
<rscale>  0 0.18740054E+04</rscale>
<asrwt>0</asrwt>
<pdfrwt beam="1">  1        2 0.26241781E+00 0.18740054E+04</pdfrwt>
<pdfrwt beam="2">  1       -2 0.79188421E-01 0.18740054E+04</pdfrwt>
<totfact> 0.12921629E+01</totfact>
</mgrwt>
</event>
<event>
 6    1  0.1885829E-005  0.1404905E+04  0.7818608E-02  0.8950275E-01
         -3   -1    0    0    0  501 -0.00000000000E+00  0.00000000000E+00  0.82049870908E+03  0.82049870908E+03  0.00000000000E+00 0.  1.
          3   -1    0    0  501    0  0.00000000000E+00 -0.00000000000E+00 -0.60139010991E+03  0.60139010991E+03  0.00000000000E+00 0. -1.
         23    2    1    2    0    0  0.41753809858E+03 -0.39772853931E+03  0.51072124472E+03  0.77569690493E+03  0.91342453209E+02 0.  0.
         13    1    3    3    0    0  0.24860859444E+03 -0.18768763485E+03  0.31142806956E+03  0.44047738196E+03  0.00000000000E+00 0. -1.
        -13    1    3    3    0    0  0.16892950413E+03 -0.21004090446E+03  0.19929317516E+03  0.33521952297E+03  0.00000000000E+00 0.  1.
         22    1    1    2    0    0 -0.41753809858E+03  0.39772853931E+03 -0.29161264555E+03  0.64619191406E+03  0.00000000000E+00 0. -1.
<mgrwt>
<rscale>  0 0.14049054E+04</rscale>
<asrwt>0</asrwt>
<pdfrwt beam="1">  1        3 0.92521555E-01 0.14049054E+04</pdfrwt>
<pdfrwt beam="2">  1       -3 0.12623057E+00 0.14049054E+04</pdfrwt>
<totfact> 0.13328083E+00</totfact>
</mgrwt>
</event>
<event>
 6    1  0.1885829E-005  0.4958991E+04  0.7818608E-02  0.7834865E-01
          2   -1    0    0  501    0  0.00000000000E+00  0.00000000000E+00  0.25008544434E+04  0.25008544434E+04  0.00000000000E+00 0. -1.
         -2   -1    0    0    0  501 -0.00000000000E+00 -0.00000000000E+00 -0.24583186447E+04  0.24583186447E+04  0.00000000000E+00 0.  1.
         23    2    1    2    0    0 -0.96447541080E+03  0.17474144116E+04 -0.14484999592E+04  0.24678165149E+04  0.91083893135E+02 0.  0.
         11    1    3    3    0    0 -0.48122584363E+03  0.95846927751E+03 -0.79944869028E+03  0.13376695694E+04  0.00000000000E+00 0.  1.
        -11    1    3    3    0    0 -0.48324956717E+03  0.78894513406E+03 -0.64905126893E+03  0.11301469455E+04  0.00000000000E+00 0. -1.
         22    1    1    2    0    0  0.96447541080E+03 -0.17474144116E+04  0.14910357579E+04  0.24913565732E+04  0.00000000000E+00 0. -1.
<mgrwt>
<rscale>  0 0.49589907E+04</rscale>
<asrwt>0</asrwt>
<pdfrwt beam="1">  1        2 0.38474684E+00 0.49589907E+04</pdfrwt>
<pdfrwt beam="2">  1       -2 0.37820287E+00 0.49589907E+04</pdfrwt>
<totfact> 0.26123931E-02</totfact>
</mgrwt>
</event>
<event>
 6    1  0.1885829E-005  0.1738859E+04  0.7818608E-02  0.8739507E-01
          2   -1    0    0  501    0  0.00000000000E+00  0.00000000000E+00  0.15077116387E+04  0.15077116387E+04  0.00000000000E+00 0. -1.
         -2   -1    0    0    0  501 -0.00000000000E+00 -0.00000000000E+00 -0.50136072907E+03  0.50136072907E+03  0.00000000000E+00 0.  1.
         23    2    1    2    0    0  0.68120446089E+03  0.50776303613E+03  0.70737459924E+03  0.11083783839E+04  0.79126479643E+02 0.  0.
         11    1    3    3    0    0  0.34447386328E+02  0.32527313648E+02  0.64681611676E+02  0.80177050626E+02  0.00000000000E+00 0. -1.
        -11    1    3    3    0    0  0.64675707456E+03  0.47523572249E+03  0.64269298756E+03  0.10282013332E+04  0.00000000000E+00 0.  1.
         22    1    1    2    0    0 -0.68120446089E+03 -0.50776303613E+03  0.29897631035E+03  0.90069398386E+03  0.00000000000E+00 0. -1.
<mgrwt>
<rscale>  0 0.17388587E+04</rscale>
<asrwt>0</asrwt>
<pdfrwt beam="1">  1        2 0.23195563E+00 0.17388587E+04</pdfrwt>
<pdfrwt beam="2">  1       -2 0.77132421E-01 0.17388587E+04</pdfrwt>
<totfact> 0.17884448E+01</totfact>
</mgrwt>
</event>
<event>
 6    1  0.1885829E-005  0.8884056E+03  0.7818608E-02  0.9440192E-01
         -2   -1    0    0    0  501 -0.00000000000E+00  0.00000000000E+00  0.28684288514E+03  0.28684288514E+03  0.00000000000E+00 0.  1.
          2   -1    0    0  501    0  0.00000000000E+00 -0.00000000000E+00 -0.68788918132E+03  0.68788918132E+03  0.00000000000E+00 0. -1.
         23    2    1    2    0    0  0.26902839400E+03  0.19221661895E+03  0.11465577304E+03  0.36213747819E+03  0.93134856189E+02 0.  0.
         11    1    3    3    0    0  0.20833829618E+03  0.15804798645E+03  0.48272587306E+02  0.26592151918E+03  0.00000000000E+00 0. -1.
        -11    1    3    3    0    0  0.60690097822E+02  0.34168632500E+02  0.66383185730E+02  0.96215959010E+02  0.00000000000E+00 0.  1.
         22    1    1    2    0    0 -0.26902839400E+03 -0.19221661895E+03 -0.51570206922E+03  0.61259458827E+03  0.00000000000E+00 0. -1.
<mgrwt>
<rscale>  0 0.88840558E+03</rscale>
<asrwt>0</asrwt>
<pdfrwt beam="1">  1        2 0.10582910E+00 0.88840558E+03</pdfrwt>
<pdfrwt beam="2">  1       -2 0.44129675E-01 0.88840558E+03</pdfrwt>
<totfact> 0.20464381E+02</totfact>
</mgrwt>
</event>
<event>
 6    1  0.1885829E-005  0.4214901E+04  0.7818608E-02  0.7962544E-01
          2   -1    0    0  501    0  0.00000000000E+00  0.00000000000E+00  0.35194273260E+04  0.35194273260E+04  0.00000000000E+00 0. -1.
         -2   -1    0    0    0  501 -0.00000000000E+00 -0.00000000000E+00 -0.12619519550E+04  0.12619519550E+04  0.00000000000E+00 0.  1.
         23    2    1    2    0    0  0.17429371321E+04  0.93496423874E+03  0.30710387750E+03  0.20036217435E+04  0.90550125097E+02 0.  0.
         11    1    3    3    0    0  0.66767620704E+03  0.36959744906E+03  0.16198346102E+03  0.78014898157E+03  0.00000000000E+00 0. -1.
        -11    1    3    3    0    0  0.10752609251E+04  0.56536678969E+03  0.14512041648E+03  0.12234727619E+04  0.00000000000E+00 0.  1.
         22    1    1    2    0    0 -0.17429371321E+04 -0.93496423874E+03  0.19503714935E+04  0.27777575375E+04  0.00000000000E+00 0. -1.
<mgrwt>
<rscale>  0 0.42149013E+04</rscale>
<asrwt>0</asrwt>
<pdfrwt beam="1">  1        2 0.54145036E+00 0.42149013E+04</pdfrwt>
<pdfrwt beam="2">  1       -2 0.19414646E+00 0.42149013E+04</pdfrwt>
<totfact> 0.88649763E-02</totfact>
</mgrwt>
</event>
<event>
 6    1  0.1885829E-005  0.1160289E+04  0.7818608E-02  0.9148344E-01
         -1   -1    0    0    0  501 -0.00000000000E+00  0.00000000000E+00  0.33215501154E+03  0.33215501154E+03  0.00000000000E+00 0.  1.
          1   -1    0    0  501    0  0.00000000000E+00 -0.00000000000E+00 -0.10132842820E+04  0.10132842820E+04  0.00000000000E+00 0. -1.
         23    2    1    2    0    0 -0.36204173956E+03 -0.29965375278E+03 -0.73014485179E+03  0.87292567472E+03  0.89560796391E+02 0.  0.
         11    1    3    3    0    0 -0.10803752428E+03 -0.12343312287E+03 -0.19417336295E+03  0.25418720926E+03  0.00000000000E+00 0. -1.
        -11    1    3    3    0    0 -0.25400421528E+03 -0.17622062991E+03 -0.53597148884E+03  0.61873846545E+03  0.00000000000E+00 0.  1.
         22    1    1    2    0    0  0.36204173956E+03  0.29965375278E+03  0.49015581355E+02  0.47251361880E+03  0.00000000000E+00 0. -1.
<mgrwt>
<rscale>  0 0.11602887E+04</rscale>
<asrwt>0</asrwt>
<pdfrwt beam="1">  1        1 0.15588989E+00 0.11602887E+04</pdfrwt>
<pdfrwt beam="2">  1       -1 0.51100771E-01 0.11602887E+04</pdfrwt>
<totfact> 0.56439766E+01</totfact>
</mgrwt>
</event>
<event>
 6    1  0.1885829E-005  0.3460776E+04  0.7818608E-02  0.8123149E-01
         -2   -1    0    0    0  501 -0.00000000000E+00  0.00000000000E+00  0.12551399824E+04  0.12551399824E+04  0.00000000000E+00 0. -1.
          2   -1    0    0  501    0  0.00000000000E+00 -0.00000000000E+00 -0.23855841311E+04  0.23855841311E+04  0.00000000000E+00 0.  1.
         23    2    1    2    0    0 -0.22415520557E+03  0.58301534181E+03  0.11304670841E+04  0.12951171457E+04  0.96021601691E+02 0.  0.
         13    1    3    3    0    0 -0.16717481741E+03  0.40218192331E+03  0.69545075096E+03  0.82057873847E+03  0.00000000000E+00 0.  1.
        -13    1    3    3    0    0 -0.56980388157E+02  0.18083341850E+03  0.43501633312E+03  0.47453840725E+03  0.00000000000E+00 0. -1.
         22    1    1    2    0    0  0.22415520557E+03 -0.58301534181E+03 -0.22609112328E+04  0.23456069678E+04  0.00000000000E+00 0.  1.
<mgrwt>
<rscale>  0 0.34607756E+04</rscale>
<asrwt>0</asrwt>
<pdfrwt beam="1">  1        2 0.36701294E+00 0.34607756E+04</pdfrwt>
<pdfrwt beam="2">  1       -2 0.19309846E+00 0.34607756E+04</pdfrwt>
<totfact> 0.49353965E-01</totfact>
</mgrwt>
</event>
<event>
 6    1  0.1885829E-005  0.3481505E+04  0.7818608E-02  0.8118187E-01
          2   -1    0    0  501    0  0.00000000000E+00  0.00000000000E+00  0.35956588390E+04  0.35956588390E+04  0.00000000000E+00 0. -1.
         -2   -1    0    0    0  501 -0.00000000000E+00 -0.00000000000E+00 -0.84274382079E+03  0.84274382079E+03  0.00000000000E+00 0.  1.
         23    2    1    2    0    0 -0.37442199132E+03  0.17810883884E+02  0.35428837706E+04  0.35640116231E+04  0.98205816145E+02 0.  0.
         13    1    3    3    0    0 -0.35755020580E+03 -0.53136997753E+01  0.31938056945E+04  0.32137618455E+04  0.00000000000E+00 0.  1.
        -13    1    3    3    0    0 -0.16871785518E+02  0.23124583659E+02  0.34907807608E+03  0.35024977761E+03  0.00000000000E+00 0. -1.
         22    1    1    2    0    0  0.37442199132E+03 -0.17810883884E+02 -0.78996875244E+03  0.87439103667E+03  0.00000000000E+00 0.  1.
<mgrwt>
<rscale>  0 0.34815050E+04</rscale>
<asrwt>0</asrwt>
<pdfrwt beam="1">  1        2 0.55317827E+00 0.34815050E+04</pdfrwt>
<pdfrwt beam="2">  1       -2 0.12965290E+00 0.34815050E+04</pdfrwt>
<totfact> 0.24977694E-01</totfact>
</mgrwt>
</event>
<event>
 6    1  0.1885829E-005  0.3090634E+04  0.7818608E-02  0.8218313E-01
         -4   -1    0    0    0  501 -0.00000000000E+00  0.00000000000E+00  0.11912595484E+04  0.11912595484E+04  0.00000000000E+00 0.  1.
          4   -1    0    0  501    0  0.00000000000E+00 -0.00000000000E+00 -0.20046046363E+04  0.20046046363E+04  0.00000000000E+00 0. -1.
         23    2    1    2    0    0 -0.95470744002E+03 -0.10758999068E+04 -0.98740043172E+03  0.17469604031E+04  0.88792634590E+02 0.  0.
         13    1    3    3    0    0 -0.86849363571E+03 -0.94915652181E+03 -0.90470105646E+03  0.15727883836E+04  0.00000000000E+00 0.  1.
        -13    1    3    3    0    0 -0.86213804310E+02 -0.12674338502E+03 -0.82699375262E+02  0.17417201948E+03  0.00000000000E+00 0. -1.
         22    1    1    2    0    0  0.95470744002E+03  0.10758999068E+04  0.17405534381E+03  0.14489037816E+04  0.00000000000E+00 0.  1.
<mgrwt>
<rscale>  0 0.30906339E+04</rscale>
<asrwt>0</asrwt>
<pdfrwt beam="1">  1        4 0.30840071E+00 0.30906339E+04</pdfrwt>
<pdfrwt beam="2">  1       -4 0.18327070E+00 0.30906339E+04</pdfrwt>
<totfact> 0.78640244E-03</totfact>
</mgrwt>
</event>
<event>
 6    1  0.1885829E-005  0.2971375E+04  0.7818608E-02  0.8251953E-01
          2   -1    0    0  501    0  0.00000000000E+00  0.00000000000E+00  0.13126211198E+04  0.13126211198E+04  0.00000000000E+00 0. -1.
         -2   -1    0    0    0  501 -0.00000000000E+00 -0.00000000000E+00 -0.16815718233E+04  0.16815718233E+04  0.00000000000E+00 0.  1.
         23    2    1    2    0    0  0.14494200948E+04  0.67037187692E+02  0.13152800157E+03  0.14593341451E+04  0.83928161727E+02 0.  0.
         11    1    3    3    0    0  0.11369826644E+04  0.21650304104E+02  0.11853865962E+03  0.11433502214E+04  0.00000000000E+00 0. -1.
        -11    1    3    3    0    0  0.31243743031E+03  0.45386883588E+02  0.12989341942E+02  0.31598392374E+03  0.00000000000E+00 0.  1.
         22    1    1    2    0    0 -0.14494200948E+04 -0.67037187692E+02 -0.50047870504E+03  0.15348587980E+04  0.00000000000E+00 0.  1.
<mgrwt>
<rscale>  0 0.29713746E+04</rscale>
<asrwt>0</asrwt>
<pdfrwt beam="1">  1        2 0.20194171E+00 0.29713746E+04</pdfrwt>
<pdfrwt beam="2">  1       -2 0.25870336E+00 0.29713746E+04</pdfrwt>
<totfact> 0.79244386E-01</totfact>
</mgrwt>
</event>
<event>
 6    1  0.1885829E-005  0.2291075E+04  0.7818608E-02  0.8481449E-01
         -2   -1    0    0    0  501 -0.00000000000E+00  0.00000000000E+00  0.15672329483E+04  0.15672329483E+04  0.00000000000E+00 0.  1.
          2   -1    0    0  501    0  0.00000000000E+00 -0.00000000000E+00 -0.83730751479E+03  0.83730751479E+03  0.00000000000E+00 0. -1.
         23    2    1    2    0    0  0.20562885218E+03  0.11144989658E+04  0.52580622513E+03  0.12529954917E+04  0.95573773822E+02 0.  0.
         13    1    3    3    0    0  0.52359244214E+02  0.24660220604E+03  0.16117121814E+03  0.29921614268E+03  0.00000000000E+00 0. -1.
        -13    1    3    3    0    0  0.15326960797E+03  0.86789675980E+03  0.36463500699E+03  0.95377934907E+03  0.00000000000E+00 0.  1.
         22    1    1    2    0    0 -0.20562885218E+03 -0.11144989658E+04  0.20411920833E+03  0.11515449713E+04  0.00000000000E+00 0. -1.
<mgrwt>
<rscale>  0 0.22910748E+04</rscale>
<asrwt>0</asrwt>
<pdfrwt beam="1">  1        2 0.12881654E+00 0.22910748E+04</pdfrwt>
<pdfrwt beam="2">  1       -2 0.24111276E+00 0.22910748E+04</pdfrwt>
<totfact> 0.21424821E+00</totfact>
</mgrwt>
</event>
<event>
 6    1  0.1885829E-005  0.8736203E+03  0.7818608E-02  0.9459172E-01
         -2   -1    0    0    0  501 -0.00000000000E+00  0.00000000000E+00  0.20951292129E+03  0.20951292129E+03  0.00000000000E+00 0.  1.
          2   -1    0    0  501    0  0.00000000000E+00 -0.00000000000E+00 -0.91069848228E+03  0.91069848228E+03  0.00000000000E+00 0. -1.
         23    2    1    2    0    0  0.27734055050E+03 -0.11533820901E+03  0.43495763925E+02  0.31723509067E+03  0.92333839228E+02 0.  0.
         13    1    3    3    0    0  0.36514818091E+02 -0.58796475395E+01  0.37446269078E+02  0.52631979473E+02  0.00000000000E+00 0.  1.
        -13    1    3    3    0    0  0.24082573241E+03 -0.10945856147E+03  0.60494948472E+01  0.26460311120E+03  0.00000000000E+00 0. -1.
         22    1    1    2    0    0 -0.27734055050E+03  0.11533820901E+03 -0.74468132491E+03  0.80297631290E+03  0.00000000000E+00 0. -1.
<mgrwt>
<rscale>  0 0.87362028E+03</rscale>
<asrwt>0</asrwt>
<pdfrwt beam="1">  1        2 0.14010746E+00 0.87362028E+03</pdfrwt>
<pdfrwt beam="2">  1       -2 0.32232758E-01 0.87362028E+03</pdfrwt>
<totfact> 0.25899705E+02</totfact>
</mgrwt>
</event>
<event>
 6    1  0.1885829E-005  0.3598028E+04  0.7818608E-02  0.8090943E-01
          2   -1    0    0  501    0  0.00000000000E+00  0.00000000000E+00  0.21464272220E+04  0.21464272220E+04  0.00000000000E+00 0. -1.
         -2   -1    0    0    0  501 -0.00000000000E+00 -0.00000000000E+00 -0.15078321206E+04  0.15078321206E+04  0.00000000000E+00 0.  1.
         23    2    1    2    0    0 -0.59162706901E+03 -0.26220407438E+02 -0.14045069297E+04  0.15270602433E+04  0.92537411966E+02 0.  0.
         13    1    3    3    0    0 -0.21994355755E+03  0.28609624790E+02 -0.46392108688E+03  0.51421440469E+03  0.00000000000E+00 0. -1.
        -13    1    3    3    0    0 -0.37168351146E+03 -0.54830032228E+02 -0.94058584283E+03  0.10128458386E+04  0.00000000000E+00 0.  1.
         22    1    1    2    0    0  0.59162706901E+03  0.26220407438E+02  0.20431020311E+04  0.21271990993E+04  0.00000000000E+00 0. -1.
<mgrwt>
<rscale>  0 0.35980283E+04</rscale>
<asrwt>0</asrwt>
<pdfrwt beam="1">  1        2 0.33021957E+00 0.35980283E+04</pdfrwt>
<pdfrwt beam="2">  1       -2 0.23197417E+00 0.35980283E+04</pdfrwt>
<totfact> 0.37493035E-01</totfact>
</mgrwt>
</event>
<event>
 6    1  0.1885829E-005  0.1632932E+04  0.7818608E-02  0.8800568E-01
         -2   -1    0    0    0  501 -0.00000000000E+00  0.00000000000E+00  0.31801726126E+03  0.31801726126E+03  0.00000000000E+00 0.  1.
          2   -1    0    0  501    0  0.00000000000E+00 -0.00000000000E+00 -0.20961659840E+04  0.20961659840E+04  0.00000000000E+00 0. -1.
         23    2    1    2    0    0 -0.72715858052E+03  0.24271429503E+03 -0.12967217656E+04  0.15089530286E+04  0.88216067926E+02 0.  0.
         11    1    3    3    0    0 -0.13406661505E+03  0.70621895501E+02 -0.30714573915E+03  0.34249060494E+03  0.00000000000E+00 0.  1.
        -11    1    3    3    0    0 -0.59309196547E+03  0.17209239953E+03 -0.98957602649E+03  0.11664624236E+04  0.00000000000E+00 0. -1.
         22    1    1    2    0    0  0.72715858052E+03 -0.24271429503E+03 -0.48142695713E+03  0.90523021674E+03  0.00000000000E+00 0.  1.
<mgrwt>
<rscale>  0 0.16329323E+04</rscale>
<asrwt>0</asrwt>
<pdfrwt beam="1">  1        2 0.32248708E+00 0.16329323E+04</pdfrwt>
<pdfrwt beam="2">  1       -2 0.48925731E-01 0.16329323E+04</pdfrwt>
<totfact> 0.22350608E+01</totfact>
</mgrwt>
</event>
<event>
 6    1  0.1885829E-005  0.3063533E+04  0.7818608E-02  0.8225818E-01
          2   -1    0    0  501    0  0.00000000000E+00  0.00000000000E+00  0.27264663266E+04  0.27264663266E+04  0.00000000000E+00 0. -1.
         -2   -1    0    0    0  501 -0.00000000000E+00 -0.00000000000E+00 -0.86056762715E+03  0.86056762715E+03  0.00000000000E+00 0.  1.
         23    2    1    2    0    0  0.29435532568E+03  0.68541298895E+03  0.24984896117E+04  0.26089709264E+04  0.88560329135E+02 0.  0.
         11    1    3    3    0    0  0.10148167959E+03  0.34822629075E+03  0.11967576411E+04  0.12505154667E+04  0.00000000000E+00 0.  1.
        -11    1    3    3    0    0  0.19287364609E+03  0.33718669820E+03  0.13017319706E+04  0.13584554597E+04  0.00000000000E+00 0. -1.
         22    1    1    2    0    0 -0.29435532568E+03 -0.68541298895E+03 -0.63259091225E+03  0.97806302734E+03  0.00000000000E+00 0.  1.
<mgrwt>
<rscale>  0 0.30635330E+04</rscale>
<asrwt>0</asrwt>
<pdfrwt beam="1">  1        2 0.41945635E+00 0.30635330E+04</pdfrwt>
<pdfrwt beam="2">  1       -2 0.13239502E+00 0.30635330E+04</pdfrwt>
<totfact> 0.90372330E-01</totfact>
</mgrwt>
</event>
<event>
 6    1  0.1885829E-005  0.3699530E+04  0.7818608E-02  0.8068066E-01
         -2   -1    0    0    0  501 -0.00000000000E+00  0.00000000000E+00  0.10713016738E+04  0.10713016738E+04  0.00000000000E+00 0.  1.
          2   -1    0    0  501    0  0.00000000000E+00 -0.00000000000E+00 -0.31939006646E+04  0.31939006646E+04  0.00000000000E+00 0. -1.
         23    2    1    2    0    0  0.72332680959E+03 -0.16394561556E+04 -0.15856708453E+04  0.23945580662E+04  0.92402073497E+02 0.  0.
         13    1    3    3    0    0  0.42427752558E+03 -0.87829143595E+03 -0.82052487714E+03  0.12746247837E+04  0.00000000000E+00 0. -1.
        -13    1    3    3    0    0  0.29904928401E+03 -0.76116471964E+03 -0.76514596815E+03  0.11199332825E+04  0.00000000000E+00 0.  1.
         22    1    1    2    0    0 -0.72332680959E+03  0.16394561556E+04 -0.53692814558E+03  0.18706442722E+04  0.00000000000E+00 0. -1.
<mgrwt>
<rscale>  0 0.36995303E+04</rscale>
<asrwt>0</asrwt>
<pdfrwt beam="1">  1        2 0.49136932E+00 0.36995303E+04</pdfrwt>
<pdfrwt beam="2">  1       -2 0.16481565E+00 0.36995303E+04</pdfrwt>
<totfact> 0.24544698E-01</totfact>
</mgrwt>
</event>
<event>
 6    1  0.1885829E-005  0.1859301E+04  0.7818608E-02  0.8675384E-01
          2   -1    0    0  501    0  0.00000000000E+00  0.00000000000E+00  0.36087046346E+03  0.36087046346E+03  0.00000000000E+00 0. -1.
         -2   -1    0    0    0  501 -0.00000000000E+00 -0.00000000000E+00 -0.23949046756E+04  0.23949046756E+04  0.00000000000E+00 0.  1.
         23    2    1    2    0    0 -0.56007345132E+03 -0.30037833340E+03 -0.20210920097E+04  0.21201046940E+04  0.78240577617E+02 0.  0.
         13    1    3    3    0    0 -0.43263395932E+03 -0.22602341920E+03 -0.14358296467E+04  0.15165307458E+04  0.00000000000E+00 0. -1.
        -13    1    3    3    0    0 -0.12743949200E+03 -0.74354914191E+02 -0.58526236301E+03  0.60357394820E+03  0.00000000000E+00 0.  1.
         22    1    1    2    0    0  0.56007345132E+03  0.30037833340E+03 -0.12942202421E+02  0.63567044500E+03  0.00000000000E+00 0. -1.
<mgrwt>
<rscale>  0 0.18593013E+04</rscale>
<asrwt>0</asrwt>
<pdfrwt beam="1">  1        2 0.55518534E-01 0.18593013E+04</pdfrwt>
<pdfrwt beam="2">  1       -2 0.36844687E+00 0.18593013E+04</pdfrwt>
<totfact> 0.10003565E+00</totfact>
</mgrwt>
</event>
<event>
 6    1  0.1885829E-005  0.7879850E+03  0.7818608E-02  0.9577573E-01
          2   -1    0    0  501    0  0.00000000000E+00  0.00000000000E+00  0.92774814816E+03  0.92774814816E+03  0.00000000000E+00 0. -1.
         -2   -1    0    0    0  501 -0.00000000000E+00 -0.00000000000E+00 -0.16731922934E+03  0.16731922934E+03  0.00000000000E+00 0.  1.
         23    2    1    2    0    0 -0.23059666090E+03 -0.10545205254E+02  0.82125887598E+03  0.85634933239E+03  0.74712892645E+02 0.  0.
         13    1    3    3    0    0 -0.21790089902E+03 -0.14491279055E+02  0.67410364299E+03  0.70859475052E+03  0.00000000000E+00 0. -1.
        -13    1    3    3    0    0 -0.12695761888E+02  0.39460738009E+01  0.14715523299E+03  0.14775458187E+03  0.00000000000E+00 0.  1.
         22    1    1    2    0    0  0.23059666090E+03  0.10545205254E+02 -0.60829957159E+02  0.23871804511E+03  0.00000000000E+00 0.  1.
<mgrwt>
<rscale>  0 0.78798504E+03</rscale>
<asrwt>0</asrwt>
<pdfrwt beam="1">  1        2 0.14273048E+00 0.78798504E+03</pdfrwt>
<pdfrwt beam="2">  1       -2 0.25741421E-01 0.78798504E+03</pdfrwt>
<totfact> 0.38363563E+02</totfact>
</mgrwt>
</event>
<event>
 6    1  0.1885829E-005  0.1725961E+04  0.7818608E-02  0.8746695E-01
         -2   -1    0    0    0  501 -0.00000000000E+00  0.00000000000E+00  0.32150044468E+03  0.32150044468E+03  0.00000000000E+00 0.  1.
          2   -1    0    0  501    0  0.00000000000E+00 -0.00000000000E+00 -0.23164367360E+04  0.23164367360E+04  0.00000000000E+00 0. -1.
         23    2    1    2    0    0 -0.25676854744E+03 -0.67205437227E+03 -0.17219702889E+04  0.18684583930E+04  0.91476358044E+02 0.  0.
         11    1    3    3    0    0 -0.98371396672E+02 -0.22355564668E+03 -0.48105615725E+03  0.53950818833E+03  0.00000000000E+00 0.  1.
        -11    1    3    3    0    0 -0.15839715077E+03 -0.44849872559E+03 -0.12409141317E+04  0.13289502046E+04  0.00000000000E+00 0. -1.
         22    1    1    2    0    0  0.25676854744E+03  0.67205437227E+03 -0.27296600237E+03  0.76947878768E+03  0.00000000000E+00 0.  1.
<mgrwt>
<rscale>  0 0.17259611E+04</rscale>
<asrwt>0</asrwt>
<pdfrwt beam="1">  1        2 0.35637489E+00 0.17259611E+04</pdfrwt>
<pdfrwt beam="2">  1       -2 0.49461606E-01 0.17259611E+04</pdfrwt>
<totfact> 0.16314530E+01</totfact>
</mgrwt>
</event>
<event>
 6    1  0.1885829E-005  0.2410813E+04  0.7818608E-02  0.8435466E-01
         -2   -1    0    0    0  501 -0.00000000000E+00  0.00000000000E+00  0.12634442659E+04  0.12634442659E+04  0.00000000000E+00 0.  1.
          2   -1    0    0  501    0  0.00000000000E+00 -0.00000000000E+00 -0.11500350714E+04  0.11500350714E+04  0.00000000000E+00 0. -1.
         23    2    1    2    0    0 -0.66358809602E+03  0.14556530823E+03  0.10514639833E+04  0.12552543131E+04  0.92457894936E+02 0.  0.
         13    1    3    3    0    0 -0.59414873423E+03  0.99904779353E+02  0.92796751639E+03  0.11063983888E+04  0.00000000000E+00 0. -1.
        -13    1    3    3    0    0 -0.69439361789E+02  0.45660528876E+02  0.12349646686E+03  0.14885592427E+03  0.00000000000E+00 0.  1.
         22    1    1    2    0    0  0.66358809602E+03 -0.14556530823E+03 -0.93805478870E+03  0.11582250242E+04  0.00000000000E+00 0. -1.
<mgrwt>
<rscale>  0 0.24108133E+04</rscale>
<asrwt>0</asrwt>
<pdfrwt beam="1">  1        2 0.17692847E+00 0.24108133E+04</pdfrwt>
<pdfrwt beam="2">  1       -2 0.19437604E+00 0.24108133E+04</pdfrwt>
<totfact> 0.26426748E+00</totfact>
</mgrwt>
</event>
<event>
 6    1  0.1885829E-005  0.3165186E+04  0.7818608E-02  0.8198072E-01
          2   -1    0    0  501    0  0.00000000000E+00  0.00000000000E+00  0.26468271116E+04  0.26468271116E+04  0.00000000000E+00 0. -1.
         -2   -1    0    0    0  501 -0.00000000000E+00 -0.00000000000E+00 -0.94626519137E+03  0.94626519137E+03  0.00000000000E+00 0.  1.
         23    2    1    2    0    0 -0.51996868152E+03  0.52627305416E+03  0.24374886254E+04  0.25488740663E+04  0.89874632544E+02 0.  0.
         11    1    3    3    0    0 -0.41390574914E+03  0.46198277886E+03  0.19812140288E+04  0.20760431318E+04  0.00000000000E+00 0.  1.
        -11    1    3    3    0    0 -0.10606293238E+03  0.64290275309E+02  0.45627459657E+03  0.47283093448E+03  0.00000000000E+00 0. -1.
         22    1    1    2    0    0  0.51996868152E+03 -0.52627305416E+03 -0.73692670509E+03  0.10442182368E+04  0.00000000000E+00 0.  1.
<mgrwt>
<rscale>  0 0.31651858E+04</rscale>
<asrwt>0</asrwt>
<pdfrwt beam="1">  1        2 0.40720417E+00 0.31651858E+04</pdfrwt>
<pdfrwt beam="2">  1       -2 0.14557926E+00 0.31651858E+04</pdfrwt>
<totfact> 0.78174449E-01</totfact>
</mgrwt>
</event>
<event>
 6    1  0.1885829E-005  0.2745035E+04  0.7818608E-02  0.8320539E-01
         -2   -1    0    0    0  501 -0.00000000000E+00  0.00000000000E+00  0.24584550448E+04  0.24584550448E+04  0.00000000000E+00 0.  1.
          2   -1    0    0  501    0  0.00000000000E+00 -0.00000000000E+00 -0.76625556930E+03  0.76625556930E+03  0.00000000000E+00 0. -1.
         23    2    1    2    0    0  0.12199843271E+04 -0.77704948206E+02  0.11731790430E+03  0.12310577404E+04  0.85672936868E+02 0.  0.
         11    1    3    3    0    0  0.56476802077E+03 -0.78636167929E+02  0.50938483495E+02  0.57248693723E+03  0.00000000000E+00 0. -1.
        -11    1    3    3    0    0  0.65521630637E+03  0.93121972352E+00  0.66379420801E+02  0.65857080318E+03  0.00000000000E+00 0.  1.
         22    1    1    2    0    0 -0.12199843271E+04  0.77704948206E+02  0.15748815712E+04  0.19936528737E+04  0.00000000000E+00 0.  1.
<mgrwt>
<rscale>  0 0.27450354E+04</rscale>
<asrwt>0</asrwt>
<pdfrwt beam="1">  1        2 0.11788547E+00 0.27450354E+04</pdfrwt>
<pdfrwt beam="2">  1       -2 0.37822385E+00 0.27450354E+04</pdfrwt>
<totfact> 0.32761797E-01</totfact>
</mgrwt>
</event>
<event>
 6    1  0.1885829E-005  0.4522103E+04  0.7818608E-02  0.7906779E-01
         -2   -1    0    0    0  501 -0.00000000000E+00  0.00000000000E+00  0.14757033644E+04  0.14757033644E+04  0.00000000000E+00 0.  1.
          2   -1    0    0  501    0  0.00000000000E+00 -0.00000000000E+00 -0.34643507460E+04  0.34643507460E+04  0.00000000000E+00 0. -1.
         23    2    1    2    0    0  0.12568595558E+04  0.79515179914E+03 -0.28538444274E+04  0.32194355430E+04  0.91514331902E+02 0.  0.
         11    1    3    3    0    0  0.26869109315E+03  0.12696618931E+03 -0.57686964754E+03  0.64891748861E+03  0.00000000000E+00 0.  1.
        -11    1    3    3    0    0  0.98816846260E+03  0.66818560983E+03 -0.22769747799E+04  0.25705180544E+04  0.00000000000E+00 0. -1.
         22    1    1    2    0    0 -0.12568595558E+04 -0.79515179914E+03  0.86519704574E+03  0.17206185674E+04  0.00000000000E+00 0.  1.
<mgrwt>
<rscale>  0 0.45221031E+04</rscale>
<asrwt>0</asrwt>
<pdfrwt beam="1">  1        2 0.53297703E+00 0.45221031E+04</pdfrwt>
<pdfrwt beam="2">  1       -2 0.22703129E+00 0.45221031E+04</pdfrwt>
<totfact> 0.58005235E-02</totfact>
</mgrwt>
</event>
<event>
 6    1  0.1885829E-005  0.2817130E+04  0.7818608E-02  0.8297970E-01
          2   -1    0    0  501    0  0.00000000000E+00  0.00000000000E+00  0.35859168315E+04  0.35859168315E+04  0.00000000000E+00 0. -1.
         -2   -1    0    0    0  501 -0.00000000000E+00 -0.00000000000E+00 -0.55329099551E+03  0.55329099551E+03  0.00000000000E+00 0.  1.
         23    2    1    2    0    0 -0.56801786960E+03 -0.43348324357E+03 -0.26367552676E+03  0.76635225691E+03  0.84964555077E+02 0.  0.
         11    1    3    3    0    0 -0.39341361196E+03 -0.34648707867E+03 -0.18321326066E+03  0.55533293135E+03  0.00000000000E+00 0.  1.
        -11    1    3    3    0    0 -0.17460425764E+03 -0.86996164893E+02 -0.80462266099E+02  0.21101932556E+03  0.00000000000E+00 0. -1.
         22    1    1    2    0    0  0.56801786960E+03  0.43348324357E+03  0.32963013627E+04  0.33728555701E+04  0.00000000000E+00 0.  1.
<mgrwt>
<rscale>  0 0.28171301E+04</rscale>
<asrwt>0</asrwt>
<pdfrwt beam="1">  1        2 0.55167950E+00 0.28171301E+04</pdfrwt>
<pdfrwt beam="2">  1       -2 0.85121694E-01 0.28171301E+04</pdfrwt>
<totfact> 0.73735587E-01</totfact>
</mgrwt>
</event>
<event>
 6    1  0.1885829E-005  0.1902378E+04  0.7818608E-02  0.8653673E-01
          2   -1    0    0  501    0  0.00000000000E+00  0.00000000000E+00  0.25211845143E+04  0.25211845143E+04  0.00000000000E+00 0.  1.
         -2   -1    0    0    0  501 -0.00000000000E+00 -0.00000000000E+00 -0.35886343302E+03  0.35886343302E+03  0.00000000000E+00 0. -1.
         23    2    1    2    0    0  0.13105202746E+03 -0.53850596424E+03 -0.82477760136E+02  0.56784442127E+03  0.92094508135E+02 0.  0.
         11    1    3    3    0    0  0.33803911409E+02 -0.32343464121E+03 -0.60626355071E+02  0.33079937498E+03  0.00000000000E+00 0.  1.
        -11    1    3    3    0    0  0.97248116055E+02 -0.21507132303E+03 -0.21851405065E+02  0.23704504629E+03  0.00000000000E+00 0. -1.
         22    1    1    2    0    0 -0.13105202746E+03  0.53850596424E+03  0.22447988414E+04  0.23122035261E+04  0.00000000000E+00 0.  1.
<mgrwt>
<rscale>  0 0.19023784E+04</rscale>
<asrwt>0</asrwt>
<pdfrwt beam="1">  1        2 0.38787453E+00 0.19023784E+04</pdfrwt>
<pdfrwt beam="2">  1       -2 0.55209761E-01 0.19023784E+04</pdfrwt>
<totfact> 0.97820323E+00</totfact>
</mgrwt>
</event>
<event>
 6    1  0.1885829E-005  0.2054008E+04  0.7818608E-02  0.8581778E-01
         -2   -1    0    0    0  501 -0.00000000000E+00  0.00000000000E+00  0.45661012781E+03  0.45661012781E+03  0.00000000000E+00 0.  1.
          2   -1    0    0  501    0  0.00000000000E+00 -0.00000000000E+00 -0.23099295196E+04  0.23099295196E+04  0.00000000000E+00 0. -1.
         23    2    1    2    0    0 -0.80805177915E+03  0.60000732685E+03 -0.66736161506E+03  0.12110807703E+04  0.91589502457E+02 0.  0.
         13    1    3    3    0    0 -0.29994567706E+03  0.16870021665E+03 -0.22844019427E+03  0.41305216940E+03  0.00000000000E+00 0. -1.
        -13    1    3    3    0    0 -0.50810610209E+03  0.43130711020E+03 -0.43892142079E+03  0.79802860094E+03  0.00000000000E+00 0.  1.
         22    1    1    2    0    0  0.80805177915E+03 -0.60000732685E+03 -0.11859577767E+04  0.15554588771E+04  0.00000000000E+00 0.  1.
<mgrwt>
<rscale>  0 0.20540080E+04</rscale>
<asrwt>0</asrwt>
<pdfrwt beam="1">  1        2 0.35537377E+00 0.20540080E+04</pdfrwt>
<pdfrwt beam="2">  1       -2 0.70247712E-01 0.20540080E+04</pdfrwt>
<totfact> 0.76364441E+00</totfact>
</mgrwt>
</event>
<event>
 6    1  0.1885829E-005  0.1955070E+04  0.7818608E-02  0.8627920E-01
          2   -1    0    0  501    0  0.00000000000E+00  0.00000000000E+00  0.12195269066E+04  0.12195269066E+04  0.00000000000E+00 0. -1.
         -2   -1    0    0    0  501 -0.00000000000E+00 -0.00000000000E+00 -0.78356182742E+03  0.78356182742E+03  0.00000000000E+00 0.  1.
         23    2    1    2    0    0  0.31583717054E+03 -0.40131658281E+03 -0.63316822520E+03  0.81824522518E+03  0.88403219342E+02 0.  0.
         13    1    3    3    0    0  0.18792685598E+03 -0.27403967565E+03 -0.35120910238E+03  0.48348948347E+03  0.00000000000E+00 0. -1.
        -13    1    3    3    0    0  0.12791031457E+03 -0.12727690716E+03 -0.28195912282E+03  0.33475574171E+03  0.00000000000E+00 0.  1.
         22    1    1    2    0    0 -0.31583717054E+03  0.40131658281E+03  0.10691333044E+04  0.11848435089E+04  0.00000000000E+00 0. -1.
<mgrwt>
<rscale>  0 0.19550701E+04</rscale>
<asrwt>0</asrwt>
<pdfrwt beam="1">  1        2 0.18761952E+00 0.19550701E+04</pdfrwt>
<pdfrwt beam="2">  1       -2 0.12054797E+00 0.19550701E+04</pdfrwt>
<totfact> 0.90282214E+00</totfact>
</mgrwt>
</event>
<event>
 6    1  0.1885829E-005  0.1421992E+04  0.7818608E-02  0.8938051E-01
          2   -1    0    0  501    0  0.00000000000E+00  0.00000000000E+00  0.43841424846E+03  0.43841424846E+03  0.00000000000E+00 0. -1.
         -2   -1    0    0    0  501 -0.00000000000E+00 -0.00000000000E+00 -0.11530544827E+04  0.11530544827E+04  0.00000000000E+00 0.  1.
         23    2    1    2    0    0  0.25115077628E+03 -0.66214551120E+03 -0.36930346284E+03  0.80357858904E+03  0.88544399430E+02 0.  0.
         11    1    3    3    0    0  0.18035623591E+03 -0.40528278735E+03 -0.19095052517E+03  0.48295404814E+03  0.00000000000E+00 0. -1.
        -11    1    3    3    0    0  0.70794540361E+02 -0.25686272384E+03 -0.17835293768E+03  0.32062454089E+03  0.00000000000E+00 0.  1.
         22    1    1    2    0    0 -0.25115077628E+03  0.66214551120E+03 -0.34533677144E+03  0.78789014217E+03  0.00000000000E+00 0. -1.
<mgrwt>
<rscale>  0 0.14219923E+04</rscale>
<asrwt>0</asrwt>
<pdfrwt beam="1">  1        2 0.67448347E-01 0.14219923E+04</pdfrwt>
<pdfrwt beam="2">  1       -2 0.17739299E+00 0.14219923E+04</pdfrwt>
<totfact> 0.13148113E+01</totfact>
</mgrwt>
</event>
<event>
 6    1  0.1885829E-005  0.2591844E+04  0.7818608E-02  0.8370977E-01
         -2   -1    0    0    0  501 -0.00000000000E+00  0.00000000000E+00  0.61550092152E+03  0.61550092152E+03  0.00000000000E+00 0. -1.
          2   -1    0    0  501    0  0.00000000000E+00 -0.00000000000E+00 -0.27285319429E+04  0.27285319429E+04  0.00000000000E+00 0.  1.
         23    2    1    2    0    0 -0.64780121078E+03 -0.94581631110E+03 -0.28260721858E+03  0.11842490325E+04  0.91455059164E+02 0.  0.
         13    1    3    3    0    0 -0.49252321275E+03 -0.65236011449E+03 -0.21857072752E+03  0.84612410260E+03  0.00000000000E+00 0. -1.
        -13    1    3    3    0    0 -0.15527799803E+03 -0.29345619661E+03 -0.64036491060E+02  0.33812492986E+03  0.00000000000E+00 0.  1.
         22    1    1    2    0    0  0.64780121078E+03  0.94581631110E+03 -0.18304238028E+04  0.21597838320E+04  0.00000000000E+00 0.  1.
<mgrwt>
<rscale>  0 0.25918441E+04</rscale>
<asrwt>0</asrwt>
<pdfrwt beam="1">  1        2 0.41977415E+00 0.25918441E+04</pdfrwt>
<pdfrwt beam="2">  1       -2 0.94692449E-01 0.25918441E+04</pdfrwt>
<totfact> 0.21219852E+00</totfact>
</mgrwt>
</event>
<event>
 6    1  0.1885829E-005  0.1470859E+04  0.7818608E-02  0.8904066E-01
         -2   -1    0    0    0  501 -0.00000000000E+00  0.00000000000E+00  0.43333776516E+03  0.43333776516E+03  0.00000000000E+00 0. -1.
          2   -1    0    0  501    0  0.00000000000E+00 -0.00000000000E+00 -0.12481170512E+04  0.12481170512E+04  0.00000000000E+00 0.  1.
         23    2    1    2    0    0  0.33357949331E+03 -0.11844445960E+03 -0.11421857677E+04  0.11992729288E+04  0.91448681941E+02 0.  0.
         11    1    3    3    0    0  0.10996149578E+03 -0.71469190439E+00 -0.41958907435E+03  0.43375918740E+03  0.00000000000E+00 0. -1.
        -11    1    3    3    0    0  0.22361799753E+03 -0.11772976770E+03 -0.72259669338E+03  0.76551374142E+03  0.00000000000E+00 0.  1.
         22    1    1    2    0    0 -0.33357949331E+03  0.11844445960E+03  0.32740648172E+03  0.48218188751E+03  0.00000000000E+00 0. -1.
<mgrwt>
<rscale>  0 0.14708586E+04</rscale>
<asrwt>0</asrwt>
<pdfrwt beam="1">  1        2 0.19201800E+00 0.14708586E+04</pdfrwt>
<pdfrwt beam="2">  1       -2 0.66667350E-01 0.14708586E+04</pdfrwt>
<totfact> 0.35493216E+01</totfact>
</mgrwt>
</event>
<event>
 6    1  0.1885829E-005  0.9475371E+03  0.7818608E-02  0.9368034E-01
          2   -1    0    0  501    0  0.00000000000E+00  0.00000000000E+00  0.13080531258E+04  0.13080531258E+04  0.00000000000E+00 0. -1.
         -2   -1    0    0    0  501 -0.00000000000E+00 -0.00000000000E+00 -0.17159595628E+03  0.17159595628E+03  0.00000000000E+00 0.  1.
         23    2    1    2    0    0 -0.31677433710E+03  0.33866447660E+03  0.46089142655E+03  0.66024156354E+03  0.91969597126E+02 0.  0.
         11    1    3    3    0    0 -0.23671806122E+02  0.33008491905E+02  0.84129824293E+02  0.93422386389E+02  0.00000000000E+00 0. -1.
        -11    1    3    3    0    0 -0.29310253098E+03  0.30565598469E+03  0.37676160226E+03  0.56681917715E+03  0.00000000000E+00 0.  1.
         22    1    1    2    0    0  0.31677433710E+03 -0.33866447660E+03  0.67556574295E+03  0.81940751852E+03  0.00000000000E+00 0. -1.
<mgrwt>
<rscale>  0 0.94753707E+03</rscale>
<asrwt>0</asrwt>
<pdfrwt beam="1">  1        2 0.20123894E+00 0.94753707E+03</pdfrwt>
<pdfrwt beam="2">  1       -2 0.26399379E-01 0.94753707E+03</pdfrwt>
<totfact> 0.21230293E+02</totfact>
</mgrwt>
</event>
<event>
 6    1  0.1885829E-005  0.3638871E+04  0.7818608E-02  0.8081645E-01
         -2   -1    0    0    0  501 -0.00000000000E+00  0.00000000000E+00  0.12645624509E+04  0.12645624509E+04  0.00000000000E+00 0.  1.
          2   -1    0    0  501    0  0.00000000000E+00 -0.00000000000E+00 -0.26177791653E+04  0.26177791653E+04  0.00000000000E+00 0. -1.
         23    2    1    2    0    0  0.58550394541E+03  0.16327371166E+03  0.11513250201E+04  0.13050945434E+04  0.90825604538E+02 0.  0.
         11    1    3    3    0    0  0.42368995771E+03  0.12776096849E+03  0.74848905551E+03  0.86952395686E+03  0.00000000000E+00 0. -1.
        -11    1    3    3    0    0  0.16181398770E+03  0.35512743178E+02  0.40283596455E+03  0.43557058656E+03  0.00000000000E+00 0.  1.
         22    1    1    2    0    0 -0.58550394541E+03 -0.16327371166E+03 -0.25045417344E+04  0.25772470728E+04  0.00000000000E+00 0. -1.
<mgrwt>
<rscale>  0 0.36388708E+04</rscale>
<asrwt>0</asrwt>
<pdfrwt beam="1">  1        2 0.40273525E+00 0.36388708E+04</pdfrwt>
<pdfrwt beam="2">  1       -2 0.19454807E+00 0.36388708E+04</pdfrwt>
<totfact> 0.34874478E-01</totfact>
</mgrwt>
</event>
<event>
 6    1  0.1885829E-005  0.1308269E+04  0.7818608E-02  0.9023033E-01
         -2   -1    0    0    0  501 -0.00000000000E+00  0.00000000000E+00  0.11319365716E+03  0.11319365716E+03  0.00000000000E+00 0.  1.
          2   -1    0    0  501    0  0.00000000000E+00 -0.00000000000E+00 -0.37801774063E+04  0.37801774063E+04  0.00000000000E+00 0. -1.
         23    2    1    2    0    0 -0.41274940425E+02  0.64374548361E+03 -0.20998954528E+04  0.21987095643E+04  0.93010574041E+02 0.  0.
         13    1    3    3    0    0 -0.81672636474E+01  0.52801239390E+03 -0.16174025920E+04  0.17014273234E+04  0.00000000000E+00 0.  1.
        -13    1    3    3    0    0 -0.33107676778E+02  0.11573308970E+03 -0.48249286087E+03  0.49728224089E+03  0.00000000000E+00 0. -1.
         22    1    1    2    0    0  0.41274940425E+02 -0.64374548361E+03 -0.15670882963E+04  0.16946614992E+04  0.00000000000E+00 0.  1.
<mgrwt>
<rscale>  0 0.13082692E+04</rscale>
<asrwt>0</asrwt>
<pdfrwt beam="1">  1        2 0.58156570E+00 0.13082692E+04</pdfrwt>
<pdfrwt beam="2">  1       -2 0.17414410E-01 0.13082692E+04</pdfrwt>
<totfact> 0.13923346E+01</totfact>
</mgrwt>
</event>
<event>
 6    1  0.1885829E-005  0.2889732E+04  0.7818608E-02  0.8275939E-01
         -2   -1    0    0    0  501 -0.00000000000E+00  0.00000000000E+00  0.93811328490E+03  0.93811328490E+03  0.00000000000E+00 0.  1.
          2   -1    0    0  501    0  0.00000000000E+00 -0.00000000000E+00 -0.22253584783E+04  0.22253584783E+04  0.00000000000E+00 0. -1.
         23    2    1    2    0    0  0.50912891581E+03  0.12893092912E+04 -0.20394697987E+03  0.14041918762E+04  0.92896464884E+02 0.  0.
         11    1    3    3    0    0  0.30013981919E+03  0.86111795381E+03 -0.15798955024E+03  0.92550998883E+03  0.00000000000E+00 0.  1.
        -11    1    3    3    0    0  0.20898909662E+03  0.42819133743E+03 -0.45957429631E+02  0.47868188737E+03  0.00000000000E+00 0. -1.
         22    1    1    2    0    0 -0.50912891581E+03 -0.12893092912E+04 -0.10832982135E+04  0.17592798870E+04  0.00000000000E+00 0. -1.
<mgrwt>
<rscale>  0 0.28897324E+04</rscale>
<asrwt>0</asrwt>
<pdfrwt beam="1">  1        2 0.34236284E+00 0.28897324E+04</pdfrwt>
<pdfrwt beam="2">  1       -2 0.14432512E+00 0.28897324E+04</pdfrwt>
<totfact> 0.14316397E+00</totfact>
</mgrwt>
</event>
<event>
 6    1  0.1885829E-005  0.3921113E+04  0.7818608E-02  0.8020652E-01
         -2   -1    0    0    0  501 -0.00000000000E+00  0.00000000000E+00  0.16202843969E+04  0.16202843969E+04  0.00000000000E+00 0.  1.
          2   -1    0    0  501    0  0.00000000000E+00 -0.00000000000E+00 -0.23722878364E+04  0.23722878364E+04  0.00000000000E+00 0. -1.
         23    2    1    2    0    0 -0.58510134698E+03  0.92339708493E+03 -0.20320336443E+04  0.23092769271E+04  0.92700765762E+02 0.  0.
         11    1    3    3    0    0 -0.54363744899E+03  0.83009610235E+03 -0.17909049648E+04  0.20474232118E+04  0.00000000000E+00 0. -1.
        -11    1    3    3    0    0 -0.41463897987E+02  0.93300982583E+02 -0.24112867946E+03  0.26185371535E+03  0.00000000000E+00 0.  1.
         22    1    1    2    0    0  0.58510134698E+03 -0.92339708493E+03  0.12800302048E+04  0.16832953062E+04  0.00000000000E+00 0.  1.
<mgrwt>
<rscale>  0 0.39211126E+04</rscale>
<asrwt>0</asrwt>
<pdfrwt beam="1">  1        2 0.36496736E+00 0.39211126E+04</pdfrwt>
<pdfrwt beam="2">  1       -2 0.24927452E+00 0.39211126E+04</pdfrwt>
<totfact> 0.21255680E-01</totfact>
</mgrwt>
</event>
<event>
 6    1  0.1885829E-005  0.2098342E+04  0.7818608E-02  0.8561974E-01
         -2   -1    0    0    0  501 -0.00000000000E+00  0.00000000000E+00  0.17250188484E+04  0.17250188484E+04  0.00000000000E+00 0. -1.
          2   -1    0    0  501    0  0.00000000000E+00 -0.00000000000E+00 -0.63811464071E+03  0.63811464071E+03  0.00000000000E+00 0.  1.
         23    2    1    2    0    0 -0.32453213193E+03  0.42296448954E+03 -0.47042543770E+03  0.71707890663E+03  0.93177260246E+02 0.  0.
         11    1    3    3    0    0 -0.10269402767E+03  0.76268943836E+02 -0.88184839437E+02  0.15536917654E+03  0.00000000000E+00 0.  1.
        -11    1    3    3    0    0 -0.22183810427E+03  0.34669554570E+03 -0.38224059827E+03  0.56170973009E+03  0.00000000000E+00 0. -1.
         22    1    1    2    0    0  0.32453213193E+03 -0.42296448954E+03  0.15573296454E+04  0.16460545825E+04  0.00000000000E+00 0. -1.
<mgrwt>
<rscale>  0 0.20983420E+04</rscale>
<asrwt>0</asrwt>
<pdfrwt beam="1">  1        2 0.98171484E-01 0.20983420E+04</pdfrwt>
<pdfrwt beam="2">  1       -2 0.26538751E+00 0.20983420E+04</pdfrwt>
<totfact> 0.21927485E+00</totfact>
</mgrwt>
</event>
<event>
 6    1  0.1885829E-005  0.2758396E+04  0.7818608E-02  0.8316302E-01
         -1   -1    0    0    0  501 -0.00000000000E+00  0.00000000000E+00  0.16878940329E+04  0.16878940329E+04  0.00000000000E+00 0.  1.
          1   -1    0    0  501    0  0.00000000000E+00 -0.00000000000E+00 -0.11269591080E+04  0.11269591080E+04  0.00000000000E+00 0. -1.
         23    2    1    2    0    0  0.11537507397E+04  0.47554759134E+03  0.87648025496E+03  0.15276642906E+04  0.90852993397E+02 0.  0.
         13    1    3    3    0    0  0.82618744939E+03  0.31937990758E+03  0.57664352483E+03  0.10569328179E+04  0.00000000000E+00 0. -1.
        -13    1    3    3    0    0  0.32756329028E+03  0.15616768376E+03  0.29983673013E+03  0.47073147263E+03  0.00000000000E+00 0.  1.
         22    1    1    2    0    0 -0.11537507397E+04 -0.47554759134E+03 -0.31554533006E+03  0.12871888503E+04  0.00000000000E+00 0.  1.
<mgrwt>
<rscale>  0 0.27583963E+04</rscale>
<asrwt>0</asrwt>
<pdfrwt beam="1">  1        1 0.17337832E+00 0.27583963E+04</pdfrwt>
<pdfrwt beam="2">  1       -1 0.25967601E+00 0.27583963E+04</pdfrwt>
<totfact> 0.63387692E-01</totfact>
</mgrwt>
</event>
<event>
 6    1  0.1885829E-005  0.1617891E+04  0.7818608E-02  0.8809632E-01
         -2   -1    0    0    0  501 -0.00000000000E+00  0.00000000000E+00  0.24656423946E+03  0.24656423946E+03  0.00000000000E+00 0.  1.
          2   -1    0    0  501    0  0.00000000000E+00 -0.00000000000E+00 -0.26540446086E+04  0.26540446086E+04  0.00000000000E+00 0. -1.
         23    2    1    2    0    0 -0.15863268489E+03  0.32911570765E+03 -0.24965419887E+04  0.25245590511E+04  0.84823484196E+02 0.  0.
         13    1    3    3    0    0  0.56538587967E+01  0.35389660051E+02 -0.34467733565E+03  0.34653551026E+03  0.00000000000E+00 0. -1.
        -13    1    3    3    0    0 -0.16428654369E+03  0.29372604760E+03 -0.21518646530E+04  0.21780235408E+04  0.00000000000E+00 0.  1.
         22    1    1    2    0    0  0.15863268489E+03 -0.32911570765E+03  0.89061619531E+02  0.37604979698E+03  0.00000000000E+00 0.  1.
<mgrwt>
<rscale>  0 0.16178906E+04</rscale>
<asrwt>0</asrwt>
<pdfrwt beam="1">  1        2 0.40831455E+00 0.16178906E+04</pdfrwt>
<pdfrwt beam="2">  1       -2 0.37932961E-01 0.16178906E+04</pdfrwt>
<totfact> 0.17816028E+01</totfact>
</mgrwt>
</event>
<event>
 6    1  0.1885829E-005  0.1801978E+04  0.7818608E-02  0.8705248E-01
         -2   -1    0    0    0  501 -0.00000000000E+00  0.00000000000E+00  0.47185908130E+03  0.47185908130E+03  0.00000000000E+00 0.  1.
          2   -1    0    0  501    0  0.00000000000E+00 -0.00000000000E+00 -0.17203885665E+04  0.17203885665E+04  0.00000000000E+00 0. -1.
         23    2    1    2    0    0  0.17217302185E+03 -0.66592259866E+03 -0.13294811899E+04  0.14996802248E+04  0.91782818109E+02 0.  0.
         13    1    3    3    0    0  0.98036357964E+02 -0.25660678048E+03 -0.60094626099E+03  0.66075303698E+03  0.00000000000E+00 0. -1.
        -13    1    3    3    0    0  0.74136663890E+02 -0.40931581818E+03 -0.72853492886E+03  0.83892718785E+03  0.00000000000E+00 0.  1.
         22    1    1    2    0    0 -0.17217302185E+03  0.66592259866E+03  0.80951704660E+02  0.69256742296E+03  0.00000000000E+00 0.  1.
<mgrwt>
<rscale>  0 0.18019778E+04</rscale>
<asrwt>0</asrwt>
<pdfrwt beam="1">  1        2 0.26467516E+00 0.18019778E+04</pdfrwt>
<pdfrwt beam="2">  1       -2 0.72593705E-01 0.18019778E+04</pdfrwt>
<totfact> 0.15475756E+01</totfact>
</mgrwt>
</event>
<event>
 6    1  0.1885829E-005  0.1820817E+04  0.7818608E-02  0.8695307E-01
          2   -1    0    0  501    0  0.00000000000E+00  0.00000000000E+00  0.13586617448E+04  0.13586617448E+04  0.00000000000E+00 0. -1.
         -2   -1    0    0    0  501 -0.00000000000E+00 -0.00000000000E+00 -0.61004410348E+03  0.61004410348E+03  0.00000000000E+00 0.  1.
         23    2    1    2    0    0 -0.36098225214E+03  0.82654141827E+03  0.48948300758E+03  0.10302871460E+04  0.91755577092E+02 0.  0.
         13    1    3    3    0    0 -0.12951242537E+03  0.22593063545E+03  0.17618524345E+03  0.31441908398E+03  0.00000000000E+00 0. -1.
        -13    1    3    3    0    0 -0.23146982677E+03  0.60061078283E+03  0.31329776413E+03  0.71586806198E+03  0.00000000000E+00 0.  1.
         22    1    1    2    0    0  0.36098225214E+03 -0.82654141827E+03  0.25913463376E+03  0.93841870234E+03  0.00000000000E+00 0. -1.
<mgrwt>
<rscale>  0 0.18208169E+04</rscale>
<asrwt>0</asrwt>
<pdfrwt beam="1">  1        2 0.20902488E+00 0.18208169E+04</pdfrwt>
<pdfrwt beam="2">  1       -2 0.93852940E-01 0.18208169E+04</pdfrwt>
<totfact> 0.13814539E+01</totfact>
</mgrwt>
</event>
<event>
 6    1  0.1885829E-005  0.3090324E+04  0.7818608E-02  0.8218398E-01
          1   -1    0    0  501    0  0.00000000000E+00  0.00000000000E+00  0.18708737060E+04  0.18708737060E+04  0.00000000000E+00 0. -1.
         -1   -1    0    0    0  501 -0.00000000000E+00 -0.00000000000E+00 -0.12761554908E+04  0.12761554908E+04  0.00000000000E+00 0.  1.
         23    2    1    2    0    0  0.83476382309E+03 -0.47355830915E+03  0.15290629778E+04  0.18075934021E+04  0.90951661868E+02 0.  0.
         13    1    3    3    0    0  0.43610792736E+03 -0.26197629664E+03  0.89161355538E+03  0.10265458764E+04  0.00000000000E+00 0. -1.
        -13    1    3    3    0    0  0.39865589573E+03 -0.21158201250E+03  0.63744942243E+03  0.78104752568E+03  0.00000000000E+00 0.  1.
         22    1    1    2    0    0 -0.83476382309E+03  0.47355830915E+03 -0.93434476267E+03  0.13394357947E+04  0.00000000000E+00 0.  1.
<mgrwt>
<rscale>  0 0.30903241E+04</rscale>
<asrwt>0</asrwt>
<pdfrwt beam="1">  1        1 0.28782673E+00 0.30903241E+04</pdfrwt>
<pdfrwt beam="2">  1       -1 0.19633161E+00 0.30903241E+04</pdfrwt>
<totfact> 0.49143029E-01</totfact>
</mgrwt>
</event>
<event>
 6    1  0.1885829E-005  0.1250765E+04  0.7818608E-02  0.9069547E-01
         -2   -1    0    0    0  501 -0.00000000000E+00  0.00000000000E+00  0.17335686517E+03  0.17335686517E+03  0.00000000000E+00 0.  1.
          2   -1    0    0  501    0  0.00000000000E+00 -0.00000000000E+00 -0.22560585304E+04  0.22560585304E+04  0.00000000000E+00 0. -1.
         23    2    1    2    0    0  0.29398206869E+03  0.48743829263E+03 -0.55927503621E+03  0.80311584142E+03  0.90470673570E+02 0.  0.
         13    1    3    3    0    0  0.92808336387E+02  0.22745622607E+03 -0.27242272810E+03  0.36682947655E+03  0.00000000000E+00 0. -1.
        -13    1    3    3    0    0  0.20117373231E+03  0.25998206657E+03 -0.28685230811E+03  0.43628636487E+03  0.00000000000E+00 0.  1.
         22    1    1    2    0    0 -0.29398206869E+03 -0.48743829263E+03 -0.15234266290E+04  0.16262995542E+04  0.00000000000E+00 0. -1.
<mgrwt>
<rscale>  0 0.12507649E+04</rscale>
<asrwt>0</asrwt>
<pdfrwt beam="1">  1        2 0.34708589E+00 0.12507649E+04</pdfrwt>
<pdfrwt beam="2">  1       -2 0.26670290E-01 0.12507649E+04</pdfrwt>
<totfact> 0.60376292E+01</totfact>
</mgrwt>
</event>
<event>
 6    1  0.1885829E-005  0.2262005E+04  0.7818608E-02  0.8493054E-01
          1   -1    0    0  501    0  0.00000000000E+00  0.00000000000E+00  0.19556903682E+04  0.19556903682E+04  0.00000000000E+00 0. -1.
         -1   -1    0    0    0  501 -0.00000000000E+00 -0.00000000000E+00 -0.65407440823E+03  0.65407440823E+03  0.00000000000E+00 0.  1.
         23    2    1    2    0    0  0.11637506552E+03 -0.55322251081E+03 -0.47592931925E+03  0.74448583697E+03  0.90289214096E+02 0.  0.
         11    1    3    3    0    0  0.65380933215E+02 -0.39800630697E+03 -0.38458843415E+03  0.55730776999E+03  0.00000000000E+00 0. -1.
        -11    1    3    3    0    0  0.50994132301E+02 -0.15521620385E+03 -0.91340885096E+02  0.18717806697E+03  0.00000000000E+00 0.  1.
         22    1    1    2    0    0 -0.11637506552E+03  0.55322251081E+03  0.17775452792E+04  0.18652789394E+04  0.00000000000E+00 0. -1.
<mgrwt>
<rscale>  0 0.22620053E+04</rscale>
<asrwt>0</asrwt>
<pdfrwt beam="1">  1        1 0.30087544E+00 0.22620053E+04</pdfrwt>
<pdfrwt beam="2">  1       -1 0.10062683E+00 0.22620053E+04</pdfrwt>
<totfact> 0.27206118E+00</totfact>
</mgrwt>
</event>
<event>
 6    1  0.1885829E-005  0.1858826E+04  0.7818608E-02  0.8675627E-01
          2   -1    0    0  501    0  0.00000000000E+00  0.00000000000E+00  0.43901359233E+03  0.43901359233E+03  0.00000000000E+00 0. -1.
         -2   -1    0    0    0  501 -0.00000000000E+00 -0.00000000000E+00 -0.19676132906E+04  0.19676132906E+04  0.00000000000E+00 0.  1.
         23    2    1    2    0    0  0.76116446327E+03 -0.18024536692E+03 -0.12182814158E+03  0.79701017541E+03  0.92322213901E+02 0.  0.
         11    1    3    3    0    0  0.31401094938E+03 -0.11534297966E+03 -0.29399079111E+02  0.33581421224E+03  0.00000000000E+00 0. -1.
        -11    1    3    3    0    0  0.44715351389E+03 -0.64902387265E+02 -0.92429062471E+02  0.46119596317E+03  0.00000000000E+00 0.  1.
         22    1    1    2    0    0 -0.76116446327E+03  0.18024536692E+03 -0.14067715567E+04  0.16096167076E+04  0.00000000000E+00 0.  1.
<mgrwt>
<rscale>  0 0.18588265E+04</rscale>
<asrwt>0</asrwt>
<pdfrwt beam="1">  1        2 0.67540552E-01 0.18588265E+04</pdfrwt>
<pdfrwt beam="2">  1       -2 0.30270974E+00 0.18588265E+04</pdfrwt>
<totfact> 0.20597467E+00</totfact>
</mgrwt>
</event>
<event>
 6    1  0.1885829E-005  0.1438237E+04  0.7818608E-02  0.8926597E-01
          1   -1    0    0  501    0  0.00000000000E+00  0.00000000000E+00  0.10039195240E+04  0.10039195240E+04  0.00000000000E+00 0. -1.
         -1   -1    0    0    0  501 -0.00000000000E+00 -0.00000000000E+00 -0.51511228090E+03  0.51511228090E+03  0.00000000000E+00 0.  1.
         23    2    1    2    0    0  0.24644911390E+03 -0.71055740726E+02  0.95157473968E+03  0.98993839176E+03  0.93260121375E+02 0.  0.
         11    1    3    3    0    0  0.24420484066E+03 -0.84675117468E+02  0.88624147489E+03  0.92316294961E+03  0.00000000000E+00 0.  1.
        -11    1    3    3    0    0  0.22442732416E+01  0.13619376742E+02  0.65333264793E+02  0.66775442145E+02  0.00000000000E+00 0. -1.
         22    1    1    2    0    0 -0.24644911390E+03  0.71055740726E+02 -0.46276749654E+03  0.52909341319E+03  0.00000000000E+00 0.  1.
<mgrwt>
<rscale>  0 0.14382368E+04</rscale>
<asrwt>0</asrwt>
<pdfrwt beam="1">  1        1 0.15444916E+00 0.14382368E+04</pdfrwt>
<pdfrwt beam="2">  1       -1 0.79248043E-01 0.14382368E+04</pdfrwt>
<totfact> 0.23252068E+01</totfact>
</mgrwt>
</event>
<event>
 6    1  0.1885829E-005  0.4749576E+04  0.7818608E-02  0.7868343E-01
         -2   -1    0    0    0  501 -0.00000000000E+00  0.00000000000E+00  0.14701040150E+04  0.14701040150E+04  0.00000000000E+00 0.  1.
          2   -1    0    0  501    0  0.00000000000E+00 -0.00000000000E+00 -0.38362035233E+04  0.38362035233E+04  0.00000000000E+00 0. -1.
         23    2    1    2    0    0  0.22803726557E+04  0.65969607066E+03 -0.11939685552E+04  0.26588201775E+04  0.92007993422E+02 0.  0.
         11    1    3    3    0    0  0.13977478427E+04  0.40103556283E+03 -0.78121384621E+03  0.16507039795E+04  0.00000000000E+00 0.  1.
        -11    1    3    3    0    0  0.88262481297E+03  0.25866050784E+03 -0.41275470899E+03  0.10081161980E+04  0.00000000000E+00 0. -1.
         22    1    1    2    0    0 -0.22803726557E+04 -0.65969607066E+03 -0.11721309531E+04  0.26474873608E+04  0.00000000000E+00 0. -1.
<mgrwt>
<rscale>  0 0.47495761E+04</rscale>
<asrwt>0</asrwt>
<pdfrwt beam="1">  1        2 0.59018514E+00 0.47495761E+04</pdfrwt>
<pdfrwt beam="2">  1       -2 0.22616986E+00 0.47495761E+04</pdfrwt>
<totfact> 0.30812107E-02</totfact>
</mgrwt>
</event>
<event>
 6    1  0.1885829E-005  0.2936695E+04  0.7818608E-02  0.8262043E-01
         -2   -1    0    0    0  501 -0.00000000000E+00  0.00000000000E+00  0.63895192150E+03  0.63895192150E+03  0.00000000000E+00 0.  1.
          2   -1    0    0  501    0  0.00000000000E+00 -0.00000000000E+00 -0.33743452158E+04  0.33743452158E+04  0.00000000000E+00 0. -1.
         23    2    1    2    0    0  0.79020453837E+03 -0.10471213695E+04 -0.22663962730E+04  0.26201551557E+04  0.88173686854E+02 0.  0.
         13    1    3    3    0    0  0.55645193303E+03 -0.79740638677E+03 -0.16490335845E+04  0.19143686850E+04  0.00000000000E+00 0. -1.
        -13    1    3    3    0    0  0.23375260534E+03 -0.24971498271E+03 -0.61736268844E+03  0.70578647066E+03  0.00000000000E+00 0.  1.
         22    1    1    2    0    0 -0.79020453837E+03  0.10471213695E+04 -0.46899702136E+03  0.13931419816E+04  0.00000000000E+00 0.  1.
<mgrwt>
<rscale>  0 0.29366950E+04</rscale>
<asrwt>0</asrwt>
<pdfrwt beam="1">  1        2 0.51913004E+00 0.29366950E+04</pdfrwt>
<pdfrwt beam="2">  1       -2 0.98300295E-01 0.29366950E+04</pdfrwt>
<totfact> 0.73418357E-01</totfact>
</mgrwt>
</event>
<event>
 6    1  0.1885829E-005  0.2059817E+04  0.7818608E-02  0.8579154E-01
          2   -1    0    0  501    0  0.00000000000E+00  0.00000000000E+00  0.18413141811E+04  0.18413141811E+04  0.00000000000E+00 0. -1.
         -2   -1    0    0    0  501 -0.00000000000E+00 -0.00000000000E+00 -0.57606204331E+03  0.57606204331E+03  0.00000000000E+00 0.  1.
         23    2    1    2    0    0 -0.64720927888E+03  0.23268998751E+03  0.15303882163E+04  0.16802726896E+04  0.90574488285E+02 0.  0.
         13    1    3    3    0    0 -0.29845263826E+03  0.97743958035E+02  0.80675034171E+03  0.86572164838E+03  0.00000000000E+00 0. -1.
        -13    1    3    3    0    0 -0.34875664061E+03  0.13494602948E+03  0.72363787459E+03  0.81455104124E+03  0.00000000000E+00 0.  1.
         22    1    1    2    0    0  0.64720927888E+03 -0.23268998751E+03 -0.26513607847E+03  0.73710353483E+03  0.00000000000E+00 0.  1.
<mgrwt>
<rscale>  0 0.20598167E+04</rscale>
<asrwt>0</asrwt>
<pdfrwt beam="1">  1        2 0.28327910E+00 0.20598167E+04</pdfrwt>
<pdfrwt beam="2">  1       -2 0.88624931E-01 0.20598167E+04</pdfrwt>
<totfact> 0.82859980E+00</totfact>
</mgrwt>
</event>
<event>
 6    1  0.1885829E-005  0.5148095E+04  0.7818608E-02  0.7806060E-01
          2   -1    0    0  501    0  0.00000000000E+00  0.00000000000E+00  0.39200674792E+04  0.39200674792E+04  0.00000000000E+00 0. -1.
         -2   -1    0    0    0  501 -0.00000000000E+00 -0.00000000000E+00 -0.16902057589E+04  0.16902057589E+04  0.00000000000E+00 0.  1.
         23    2    1    2    0    0 -0.13954102642E+04  0.52384169069E+03 -0.11707040311E+04  0.18974000445E+04  0.89437566093E+02 0.  0.
         11    1    3    3    0    0 -0.71513835615E+03  0.30539002099E+03 -0.57411449790E+03  0.96658853192E+03  0.00000000000E+00 0. -1.
        -11    1    3    3    0    0 -0.68027190803E+03  0.21845166970E+03 -0.59658953319E+03  0.93081151258E+03  0.00000000000E+00 0.  1.
         22    1    1    2    0    0  0.13954102642E+04 -0.52384169069E+03  0.34005657514E+04  0.37128731936E+04  0.00000000000E+00 0. -1.
<mgrwt>
<rscale>  0 0.51480950E+04</rscale>
<asrwt>0</asrwt>
<pdfrwt beam="1">  1        2 0.60308730E+00 0.51480950E+04</pdfrwt>
<pdfrwt beam="2">  1       -2 0.26003166E+00 0.51480950E+04</pdfrwt>
<totfact> 0.15838755E-02</totfact>
</mgrwt>
</event>
<event>
 6    1  0.1885829E-005  0.4088352E+04  0.7818608E-02  0.7986957E-01
          2   -1    0    0  501    0  0.00000000000E+00  0.00000000000E+00  0.16981654577E+04  0.16981654577E+04  0.00000000000E+00 0. -1.
         -2   -1    0    0    0  501 -0.00000000000E+00 -0.00000000000E+00 -0.24606876415E+04  0.24606876415E+04  0.00000000000E+00 0.  1.
         23    2    1    2    0    0 -0.14771912229E+04 -0.75556551001E+03  0.83113095234E+03  0.18582654639E+04  0.96947025366E+02 0.  0.
         11    1    3    3    0    0 -0.33885215125E+03 -0.18431665703E+03  0.14943238215E+03  0.41367069911E+03  0.00000000000E+00 0.  1.
        -11    1    3    3    0    0 -0.11383390716E+04 -0.57124885299E+03  0.68169857019E+03  0.14445947648E+04  0.00000000000E+00 0. -1.
         22    1    1    2    0    0  0.14771912229E+04  0.75556551001E+03 -0.15936531362E+04  0.23005876352E+04  0.00000000000E+00 0.  1.
<mgrwt>
<rscale>  0 0.40883516E+04</rscale>
<asrwt>0</asrwt>
<pdfrwt beam="1">  1        2 0.26125622E+00 0.40883516E+04</pdfrwt>
<pdfrwt beam="2">  1       -2 0.37856733E+00 0.40883516E+04</pdfrwt>
<totfact> 0.78721521E-02</totfact>
</mgrwt>
</event>
<event>
 6    1  0.1885829E-005  0.2207611E+04  0.7818608E-02  0.8515267E-01
         -2   -1    0    0    0  501 -0.00000000000E+00  0.00000000000E+00  0.36570314684E+03  0.36570314684E+03  0.00000000000E+00 0.  1.
          2   -1    0    0  501    0  0.00000000000E+00 -0.00000000000E+00 -0.33316273056E+04  0.33316273056E+04  0.00000000000E+00 0. -1.
         23    2    1    2    0    0  0.75604048108E+03  0.53209830596E+03 -0.24895717912E+04  0.26573124746E+04  0.92822776264E+02 0.  0.
         11    1    3    3    0    0  0.32741270140E+03  0.27922478501E+03 -0.10875700643E+04  0.11696042930E+04  0.00000000000E+00 0.  1.
        -11    1    3    3    0    0  0.42862777967E+03  0.25287352095E+03 -0.14020017269E+04  0.14877081816E+04  0.00000000000E+00 0. -1.
         22    1    1    2    0    0 -0.75604048108E+03 -0.53209830596E+03 -0.47635236758E+03  0.10400179779E+04  0.00000000000E+00 0. -1.
<mgrwt>
<rscale>  0 0.22076110E+04</rscale>
<asrwt>0</asrwt>
<pdfrwt beam="1">  1        2 0.51255805E+00 0.22076110E+04</pdfrwt>
<pdfrwt beam="2">  1       -2 0.56262022E-01 0.22076110E+04</pdfrwt>
<totfact> 0.28806819E+00</totfact>
</mgrwt>
</event>
<event>
 6    1  0.1885829E-005  0.2037388E+04  0.7818608E-02  0.8589337E-01
         -2   -1    0    0    0  501 -0.00000000000E+00  0.00000000000E+00  0.40301789679E+03  0.40301789679E+03  0.00000000000E+00 0.  1.
          2   -1    0    0  501    0  0.00000000000E+00 -0.00000000000E+00 -0.25749177044E+04  0.25749177044E+04  0.00000000000E+00 0. -1.
         23    2    1    2    0    0  0.73604589021E+03 -0.21201900115E+03 -0.20652897261E+04  0.22045784270E+04  0.89603452828E+02 0.  0.
         13    1    3    3    0    0  0.52740873796E+03 -0.12424464998E+03 -0.13647900521E+04  0.14684170376E+04  0.00000000000E+00 0. -1.
        -13    1    3    3    0    0  0.20863715225E+03 -0.87774351173E+02 -0.70049967399E+03  0.73616138943E+03  0.00000000000E+00 0.  1.
         22    1    1    2    0    0 -0.73604589021E+03  0.21201900115E+03 -0.10661008150E+03  0.77335717416E+03  0.00000000000E+00 0.  1.
<mgrwt>
<rscale>  0 0.20373884E+04</rscale>
<asrwt>0</asrwt>
<pdfrwt beam="1">  1        2 0.39614120E+00 0.20373884E+04</pdfrwt>
<pdfrwt beam="2">  1       -2 0.62002752E-01 0.20373884E+04</pdfrwt>
<totfact> 0.70478054E+00</totfact>
</mgrwt>
</event>
<event>
 6    1  0.1885829E-005  0.3904891E+04  0.7818608E-02  0.8024013E-01
         -2   -1    0    0    0  501 -0.00000000000E+00  0.00000000000E+00  0.12539750203E+04  0.12539750203E+04  0.00000000000E+00 0.  1.
          2   -1    0    0  501    0  0.00000000000E+00 -0.00000000000E+00 -0.30399682150E+04  0.30399682150E+04  0.00000000000E+00 0. -1.
         23    2    1    2    0    0 -0.83728040994E+03  0.74553419244E+03 -0.26497452201E+04  0.28786951021E+04  0.94212751357E+02 0.  0.
         11    1    3    3    0    0 -0.22938979161E+03  0.25363130120E+03 -0.86544849904E+03  0.93056413961E+03  0.00000000000E+00 0. -1.
        -11    1    3    3    0    0 -0.60789061833E+03  0.49190289125E+03 -0.17842967211E+04  0.19481309625E+04  0.00000000000E+00 0.  1.
         22    1    1    2    0    0  0.83728040994E+03 -0.74553419244E+03  0.86375202550E+03  0.14152481332E+04  0.00000000000E+00 0.  1.
<mgrwt>
<rscale>  0 0.39048914E+04</rscale>
<asrwt>0</asrwt>
<pdfrwt beam="1">  1        2 0.46768741E+00 0.39048914E+04</pdfrwt>
<pdfrwt beam="2">  1       -2 0.19291924E+00 0.39048914E+04</pdfrwt>
<totfact> 0.19341493E-01</totfact>
</mgrwt>
</event>
<event>
 6    1  0.1885829E-005  0.4806903E+04  0.7818608E-02  0.7859005E-01
         -2   -1    0    0    0  501 -0.00000000000E+00  0.00000000000E+00  0.41044797978E+04  0.41044797978E+04  0.00000000000E+00 0. -1.
          2   -1    0    0  501    0  0.00000000000E+00 -0.00000000000E+00 -0.14073841283E+04  0.14073841283E+04  0.00000000000E+00 0.  1.
         23    2    1    2    0    0  0.17907264723E+04 -0.11748200422E+04  0.10047214573E+03  0.21459528824E+04  0.90087131020E+02 0.  0.
         11    1    3    3    0    0  0.96977946090E+03 -0.60675374319E+03  0.91265723899E+02  0.11475851777E+04  0.00000000000E+00 0.  1.
        -11    1    3    3    0    0  0.82094701145E+03 -0.56806629901E+03  0.92064218305E+01  0.99836770475E+03  0.00000000000E+00 0. -1.
         22    1    1    2    0    0 -0.17907264723E+04  0.11748200422E+04  0.25966235238E+04  0.33659110438E+04  0.00000000000E+00 0. -1.
<mgrwt>
<rscale>  0 0.48069033E+04</rscale>
<asrwt>0</asrwt>
<pdfrwt beam="1">  1        2 0.21652064E+00 0.48069033E+04</pdfrwt>
<pdfrwt beam="2">  1       -2 0.63145843E+00 0.48069033E+04</pdfrwt>
<totfact> 0.41507073E-03</totfact>
</mgrwt>
</event>
<event>
 6    1  0.1885829E-005  0.2468181E+04  0.7818608E-02  0.8414410E-01
         -2   -1    0    0    0  501 -0.00000000000E+00  0.00000000000E+00  0.84957176489E+03  0.84957176489E+03  0.00000000000E+00 0.  1.
          2   -1    0    0  501    0  0.00000000000E+00 -0.00000000000E+00 -0.17926428736E+04  0.17926428736E+04  0.00000000000E+00 0. -1.
         23    2    1    2    0    0 -0.91611179223E+03 -0.82391032924E+03 -0.50330136984E+03  0.13339767130E+04  0.89958631658E+02 0.  0.
         13    1    3    3    0    0 -0.20250101399E+02 -0.25481865149E+02  0.34045650581E+00  0.32550084006E+02  0.00000000000E+00 0. -1.
        -13    1    3    3    0    0 -0.89586169083E+03 -0.79842846409E+03 -0.50364182635E+03  0.13014266290E+04  0.00000000000E+00 0.  1.
         22    1    1    2    0    0  0.91611179223E+03  0.82391032924E+03 -0.43976973885E+03  0.13082379255E+04  0.00000000000E+00 0.  1.
<mgrwt>
<rscale>  0 0.24681805E+04</rscale>
<asrwt>0</asrwt>
<pdfrwt beam="1">  1        2 0.27579121E+00 0.24681805E+04</pdfrwt>
<pdfrwt beam="2">  1       -2 0.13070335E+00 0.24681805E+04</pdfrwt>
<totfact> 0.33371292E+00</totfact>
</mgrwt>
</event>
<event>
 6    1  0.1885829E-005  0.2144899E+04  0.7818608E-02  0.8541719E-01
          2   -1    0    0  501    0  0.00000000000E+00  0.00000000000E+00  0.15171245284E+04  0.15171245284E+04  0.00000000000E+00 0. -1.
         -2   -1    0    0    0  501 -0.00000000000E+00 -0.00000000000E+00 -0.75811070764E+03  0.75811070764E+03  0.00000000000E+00 0.  1.
         23    2    1    2    0    0 -0.95789447605E+03 -0.47660758008E+03  0.34818497913E+03  0.11291562903E+04  0.95102763592E+02 0.  0.
         11    1    3    3    0    0 -0.10396870037E+03 -0.28300545882E+02  0.55889921163E+02  0.12138407986E+03  0.00000000000E+00 0. -1.
        -11    1    3    3    0    0 -0.85392577568E+03 -0.44830703420E+03  0.29229505797E+03  0.10077722105E+04  0.00000000000E+00 0.  1.
         22    1    1    2    0    0  0.95789447605E+03  0.47660758008E+03  0.41082884159E+03  0.11460789457E+04  0.00000000000E+00 0. -1.
<mgrwt>
<rscale>  0 0.21448994E+04</rscale>
<asrwt>0</asrwt>
<pdfrwt beam="1">  1        2 0.23340377E+00 0.21448994E+04</pdfrwt>
<pdfrwt beam="2">  1       -2 0.11663242E+00 0.21448994E+04</pdfrwt>
<totfact> 0.64942466E+00</totfact>
</mgrwt>
</event>
<event>
 6    1  0.1885829E-005  0.1270324E+04  0.7818608E-02  0.9053436E-01
         -2   -1    0    0    0  501 -0.00000000000E+00  0.00000000000E+00  0.16703664722E+03  0.16703664722E+03  0.00000000000E+00 0.  1.
          2   -1    0    0  501    0  0.00000000000E+00 -0.00000000000E+00 -0.24152219332E+04  0.24152219332E+04  0.00000000000E+00 0. -1.
         23    2    1    2    0    0  0.42787517070E+03  0.24724441860E+03 -0.19305784910E+04  0.19948225920E+04  0.89313490111E+02 0.  0.
         11    1    3    3    0    0  0.19880396173E+03  0.11525173514E+03 -0.10768402645E+04  0.11010862513E+04  0.00000000000E+00 0.  1.
        -11    1    3    3    0    0  0.22907120897E+03  0.13199268345E+03 -0.85373822646E+03  0.89373634064E+03  0.00000000000E+00 0. -1.
         22    1    1    2    0    0 -0.42787517070E+03 -0.24724441860E+03 -0.31760679498E+03  0.58743598838E+03  0.00000000000E+00 0.  1.
<mgrwt>
<rscale>  0 0.12703237E+04</rscale>
<asrwt>0</asrwt>
<pdfrwt beam="1">  1        2 0.37157262E+00 0.12703237E+04</pdfrwt>
<pdfrwt beam="2">  1       -2 0.25697944E-01 0.12703237E+04</pdfrwt>
<totfact> 0.52439966E+01</totfact>
</mgrwt>
</event>
<event>
 6    1  0.1885829E-005  0.2197513E+04  0.7818608E-02  0.8519464E-01
         -1   -1    0    0    0  501 -0.00000000000E+00  0.00000000000E+00  0.56047405661E+03  0.56047405661E+03  0.00000000000E+00 0.  1.
          1   -1    0    0  501    0  0.00000000000E+00 -0.00000000000E+00 -0.21540076438E+04  0.21540076438E+04  0.00000000000E+00 0. -1.
         23    2    1    2    0    0 -0.21347412249E+03  0.10736468084E+04 -0.70998975796E+03  0.13077342575E+04  0.88287947335E+02 0.  0.
         11    1    3    3    0    0 -0.18090818477E+03  0.69595414417E+03 -0.47029929512E+03  0.85922137374E+03  0.00000000000E+00 0. -1.
        -11    1    3    3    0    0 -0.32565937723E+02  0.37769266420E+03 -0.23969046284E+03  0.44851288372E+03  0.00000000000E+00 0.  1.
         22    1    1    2    0    0  0.21347412249E+03 -0.10736468084E+04 -0.88354382924E+03  0.14067474430E+04  0.00000000000E+00 0.  1.
<mgrwt>
<rscale>  0 0.21975126E+04</rscale>
<asrwt>0</asrwt>
<pdfrwt beam="1">  1        1 0.33138579E+00 0.21975126E+04</pdfrwt>
<pdfrwt beam="2">  1       -1 0.86226777E-01 0.21975126E+04</pdfrwt>
<totfact> 0.28332989E+00</totfact>
</mgrwt>
</event>
<event>
 6    1  0.1885829E-005  0.4542335E+04  0.7818608E-02  0.7903267E-01
         -2   -1    0    0    0  501 -0.00000000000E+00  0.00000000000E+00  0.29072133623E+04  0.29072133623E+04  0.00000000000E+00 0.  1.
          2   -1    0    0  501    0  0.00000000000E+00 -0.00000000000E+00 -0.17742766934E+04  0.17742766934E+04  0.00000000000E+00 0. -1.
         23    2    1    2    0    0 -0.10491106139E+04  0.53066740207E+03  0.25683011296E+04  0.28260892616E+04  0.91481418224E+02 0.  0.
         13    1    3    3    0    0 -0.38423876427E+03  0.16416843943E+03  0.83042558482E+03  0.92962215787E+03  0.00000000000E+00 0. -1.
        -13    1    3    3    0    0 -0.66487184967E+03  0.36649896264E+03  0.17378755448E+04  0.18964671037E+04  0.00000000000E+00 0.  1.
         22    1    1    2    0    0  0.10491106139E+04 -0.53066740207E+03 -0.14353644607E+04  0.18554007942E+04  0.00000000000E+00 0. -1.
<mgrwt>
<rscale>  0 0.45423346E+04</rscale>
<asrwt>0</asrwt>
<pdfrwt beam="1">  1        2 0.27296564E+00 0.45423346E+04</pdfrwt>
<pdfrwt beam="2">  1       -2 0.44726360E+00 0.45423346E+04</pdfrwt>
<totfact> 0.24398959E-02</totfact>
</mgrwt>
</event>
<event>
 6    1  0.1885829E-005  0.2040635E+04  0.7818608E-02  0.8587854E-01
         -2   -1    0    0    0  501 -0.00000000000E+00  0.00000000000E+00  0.82746079922E+03  0.82746079922E+03  0.00000000000E+00 0.  1.
          2   -1    0    0  501    0  0.00000000000E+00 -0.00000000000E+00 -0.12581240238E+04  0.12581240238E+04  0.00000000000E+00 0. -1.
         23    2    1    2    0    0  0.16290111606E+03  0.99819748557E+03 -0.33808838417E+03  0.10699544302E+04  0.86969726196E+02 0.  0.
         13    1    3    3    0    0  0.23949074130E+02  0.11938256252E+03 -0.71224957366E+02  0.14106292545E+03  0.00000000000E+00 0. -1.
        -13    1    3    3    0    0  0.13895204193E+03  0.87881492306E+03 -0.26686342681E+03  0.92889150470E+03  0.00000000000E+00 0.  1.
         22    1    1    2    0    0 -0.16290111606E+03 -0.99819748557E+03 -0.92574840402E+02  0.10156303929E+04  0.00000000000E+00 0.  1.
<mgrwt>
<rscale>  0 0.20406355E+04</rscale>
<asrwt>0</asrwt>
<pdfrwt beam="1">  1        2 0.19355754E+00 0.20406355E+04</pdfrwt>
<pdfrwt beam="2">  1       -2 0.12730166E+00 0.20406355E+04</pdfrwt>
<totfact> 0.74197260E+00</totfact>
</mgrwt>
</event>
<event>
 6    1  0.1885829E-005  0.7199730E+03  0.7818608E-02  0.9683672E-01
         -2   -1    0    0    0  501 -0.00000000000E+00  0.00000000000E+00  0.78729370263E+03  0.78729370263E+03  0.00000000000E+00 0.  1.
          2   -1    0    0  501    0  0.00000000000E+00 -0.00000000000E+00 -0.16460220682E+03  0.16460220682E+03  0.00000000000E+00 0. -1.
         23    2    1    2    0    0  0.20829200285E+03  0.65889956127E+01 -0.64367079593E+02  0.23392762370E+03  0.84557902523E+02 0.  0.
         11    1    3    3    0    0  0.12654844542E+03  0.34109858182E+02 -0.88717197611E+01  0.13136475507E+03  0.00000000000E+00 0.  1.
        -11    1    3    3    0    0  0.81743557426E+02 -0.27520862569E+02 -0.55495359832E+02  0.10256286862E+03  0.00000000000E+00 0. -1.
         22    1    1    2    0    0 -0.20829200285E+03 -0.65889956127E+01  0.68705857541E+03  0.71796828576E+03  0.00000000000E+00 0.  1.
<mgrwt>
<rscale>  0 0.71997300E+03</rscale>
<asrwt>0</asrwt>
<pdfrwt beam="1">  1        2 0.25323417E-01 0.71997300E+03</pdfrwt>
<pdfrwt beam="2">  1       -2 0.12112211E+00 0.71997300E+03</pdfrwt>
<totfact> 0.11319739E+02</totfact>
</mgrwt>
</event>
<event>
 6    1  0.1885829E-005  0.4159457E+04  0.7818608E-02  0.7973129E-01
          2   -1    0    0  501    0  0.00000000000E+00  0.00000000000E+00  0.15309135477E+04  0.15309135477E+04  0.00000000000E+00 0.  1.
         -2   -1    0    0    0  501 -0.00000000000E+00 -0.00000000000E+00 -0.28252877734E+04  0.28252877734E+04  0.00000000000E+00 0. -1.
         23    2    1    2    0    0  0.86657228529E+03 -0.67291740980E+03  0.12016430664E+04  0.16296893207E+04  0.90420445788E+02 0.  0.
         13    1    3    3    0    0  0.68042898878E+03 -0.51673533780E+03  0.98741136355E+03  0.13057489111E+04  0.00000000000E+00 0. -1.
        -13    1    3    3    0    0  0.18614329651E+03 -0.15618207201E+03  0.21423170286E+03  0.32394040958E+03  0.00000000000E+00 0.  1.
         22    1    1    2    0    0 -0.86657228529E+03  0.67291740980E+03 -0.24960172920E+04  0.27265120004E+04  0.00000000000E+00 0. -1.
<mgrwt>
<rscale>  0 0.41594573E+04</rscale>
<asrwt>0</asrwt>
<pdfrwt beam="1">  1        2 0.23552516E+00 0.41594573E+04</pdfrwt>
<pdfrwt beam="2">  1       -2 0.43465966E+00 0.41594573E+04</pdfrwt>
<totfact> 0.41649895E-02</totfact>
</mgrwt>
</event>
<event>
 6    1  0.1885829E-005  0.1386894E+04  0.7818608E-02  0.8963360E-01
          2   -1    0    0  501    0  0.00000000000E+00  0.00000000000E+00  0.87029487104E+03  0.87029487104E+03  0.00000000000E+00 0. -1.
         -2   -1    0    0    0  501 -0.00000000000E+00 -0.00000000000E+00 -0.55253545560E+03  0.55253545560E+03  0.00000000000E+00 0.  1.
         23    2    1    2    0    0  0.65344724688E+02 -0.36642315847E+03 -0.43690767833E+03  0.58136833312E+03  0.92547043506E+02 0.  0.
         13    1    3    3    0    0 -0.68423171906E+01 -0.18389347006E+03 -0.17389515216E+03  0.25318599799E+03  0.00000000000E+00 0. -1.
        -13    1    3    3    0    0  0.72187041878E+02 -0.18252968841E+03 -0.26301252617E+03  0.32818233513E+03  0.00000000000E+00 0.  1.
         22    1    1    2    0    0 -0.65344724688E+02  0.36642315847E+03  0.75466709378E+03  0.84146199352E+03  0.00000000000E+00 0. -1.
<mgrwt>
<rscale>  0 0.13868940E+04</rscale>
<asrwt>0</asrwt>
<pdfrwt beam="1">  1        2 0.13389152E+00 0.13868940E+04</pdfrwt>
<pdfrwt beam="2">  1       -2 0.85005455E-01 0.13868940E+04</pdfrwt>
<totfact> 0.36073712E+01</totfact>
</mgrwt>
</event>
<event>
 6    1  0.1885829E-005  0.4033162E+04  0.7818608E-02  0.7997890E-01
          2   -1    0    0  501    0  0.00000000000E+00  0.00000000000E+00  0.21290559844E+04  0.21290559844E+04  0.00000000000E+00 0. -1.
         -2   -1    0    0    0  501 -0.00000000000E+00 -0.00000000000E+00 -0.19100477177E+04  0.19100477177E+04  0.00000000000E+00 0.  1.
         23    2    1    2    0    0  0.88028355984E+03 -0.17443989062E+04  0.60520718852E+03  0.20473767387E+04  0.87459016435E+02 0.  0.
         13    1    3    3    0    0  0.61593732071E+03 -0.11383636784E+04  0.38123197817E+03  0.13492918397E+04  0.00000000000E+00 0.  1.
        -13    1    3    3    0    0  0.26434623913E+03 -0.60603522776E+03  0.22397521035E+03  0.69808489905E+03  0.00000000000E+00 0. -1.
         22    1    1    2    0    0 -0.88028355984E+03  0.17443989062E+04 -0.38619892188E+03  0.19917269634E+04  0.00000000000E+00 0. -1.
<mgrwt>
<rscale>  0 0.40331618E+04</rscale>
<asrwt>0</asrwt>
<pdfrwt beam="1">  1        2 0.32754708E+00 0.40331618E+04</pdfrwt>
<pdfrwt beam="2">  1       -2 0.29385349E+00 0.40331618E+04</pdfrwt>
<totfact> 0.15434311E-01</totfact>
</mgrwt>
</event>
<event>
 6    1  0.1885829E-005  0.7752833E+03  0.7818608E-02  0.9596499E-01
          2   -1    0    0  501    0  0.00000000000E+00  0.00000000000E+00  0.74295183528E+03  0.74295183528E+03  0.00000000000E+00 0. -1.
         -2   -1    0    0    0  501 -0.00000000000E+00 -0.00000000000E+00 -0.20225542167E+03  0.20225542167E+03  0.00000000000E+00 0.  1.
         23    2    1    2    0    0 -0.12135811919E+03 -0.27654436722E+03 -0.11333630903E+02  0.31596823228E+03  0.92211129954E+02 0.  0.
         11    1    3    3    0    0 -0.29770177533E+02 -0.11300283019E+03 -0.45563919777E+02  0.12542716566E+03  0.00000000000E+00 0.  1.
        -11    1    3    3    0    0 -0.91587941659E+02 -0.16354153703E+03  0.34230288874E+02  0.19054106662E+03  0.00000000000E+00 0. -1.
         22    1    1    2    0    0  0.12135811919E+03  0.27654436722E+03  0.55203004451E+03  0.62923902467E+03  0.00000000000E+00 0. -1.
<mgrwt>
<rscale>  0 0.77528327E+03</rscale>
<asrwt>0</asrwt>
<pdfrwt beam="1">  1        2 0.11430028E+00 0.77528327E+03</pdfrwt>
<pdfrwt beam="2">  1       -2 0.31116219E-01 0.77528327E+03</pdfrwt>
<totfact> 0.36537224E+02</totfact>
</mgrwt>
</event>
<event>
 6    1  0.1885829E-005  0.2233567E+04  0.7818608E-02  0.8504585E-01
         -2   -1    0    0    0  501 -0.00000000000E+00  0.00000000000E+00  0.23885105249E+03  0.23885105249E+03  0.00000000000E+00 0.  1.
          2   -1    0    0  501    0  0.00000000000E+00 -0.00000000000E+00 -0.52216847104E+04  0.52216847104E+04  0.00000000000E+00 0. -1.
         23    2    1    2    0    0  0.25773958280E+03  0.57327357843E+03 -0.47468762665E+04  0.47891579417E+04  0.90151054713E+02 0.  0.
         11    1    3    3    0    0  0.20562391284E+03  0.48074490549E+03 -0.36704485936E+04  0.37075045160E+04  0.00000000000E+00 0.  1.
        -11    1    3    3    0    0  0.52115669961E+02  0.92528672941E+02 -0.10764276729E+04  0.10816534257E+04  0.00000000000E+00 0. -1.
         22    1    1    2    0    0 -0.25773958280E+03 -0.57327357843E+03 -0.23595739141E+03  0.67137782122E+03  0.00000000000E+00 0.  1.
<mgrwt>
<rscale>  0 0.22335666E+04</rscale>
<asrwt>0</asrwt>
<pdfrwt beam="1">  1        2 0.80333604E+00 0.22335666E+04</pdfrwt>
<pdfrwt beam="2">  1       -2 0.36746319E-01 0.22335666E+04</pdfrwt>
<totfact> 0.11128189E-01</totfact>
</mgrwt>
</event>
<event>
 6    1  0.1885829E-005  0.4454961E+04  0.7818608E-02  0.7918570E-01
         -2   -1    0    0    0  501 -0.00000000000E+00  0.00000000000E+00  0.12728886084E+04  0.12728886084E+04  0.00000000000E+00 0.  1.
          2   -1    0    0  501    0  0.00000000000E+00 -0.00000000000E+00 -0.38979600615E+04  0.38979600615E+04  0.00000000000E+00 0. -1.
         23    2    1    2    0    0  0.10649441647E+04 -0.17335579506E+04 -0.23629359917E+04  0.31194968613E+04  0.92005026338E+02 0.  0.
         13    1    3    3    0    0  0.43087965256E+03 -0.65360884741E+03 -0.85245443802E+03  0.11573851430E+04  0.00000000000E+00 0. -1.
        -13    1    3    3    0    0  0.63406451219E+03 -0.10799491032E+04 -0.15104815537E+04  0.19621117183E+04  0.00000000000E+00 0.  1.
         22    1    1    2    0    0 -0.10649441647E+04  0.17335579506E+04 -0.26213546137E+03  0.20513518085E+04  0.00000000000E+00 0.  1.
<mgrwt>
<rscale>  0 0.44549608E+04</rscale>
<asrwt>0</asrwt>
<pdfrwt beam="1">  1        2 0.59968616E+00 0.44549608E+04</pdfrwt>
<pdfrwt beam="2">  1       -2 0.19582902E+00 0.44549608E+04</pdfrwt>
<totfact> 0.44302402E-02</totfact>
</mgrwt>
</event>
<event>
 6    1  0.1885829E-005  0.1457243E+04  0.7818608E-02  0.8913394E-01
          2   -1    0    0  501    0  0.00000000000E+00  0.00000000000E+00  0.17367227454E+04  0.17367227454E+04  0.00000000000E+00 0.  1.
         -2   -1    0    0    0  501 -0.00000000000E+00 -0.00000000000E+00 -0.30568452063E+03  0.30568452063E+03  0.00000000000E+00 0. -1.
         23    2    1    2    0    0  0.42290266129E+03 -0.58853295587E+03  0.66409034225E+03  0.98721687774E+03  0.91452063687E+02 0.  0.
         11    1    3    3    0    0  0.26764687363E+03 -0.34577697869E+03  0.45606700981E+03  0.63181776281E+03  0.00000000000E+00 0. -1.
        -11    1    3    3    0    0  0.15525578766E+03 -0.24275597718E+03  0.20802333244E+03  0.35539911493E+03  0.00000000000E+00 0.  1.
         22    1    1    2    0    0 -0.42290266129E+03  0.58853295587E+03  0.76694788254E+03  0.10551903883E+04  0.00000000000E+00 0.  1.
<mgrwt>
<rscale>  0 0.14572430E+04</rscale>
<asrwt>0</asrwt>
<pdfrwt beam="1">  1        2 0.26718811E+00 0.14572430E+04</pdfrwt>
<pdfrwt beam="2">  1       -2 0.47028389E-01 0.14572430E+04</pdfrwt>
<totfact> 0.38863189E+01</totfact>
</mgrwt>
</event>
<event>
 6    1  0.1885829E-005  0.2598486E+04  0.7818608E-02  0.8368716E-01
         -2   -1    0    0    0  501 -0.00000000000E+00  0.00000000000E+00  0.12898378328E+04  0.12898378328E+04  0.00000000000E+00 0.  1.
          2   -1    0    0  501    0  0.00000000000E+00 -0.00000000000E+00 -0.13087165215E+04  0.13087165215E+04  0.00000000000E+00 0. -1.
         23    2    1    2    0    0  0.96438214735E+03 -0.27891868055E+03  0.81311108549E+03  0.12947002440E+04  0.85267390472E+02 0.  0.
         13    1    3    3    0    0  0.52156548874E+03 -0.19379614525E+03  0.43656354631E+03  0.70723068014E+03  0.00000000000E+00 0. -1.
        -13    1    3    3    0    0  0.44281665861E+03 -0.85122535303E+02  0.37654753918E+03  0.58746956383E+03  0.00000000000E+00 0.  1.
         22    1    1    2    0    0 -0.96438214735E+03  0.27891868055E+03 -0.83198977421E+03  0.13038541103E+04  0.00000000000E+00 0. -1.
<mgrwt>
<rscale>  0 0.25984858E+04</rscale>
<asrwt>0</asrwt>
<pdfrwt beam="1">  1        2 0.20134100E+00 0.25984858E+04</pdfrwt>
<pdfrwt beam="2">  1       -2 0.19843659E+00 0.25984858E+04</pdfrwt>
<totfact> 0.19686647E+00</totfact>
</mgrwt>
</event>
<event>
 6    1  0.1885829E-005  0.3029381E+04  0.7818608E-02  0.8235390E-01
          2   -1    0    0  501    0  0.00000000000E+00  0.00000000000E+00  0.18688194025E+04  0.18688194025E+04  0.00000000000E+00 0. -1.
         -2   -1    0    0    0  501 -0.00000000000E+00 -0.00000000000E+00 -0.12276668862E+04  0.12276668862E+04  0.00000000000E+00 0.  1.
         23    2    1    2    0    0 -0.67500326929E+03  0.53354747856E+03 -0.95128371331E+03  0.12864709654E+04  0.98815566726E+02 0.  0.
         11    1    3    3    0    0 -0.15789718415E+03  0.94619519171E+02 -0.15653603026E+03  0.24163588918E+03  0.00000000000E+00 0.  1.
        -11    1    3    3    0    0 -0.51710608514E+03  0.43892795939E+03 -0.79474768306E+03  0.10448350762E+04  0.00000000000E+00 0. -1.
         22    1    1    2    0    0  0.67500326929E+03 -0.53354747856E+03  0.15924362296E+04  0.18100153233E+04  0.00000000000E+00 0. -1.
<mgrwt>
<rscale>  0 0.30293813E+04</rscale>
<asrwt>0</asrwt>
<pdfrwt beam="1">  1        2 0.28751068E+00 0.30293813E+04</pdfrwt>
<pdfrwt beam="2">  1       -2 0.18887183E+00 0.30293813E+04</pdfrwt>
<totfact> 0.10645237E+00</totfact>
</mgrwt>
</event>
<event>
 6    1  0.1885829E-005  0.4515920E+04  0.7818608E-02  0.7907856E-01
         -2   -1    0    0    0  501 -0.00000000000E+00  0.00000000000E+00  0.21271725306E+04  0.21271725306E+04  0.00000000000E+00 0.  1.
          2   -1    0    0  501    0  0.00000000000E+00 -0.00000000000E+00 -0.23967890840E+04  0.23967890840E+04  0.00000000000E+00 0. -1.
         23    2    1    2    0    0  0.39521028215E+03  0.16641773189E+04 -0.16098346096E+04  0.23509770877E+04  0.99239513016E+02 0.  0.
         13    1    3    3    0    0  0.22279526505E+03  0.72947834467E+03 -0.73096358540E+03  0.10564488386E+04  0.00000000000E+00 0.  1.
        -13    1    3    3    0    0  0.17241501710E+03  0.93469897422E+03 -0.87887102415E+03  0.12945282491E+04  0.00000000000E+00 0. -1.
         22    1    1    2    0    0 -0.39521028215E+03 -0.16641773189E+04  0.13402180562E+04  0.21729845269E+04  0.00000000000E+00 0.  1.
<mgrwt>
<rscale>  0 0.45159202E+04</rscale>
<asrwt>0</asrwt>
<pdfrwt beam="1">  1        2 0.36873678E+00 0.45159202E+04</pdfrwt>
<pdfrwt beam="2">  1       -2 0.32725731E+00 0.45159202E+04</pdfrwt>
<totfact> 0.65225945E-02</totfact>
</mgrwt>
</event>
<event>
 6    1  0.1885829E-005  0.5118034E+03  0.7818608E-02  0.1010743E+00
         -2   -1    0    0    0  501 -0.00000000000E+00  0.00000000000E+00  0.79337703471E+02  0.79337703471E+02  0.00000000000E+00 0. -1.
          2   -1    0    0  501    0  0.00000000000E+00 -0.00000000000E+00 -0.82540424415E+03  0.82540424415E+03  0.00000000000E+00 0.  1.
         23    2    1    2    0    0 -0.44837473073E+02  0.19015542051E+03 -0.65423963336E+03  0.68886776239E+03  0.91322578074E+02 0.  0.
         13    1    3    3    0    0 -0.74888101875E+01  0.13482788182E+03 -0.30875177333E+03  0.33699005554E+03  0.00000000000E+00 0. -1.
        -13    1    3    3    0    0 -0.37348662886E+02  0.55327538684E+02 -0.34548786003E+03  0.35187770686E+03  0.00000000000E+00 0.  1.
         22    1    1    2    0    0  0.44837473073E+02 -0.19015542051E+03 -0.91826907317E+02  0.21587418523E+03  0.00000000000E+00 0. -1.
<mgrwt>
<rscale>  0 0.51180339E+03</rscale>
<asrwt>0</asrwt>
<pdfrwt beam="1">  1        2 0.12698527E+00 0.51180339E+03</pdfrwt>
<pdfrwt beam="2">  1       -2 0.12205800E-01 0.51180339E+03</pdfrwt>
<totfact> 0.16399258E+03</totfact>
</mgrwt>
</event>
<event>
 6    1  0.1885829E-005  0.3547320E+04  0.7818608E-02  0.8102666E-01
          2   -1    0    0  501    0  0.00000000000E+00  0.00000000000E+00  0.22169896355E+04  0.22169896355E+04  0.00000000000E+00 0. -1.
         -2   -1    0    0    0  501 -0.00000000000E+00 -0.00000000000E+00 -0.14189829062E+04  0.14189829062E+04  0.00000000000E+00 0.  1.
         23    2    1    2    0    0  0.87468849739E+02  0.13965440850E+04  0.15144374901E+04  0.20639486182E+04  0.91524893448E+02 0.  0.
         13    1    3    3    0    0  0.63281953869E+02  0.38025587950E+03  0.43239761104E+03  0.57928130784E+03  0.00000000000E+00 0.  1.
        -13    1    3    3    0    0  0.24186895869E+02  0.10162882055E+04  0.10820398790E+04  0.14846673103E+04  0.00000000000E+00 0. -1.
         22    1    1    2    0    0 -0.87468849739E+02 -0.13965440850E+04 -0.71643076075E+03  0.15720239235E+04  0.00000000000E+00 0.  1.
<mgrwt>
<rscale>  0 0.35473203E+04</rscale>
<asrwt>0</asrwt>
<pdfrwt beam="1">  1        2 0.34107533E+00 0.35473203E+04</pdfrwt>
<pdfrwt beam="2">  1       -2 0.21830506E+00 0.35473203E+04</pdfrwt>
<totfact> 0.41891801E-01</totfact>
</mgrwt>
</event>
<event>
 6    1  0.1885829E-005  0.3063663E+04  0.7818608E-02  0.8225782E-01
          2   -1    0    0  501    0  0.00000000000E+00  0.00000000000E+00  0.34483710460E+04  0.34483710460E+04  0.00000000000E+00 0.  1.
         -2   -1    0    0    0  501 -0.00000000000E+00 -0.00000000000E+00 -0.68046848909E+03  0.68046848909E+03  0.00000000000E+00 0. -1.
         23    2    1    2    0    0  0.35758286387E+03  0.13410930229E+04  0.22543724680E+04  0.26489377976E+04  0.90995770620E+02 0.  0.
         11    1    3    3    0    0  0.10835991111E+03  0.32288461045E+03  0.61685991597E+03  0.70463642961E+03  0.00000000000E+00 0. -1.
        -11    1    3    3    0    0  0.24922295276E+03  0.10182084125E+04  0.16375125520E+04  0.19443013679E+04  0.00000000000E+00 0.  1.
         22    1    1    2    0    0 -0.35758286387E+03 -0.13410930229E+04  0.51353008897E+03  0.14799017376E+04  0.00000000000E+00 0. -1.
<mgrwt>
<rscale>  0 0.30636631E+04</rscale>
<asrwt>0</asrwt>
<pdfrwt beam="1">  1        2 0.53051861E+00 0.30636631E+04</pdfrwt>
<pdfrwt beam="2">  1       -2 0.10468746E+00 0.30636631E+04</pdfrwt>
<totfact> 0.55624376E-01</totfact>
</mgrwt>
</event>
<event>
 6    1  0.1885829E-005  0.1759263E+04  0.7818608E-02  0.8728268E-01
         -2   -1    0    0    0  501 -0.00000000000E+00  0.00000000000E+00  0.97507110595E+03  0.97507110595E+03  0.00000000000E+00 0.  1.
          2   -1    0    0  501    0  0.00000000000E+00 -0.00000000000E+00 -0.79353389489E+03  0.79353389489E+03  0.00000000000E+00 0. -1.
         23    2    1    2    0    0  0.86117271457E+03 -0.50736705858E+02 -0.69818584591E+02  0.87006596794E+03  0.89148730680E+02 0.  0.
         13    1    3    3    0    0  0.34155092480E+03 -0.31551500953E+02 -0.70075105305E+02  0.35009006245E+03  0.00000000000E+00 0.  1.
        -13    1    3    3    0    0  0.51962178977E+03 -0.19185204905E+02  0.25652071408E+00  0.51997590549E+03  0.00000000000E+00 0. -1.
         22    1    1    2    0    0 -0.86117271457E+03  0.50736705858E+02  0.25135579565E+03  0.89853903290E+03  0.00000000000E+00 0.  1.
<mgrwt>
<rscale>  0 0.17592635E+04</rscale>
<asrwt>0</asrwt>
<pdfrwt beam="1">  1        2 0.12208214E+00 0.17592635E+04</pdfrwt>
<pdfrwt beam="2">  1       -2 0.15001094E+00 0.17592635E+04</pdfrwt>
<totfact> 0.98752919E+00</totfact>
</mgrwt>
</event>
<event>
 6    1  0.1885829E-005  0.2269650E+04  0.7818608E-02  0.8489985E-01
          2   -1    0    0  501    0  0.00000000000E+00  0.00000000000E+00  0.21577270062E+04  0.21577270062E+04  0.00000000000E+00 0. -1.
         -2   -1    0    0    0  501 -0.00000000000E+00 -0.00000000000E+00 -0.59684485069E+03  0.59684485069E+03  0.00000000000E+00 0.  1.
         23    2    1    2    0    0  0.72068693309E+02  0.11147965001E+04  0.10108147162E+04  0.15093653195E+04  0.92044249477E+02 0.  0.
         13    1    3    3    0    0  0.11258585163E+02  0.51961637402E+03  0.52413138542E+03  0.73813389102E+03  0.00000000000E+00 0. -1.
        -13    1    3    3    0    0  0.60810108146E+02  0.59518012606E+03  0.48668333082E+03  0.77123142843E+03  0.00000000000E+00 0.  1.
         22    1    1    2    0    0 -0.72068693309E+02 -0.11147965001E+04  0.55006743929E+03  0.12452065375E+04  0.00000000000E+00 0.  1.
<mgrwt>
<rscale>  0 0.22696504E+04</rscale>
<asrwt>0</asrwt>
<pdfrwt beam="1">  1        2 0.33195800E+00 0.22696504E+04</pdfrwt>
<pdfrwt beam="2">  1       -2 0.91822286E-01 0.22696504E+04</pdfrwt>
<totfact> 0.50005560E+00</totfact>
</mgrwt>
</event>
<event>
 6    1  0.1885829E-005  0.2499008E+04  0.7818608E-02  0.8403339E-01
         -2   -1    0    0    0  501 -0.00000000000E+00  0.00000000000E+00  0.20243479018E+04  0.20243479018E+04  0.00000000000E+00 0.  1.
          2   -1    0    0  501    0  0.00000000000E+00 -0.00000000000E+00 -0.77124125971E+03  0.77124125971E+03  0.00000000000E+00 0. -1.
         23    2    1    2    0    0 -0.11249920252E+04 -0.45069462682E+02  0.12293615591E+04  0.16694443475E+04  0.89868087699E+02 0.  0.
         11    1    3    3    0    0 -0.23380583576E+03 -0.32566524579E+02  0.30059771033E+03  0.38221032274E+03  0.00000000000E+00 0. -1.
        -11    1    3    3    0    0 -0.89118618940E+03 -0.12502938102E+02  0.92876384879E+03  0.12872340247E+04  0.00000000000E+00 0.  1.
         22    1    1    2    0    0  0.11249920252E+04  0.45069462682E+02  0.23745082958E+02  0.11261448140E+04  0.00000000000E+00 0. -1.
<mgrwt>
<rscale>  0 0.24990083E+04</rscale>
<asrwt>0</asrwt>
<pdfrwt beam="1">  1        2 0.11865250E+00 0.24990083E+04</pdfrwt>
<pdfrwt beam="2">  1       -2 0.31143814E+00 0.24990083E+04</pdfrwt>
<totfact> 0.87222572E-01</totfact>
</mgrwt>
</event>
<event>
 6    1  0.1885829E-005  0.1522483E+04  0.7818608E-02  0.8869638E-01
         -1   -1    0    0    0  501 -0.00000000000E+00  0.00000000000E+00  0.24975471798E+03  0.24975471798E+03  0.00000000000E+00 0.  1.
          1   -1    0    0  501    0  0.00000000000E+00 -0.00000000000E+00 -0.23202319073E+04  0.23202319073E+04  0.00000000000E+00 0. -1.
         23    2    1    2    0    0 -0.47120483310E+03  0.58412625226E+03 -0.12231138832E+04  0.14380581620E+04  0.93628162794E+02 0.  0.
         11    1    3    3    0    0 -0.35796686155E+02  0.91217691577E+02 -0.17929731937E+03  0.20432718549E+03  0.00000000000E+00 0.  1.
        -11    1    3    3    0    0 -0.43540814695E+03  0.49290856068E+03 -0.10438165638E+04  0.12337309765E+04  0.00000000000E+00 0. -1.
         22    1    1    2    0    0  0.47120483310E+03 -0.58412625226E+03 -0.84736330618E+03  0.11319284633E+04  0.00000000000E+00 0.  1.
<mgrwt>
<rscale>  0 0.15224833E+04</rscale>
<asrwt>0</asrwt>
<pdfrwt beam="1">  1        1 0.35695878E+00 0.15224833E+04</pdfrwt>
<pdfrwt beam="2">  1       -1 0.38423801E-01 0.15224833E+04</pdfrwt>
<totfact> 0.11428397E+01</totfact>
</mgrwt>
</event>
<event>
 6    1  0.1885829E-005  0.2272490E+04  0.7818608E-02  0.8488848E-01
          2   -1    0    0  501    0  0.00000000000E+00  0.00000000000E+00  0.17861086608E+04  0.17861086608E+04  0.00000000000E+00 0.  1.
         -2   -1    0    0    0  501 -0.00000000000E+00 -0.00000000000E+00 -0.72282985783E+03  0.72282985783E+03  0.00000000000E+00 0. -1.
         23    2    1    2    0    0  0.94705960048E+03 -0.60584121100E+03  0.36495176428E+03  0.11854483930E+04  0.90181163982E+02 0.  0.
         13    1    3    3    0    0  0.88478840371E+03 -0.53981769367E+03  0.32439014190E+03  0.10860398823E+04  0.00000000000E+00 0.  1.
        -13    1    3    3    0    0  0.62271196776E+02 -0.66023517335E+02  0.40561622378E+02  0.99408510697E+02  0.00000000000E+00 0. -1.
         22    1    1    2    0    0 -0.94705960048E+03  0.60584121100E+03  0.69832703873E+03  0.13234901257E+04  0.00000000000E+00 0. -1.
<mgrwt>
<rscale>  0 0.22724900E+04</rscale>
<asrwt>0</asrwt>
<pdfrwt beam="1">  1        2 0.27478595E+00 0.22724900E+04</pdfrwt>
<pdfrwt beam="2">  1       -2 0.11120459E+00 0.22724900E+04</pdfrwt>
<totfact> 0.51072102E+00</totfact>
</mgrwt>
</event>
<event>
 6    1  0.1885829E-005  0.4404349E+04  0.7818608E-02  0.7927600E-01
          1   -1    0    0  501    0  0.00000000000E+00  0.00000000000E+00  0.22178180535E+04  0.22178180535E+04  0.00000000000E+00 0. -1.
         -1   -1    0    0    0  501 -0.00000000000E+00 -0.00000000000E+00 -0.21866416340E+04  0.21866416340E+04  0.00000000000E+00 0.  1.
         23    2    1    2    0    0  0.39569174346E+03 -0.13404325133E+04  0.17162436010E+04  0.22152171965E+04  0.91454094007E+02 0.  0.
         11    1    3    3    0    0  0.14651324880E+03 -0.52755968117E+03  0.60384180030E+03  0.81511365408E+03  0.00000000000E+00 0. -1.
        -11    1    3    3    0    0  0.24917849466E+03 -0.81287283211E+03  0.11124018007E+04  0.14001035424E+04  0.00000000000E+00 0.  1.
         22    1    1    2    0    0 -0.39569174346E+03  0.13404325133E+04 -0.16850671815E+04  0.21892424910E+04  0.00000000000E+00 0.  1.
<mgrwt>
<rscale>  0 0.44043493E+04</rscale>
<asrwt>0</asrwt>
<pdfrwt beam="1">  1        1 0.34120278E+00 0.44043493E+04</pdfrwt>
<pdfrwt beam="2">  1       -1 0.33640640E+00 0.44043493E+04</pdfrwt>
<totfact> 0.30650930E-02</totfact>
</mgrwt>
</event>
<event>
 6    1  0.1885829E-005  0.5041412E+04  0.7818608E-02  0.7822151E-01
         -2   -1    0    0    0  501 -0.00000000000E+00  0.00000000000E+00  0.32080835926E+04  0.32080835926E+04  0.00000000000E+00 0.  1.
          2   -1    0    0  501    0  0.00000000000E+00 -0.00000000000E+00 -0.19806084687E+04  0.19806084687E+04  0.00000000000E+00 0. -1.
         23    2    1    2    0    0 -0.23355233832E+04  0.56043648870E+03  0.13984171175E+04  0.27807926248E+04  0.92079617566E+02 0.  0.
         13    1    3    3    0    0 -0.40611023808E+03  0.13077283655E+03  0.23252434700E+03  0.48589570095E+03  0.00000000000E+00 0. -1.
        -13    1    3    3    0    0 -0.19294131451E+04  0.42966365216E+03  0.11658927705E+04  0.22948969238E+04  0.00000000000E+00 0.  1.
         22    1    1    2    0    0  0.23355233832E+04 -0.56043648870E+03 -0.17094199363E+03  0.24078994365E+04  0.00000000000E+00 0. -1.
<mgrwt>
<rscale>  0 0.50414115E+04</rscale>
<asrwt>0</asrwt>
<pdfrwt beam="1">  1        2 0.30470900E+00 0.50414115E+04</pdfrwt>
<pdfrwt beam="2">  1       -2 0.49355132E+00 0.50414115E+04</pdfrwt>
<totfact> 0.90532928E-03</totfact>
</mgrwt>
</event>
<event>
 6    1  0.1885829E-005  0.2682308E+04  0.7818608E-02  0.8340768E-01
          2   -1    0    0  501    0  0.00000000000E+00  0.00000000000E+00  0.11567872430E+04  0.11567872430E+04  0.00000000000E+00 0. -1.
         -2   -1    0    0    0  501 -0.00000000000E+00 -0.00000000000E+00 -0.15549052353E+04  0.15549052353E+04  0.00000000000E+00 0.  1.
         23    2    1    2    0    0  0.12762880683E+04  0.38229319288E+03 -0.34061422808E+03  0.13781385793E+04  0.90490732575E+02 0.  0.
         13    1    3    3    0    0  0.85029550659E+03  0.29676494228E+03 -0.21618656080E+03  0.92617952286E+03  0.00000000000E+00 0. -1.
        -13    1    3    3    0    0  0.42599256171E+03  0.85528250602E+02 -0.12442766728E+03  0.45195905640E+03  0.00000000000E+00 0.  1.
         22    1    1    2    0    0 -0.12762880683E+04 -0.38229319288E+03 -0.57503764252E+02  0.13335538990E+04  0.00000000000E+00 0. -1.
<mgrwt>
<rscale>  0 0.26823084E+04</rscale>
<asrwt>0</asrwt>
<pdfrwt beam="1">  1        2 0.17796727E+00 0.26823084E+04</pdfrwt>
<pdfrwt beam="2">  1       -2 0.23921619E+00 0.26823084E+04</pdfrwt>
<totfact> 0.13234770E+00</totfact>
</mgrwt>
</event>
<event>
 6    1  0.1885829E-005  0.1505906E+04  0.7818608E-02  0.8880535E-01
         -1   -1    0    0    0  501 -0.00000000000E+00  0.00000000000E+00  0.60511768357E+03  0.60511768357E+03  0.00000000000E+00 0. -1.
          1   -1    0    0  501    0  0.00000000000E+00 -0.00000000000E+00 -0.93690556195E+03  0.93690556195E+03  0.00000000000E+00 0.  1.
         23    2    1    2    0    0 -0.66744375064E+03 -0.25662313045E+03  0.65839669582E+02  0.72382751207E+03  0.90856005855E+02 0.  0.
         11    1    3    3    0    0 -0.48716210320E+03 -0.22255565190E+03  0.26885690277E+02  0.53626558097E+03  0.00000000000E+00 0. -1.
        -11    1    3    3    0    0 -0.18028164744E+03 -0.34067478544E+02  0.38953979306E+02  0.18756193111E+03  0.00000000000E+00 0.  1.
         22    1    1    2    0    0  0.66744375064E+03  0.25662313045E+03 -0.39762754796E+03  0.81819573345E+03  0.00000000000E+00 0. -1.
<mgrwt>
<rscale>  0 0.15059059E+04</rscale>
<asrwt>0</asrwt>
<pdfrwt beam="1">  1        1 0.14413932E+00 0.15059059E+04</pdfrwt>
<pdfrwt beam="2">  1       -1 0.93095028E-01 0.15059059E+04</pdfrwt>
<totfact> 0.18402848E+01</totfact>
</mgrwt>
</event>
<event>
 6    1  0.1885829E-005  0.4758499E+04  0.7818608E-02  0.7866881E-01
         -2   -1    0    0    0  501 -0.00000000000E+00  0.00000000000E+00  0.23047904097E+04  0.23047904097E+04  0.00000000000E+00 0.  1.
          2   -1    0    0  501    0  0.00000000000E+00 -0.00000000000E+00 -0.24561137667E+04  0.24561137667E+04  0.00000000000E+00 0. -1.
         23    2    1    2    0    0  0.98430978187E+03  0.97691321256E+03  0.18574289433E+04  0.23199390035E+04  0.94071936228E+02 0.  0.
         11    1    3    3    0    0  0.64467871300E+03  0.67956939261E+03  0.11960118273E+04  0.15191673684E+04  0.00000000000E+00 0.  1.
        -11    1    3    3    0    0  0.33963106888E+03  0.29734381994E+03  0.66141711600E+03  0.80077163508E+03  0.00000000000E+00 0. -1.
         22    1    1    2    0    0 -0.98430978187E+03 -0.97691321256E+03 -0.20087523003E+04  0.24409651729E+04  0.00000000000E+00 0. -1.
<mgrwt>
<rscale>  0 0.47584987E+04</rscale>
<asrwt>0</asrwt>
<pdfrwt beam="1">  1        2 0.37786366E+00 0.47584987E+04</pdfrwt>
<pdfrwt beam="2">  1       -2 0.35458314E+00 0.47584987E+04</pdfrwt>
<totfact> 0.39866691E-02</totfact>
</mgrwt>
</event>
<event>
 6    1  0.1885829E-005  0.1199767E+04  0.7818608E-02  0.9113060E-01
         -1   -1    0    0    0  501 -0.00000000000E+00  0.00000000000E+00  0.54302117154E+03  0.54302117154E+03  0.00000000000E+00 0.  1.
          1   -1    0    0  501    0  0.00000000000E+00 -0.00000000000E+00 -0.66270028231E+03  0.66270028231E+03  0.00000000000E+00 0. -1.
         23    2    1    2    0    0  0.41380574075E+03 -0.41959568837E+03  0.31018030824E+02  0.59744079390E+03  0.93153911359E+02 0.  0.
         11    1    3    3    0    0  0.22093039456E+03 -0.21885043287E+03  0.62773853491E+02  0.31724802267E+03  0.00000000000E+00 0. -1.
        -11    1    3    3    0    0  0.19287534619E+03 -0.20074525550E+03 -0.31755822667E+02  0.28019277123E+03  0.00000000000E+00 0.  1.
         22    1    1    2    0    0 -0.41380574075E+03  0.41959568837E+03 -0.15069714159E+03  0.60828065995E+03  0.00000000000E+00 0. -1.
<mgrwt>
<rscale>  0 0.11997671E+04</rscale>
<asrwt>0</asrwt>
<pdfrwt beam="1">  1        1 0.10195389E+00 0.11997671E+04</pdfrwt>
<pdfrwt beam="2">  1       -1 0.83541719E-01 0.11997671E+04</pdfrwt>
<totfact> 0.41650363E+01</totfact>
</mgrwt>
</event>
<event>
 6    1  0.1885829E-005  0.2593425E+04  0.7818608E-02  0.8370438E-01
          2   -1    0    0  501    0  0.00000000000E+00  0.00000000000E+00  0.33043838942E+04  0.33043838942E+04  0.00000000000E+00 0. -1.
         -2   -1    0    0    0  501 -0.00000000000E+00 -0.00000000000E+00 -0.50885838423E+03  0.50885838423E+03  0.00000000000E+00 0.  1.
         23    2    1    2    0    0 -0.13454770360E+03 -0.11910728626E+04  0.21206302330E+04  0.24376546646E+04  0.91268996607E+02 0.  0.
         13    1    3    3    0    0 -0.31734239418E+02 -0.18434788715E+03  0.27099193994E+03  0.32928382432E+03  0.00000000000E+00 0. -1.
        -13    1    3    3    0    0 -0.10281346419E+03 -0.10067249755E+04  0.18496382931E+04  0.21083708402E+04  0.00000000000E+00 0.  1.
         22    1    1    2    0    0  0.13454770360E+03  0.11910728626E+04  0.67489527694E+03  0.13755876139E+04  0.00000000000E+00 0.  1.
<mgrwt>
<rscale>  0 0.25934251E+04</rscale>
<asrwt>0</asrwt>
<pdfrwt beam="1">  1        2 0.50836674E+00 0.25934251E+04</pdfrwt>
<pdfrwt beam="2">  1       -2 0.78285907E-01 0.25934251E+04</pdfrwt>
<totfact> 0.14214622E+00</totfact>
</mgrwt>
</event>
<event>
 6    1  0.1885829E-005  0.1494538E+04  0.7818608E-02  0.8888093E-01
         -2   -1    0    0    0  501 -0.00000000000E+00  0.00000000000E+00  0.55904423209E+03  0.55904423209E+03  0.00000000000E+00 0. -1.
          2   -1    0    0  501    0  0.00000000000E+00 -0.00000000000E+00 -0.99886763270E+03  0.99886763270E+03  0.00000000000E+00 0.  1.
         23    2    1    2    0    0 -0.23868222265E+03 -0.24365854536E+02 -0.95537842612E+03  0.98926444978E+03  0.91286999276E+02 0.  0.
         11    1    3    3    0    0 -0.73235936399E+02  0.33964578446E+02 -0.33181807880E+03  0.34149719235E+03  0.00000000000E+00 0.  1.
        -11    1    3    3    0    0 -0.16544628625E+03 -0.58330432982E+02 -0.62356034732E+03  0.64776725743E+03  0.00000000000E+00 0. -1.
         22    1    1    2    0    0  0.23868222265E+03  0.24365854536E+02  0.51555502550E+03  0.56864741501E+03  0.00000000000E+00 0. -1.
<mgrwt>
<rscale>  0 0.14945383E+04</rscale>
<asrwt>0</asrwt>
<pdfrwt beam="1">  1        2 0.15367194E+00 0.14945383E+04</pdfrwt>
<pdfrwt beam="2">  1       -2 0.86006806E-01 0.14945383E+04</pdfrwt>
<totfact> 0.28612800E+01</totfact>
</mgrwt>
</event>
<event>
 6    1  0.1885829E-005  0.1872602E+04  0.7818608E-02  0.8668616E-01
         -2   -1    0    0    0  501 -0.00000000000E+00  0.00000000000E+00  0.66245673348E+03  0.66245673348E+03  0.00000000000E+00 0.  1.
          2   -1    0    0  501    0  0.00000000000E+00 -0.00000000000E+00 -0.13233462637E+04  0.13233462637E+04  0.00000000000E+00 0. -1.
         23    2    1    2    0    0 -0.20478589988E+03 -0.11145050195E+03  0.62798908946E+03  0.67600661017E+03  0.90863421346E+02 0.  0.
         11    1    3    3    0    0 -0.15995677326E+03 -0.79691248167E+02  0.56416830768E+03  0.59179620119E+03  0.00000000000E+00 0.  1.
        -11    1    3    3    0    0 -0.44829126619E+02 -0.31759253788E+02  0.63820781778E+02  0.84210408985E+02  0.00000000000E+00 0. -1.
         22    1    1    2    0    0  0.20478589988E+03  0.11145050195E+03 -0.12888786197E+04  0.13097963870E+04  0.00000000000E+00 0. -1.
<mgrwt>
<rscale>  0 0.18726021E+04</rscale>
<asrwt>0</asrwt>
<pdfrwt beam="1">  1        2 0.20359173E+00 0.18726021E+04</pdfrwt>
<pdfrwt beam="2">  1       -2 0.10191642E+00 0.18726021E+04</pdfrwt>
<totfact> 0.11874439E+01</totfact>
</mgrwt>
</event>
<event>
 6    1  0.1885829E-005  0.2132975E+04  0.7818608E-02  0.8546855E-01
         -1   -1    0    0    0  501 -0.00000000000E+00  0.00000000000E+00  0.10354630038E+04  0.10354630038E+04  0.00000000000E+00 0.  1.
          1   -1    0    0  501    0  0.00000000000E+00 -0.00000000000E+00 -0.10984416435E+04  0.10984416435E+04  0.00000000000E+00 0. -1.
         23    2    1    2    0    0 -0.67836692563E+03 -0.80834909135E+03  0.10896693103E+03  0.10647109237E+04  0.90142219591E+02 0.  0.
         11    1    3    3    0    0 -0.33382570830E+03 -0.39810029331E+03  0.83501422358E+01  0.51960867192E+03  0.00000000000E+00 0. -1.
        -11    1    3    3    0    0 -0.34454121732E+03 -0.41024879804E+03  0.10061678879E+03  0.54510225180E+03  0.00000000000E+00 0.  1.
         22    1    1    2    0    0  0.67836692563E+03  0.80834909135E+03 -0.17194557064E+03  0.10691937236E+04  0.00000000000E+00 0.  1.
<mgrwt>
<rscale>  0 0.21329751E+04</rscale>
<asrwt>0</asrwt>
<pdfrwt beam="1">  1        1 0.16899102E+00 0.21329751E+04</pdfrwt>
<pdfrwt beam="2">  1       -1 0.15930200E+00 0.21329751E+04</pdfrwt>
<totfact> 0.34491742E+00</totfact>
</mgrwt>
</event>
<event>
 6    1  0.2021388E-005  0.2767794E+04  0.7818608E-02  0.8313337E-01
          2   -1    0    0  501    0  0.00000000000E+00  0.00000000000E+00  0.14941082001E+04  0.14941082001E+04  0.00000000000E+00 0. -1.
         -2   -1    0    0    0  501 -0.00000000000E+00 -0.00000000000E+00 -0.12818150078E+04  0.12818150078E+04  0.00000000000E+00 0.  1.
         23    2    1    2    0    0  0.11967142819E+04  0.65200583186E+03  0.34059592773E+03  0.14070922216E+04  0.81647148130E+02 0.  0.
         11    1    3    3    0    0  0.70887714512E+03  0.42683441809E+03  0.22488619809E+03  0.85747783028E+03  0.00000000000E+00 0.  1.
        -11    1    3    3    0    0  0.48783713674E+03  0.22517141378E+03  0.11570972965E+03  0.54961439128E+03  0.00000000000E+00 0. -1.
         22    1    1    2    0    0 -0.11967142819E+04 -0.65200583186E+03 -0.12830273538E+03  0.13688309863E+04  0.00000000000E+00 0.  1.
<mgrwt>
<rscale>  0 0.27677936E+04</rscale>
<asrwt>0</asrwt>
<pdfrwt beam="1">  1        2 0.22986280E+00 0.27677936E+04</pdfrwt>
<pdfrwt beam="2">  1       -2 0.19720231E+00 0.27677936E+04</pdfrwt>
<totfact> 0.15488574E+00</totfact>
</mgrwt>
</event>
<event>
 6    1  0.1885829E-005  0.2828076E+04  0.7818608E-02  0.8294605E-01
         -1   -1    0    0    0  501 -0.00000000000E+00  0.00000000000E+00  0.11283779375E+04  0.11283779375E+04  0.00000000000E+00 0.  1.
          1   -1    0    0  501    0  0.00000000000E+00 -0.00000000000E+00 -0.17720156730E+04  0.17720156730E+04  0.00000000000E+00 0. -1.
         23    2    1    2    0    0  0.17824177536E+03 -0.11466543657E+04 -0.11484225667E+04  0.16349316037E+04  0.86836582423E+02 0.  0.
         11    1    3    3    0    0 -0.76078793970E+01 -0.10409258207E+03 -0.92622397749E+02  0.13954230196E+03  0.00000000000E+00 0.  1.
        -11    1    3    3    0    0  0.18584965475E+03 -0.10425617836E+04 -0.10558001690E+04  0.14953893017E+04  0.00000000000E+00 0. -1.
         22    1    1    2    0    0 -0.17824177536E+03  0.11466543657E+04  0.50478483126E+03  0.12654620068E+04  0.00000000000E+00 0.  1.
<mgrwt>
<rscale>  0 0.28280759E+04</rscale>
<asrwt>0</asrwt>
<pdfrwt beam="1">  1        1 0.27261779E+00 0.28280759E+04</pdfrwt>
<pdfrwt beam="2">  1       -1 0.17359661E+00 0.28280759E+04</pdfrwt>
<totfact> 0.85136840E-01</totfact>
</mgrwt>
</event>
<event>
 6    1  0.1885829E-005  0.6085337E+03  0.7818608E-02  0.9887858E-01
         -2   -1    0    0    0  501 -0.00000000000E+00  0.00000000000E+00  0.17276582599E+03  0.17276582599E+03  0.00000000000E+00 0.  1.
          2   -1    0    0  501    0  0.00000000000E+00 -0.00000000000E+00 -0.53586006618E+03  0.53586006618E+03  0.00000000000E+00 0. -1.
         23    2    1    2    0    0 -0.17698908813E+02  0.10491272265E+03 -0.50916666139E+03  0.52791318375E+03  0.90120529097E+02 0.  0.
         13    1    3    3    0    0 -0.24573558458E+02 -0.19882179092E+01 -0.18184341057E+03  0.18350705369E+03  0.00000000000E+00 0.  1.
        -13    1    3    3    0    0  0.68746496447E+01  0.10690094056E+03 -0.32732325082E+03  0.34440613007E+03  0.00000000000E+00 0. -1.
         22    1    1    2    0    0  0.17698908813E+02 -0.10491272265E+03  0.14607242120E+03  0.18071270841E+03  0.00000000000E+00 0.  1.
<mgrwt>
<rscale>  0 0.60853367E+03</rscale>
<asrwt>0</asrwt>
<pdfrwt beam="1">  1        2 0.82440010E-01 0.60853367E+03</pdfrwt>
<pdfrwt beam="2">  1       -2 0.26579358E-01 0.60853367E+03</pdfrwt>
<totfact> 0.73171653E+02</totfact>
</mgrwt>
</event>
<event>
 6    1  0.1885829E-005  0.3083034E+04  0.7818608E-02  0.8220409E-01
          1   -1    0    0  501    0  0.00000000000E+00  0.00000000000E+00  0.22039721432E+04  0.22039721432E+04  0.00000000000E+00 0. -1.
         -1   -1    0    0    0  501 -0.00000000000E+00 -0.00000000000E+00 -0.10781783356E+04  0.10781783356E+04  0.00000000000E+00 0.  1.
         23    2    1    2    0    0  0.14081600432E+04 -0.46743534757E+03  0.12358748733E+03  0.14916678568E+04  0.91589391045E+02 0.  0.
         11    1    3    3    0    0  0.10119638864E+04 -0.31427413952E+03  0.52074491536E+02  0.10609198343E+04  0.00000000000E+00 0.  1.
        -11    1    3    3    0    0  0.39619615680E+03 -0.15316120805E+03  0.71512995793E+02  0.43074802250E+03  0.00000000000E+00 0. -1.
         22    1    1    2    0    0 -0.14081600432E+04  0.46743534757E+03  0.10022063202E+04  0.17904826220E+04  0.00000000000E+00 0. -1.
<mgrwt>
<rscale>  0 0.30830342E+04</rscale>
<asrwt>0</asrwt>
<pdfrwt beam="1">  1        1 0.33907264E+00 0.30830342E+04</pdfrwt>
<pdfrwt beam="2">  1       -1 0.16587359E+00 0.30830342E+04</pdfrwt>
<totfact> 0.48292524E-01</totfact>
</mgrwt>
</event>
<event>
 6    1  0.1885829E-005  0.2884446E+04  0.7818608E-02  0.8277520E-01
         -2   -1    0    0    0  501 -0.00000000000E+00  0.00000000000E+00  0.10326790409E+04  0.10326790409E+04  0.00000000000E+00 0. -1.
          2   -1    0    0  501    0  0.00000000000E+00 -0.00000000000E+00 -0.20141856599E+04  0.20141856599E+04  0.00000000000E+00 0.  1.
         23    2    1    2    0    0  0.23814022079E+03  0.67266778194E+03 -0.18133873012E+04  0.19508637067E+04  0.91120734390E+02 0.  0.
         11    1    3    3    0    0  0.83461392392E+02  0.26860464597E+03 -0.83440046189E+03  0.88053301509E+03  0.00000000000E+00 0.  1.
        -11    1    3    3    0    0  0.15467882839E+03  0.40406313597E+03 -0.97898683931E+03  0.10703306916E+04  0.00000000000E+00 0. -1.
         22    1    1    2    0    0 -0.23814022079E+03 -0.67266778194E+03  0.83188068221E+03  0.10960009941E+04  0.00000000000E+00 0. -1.
<mgrwt>
<rscale>  0 0.28844461E+04</rscale>
<asrwt>0</asrwt>
<pdfrwt beam="1">  1        2 0.30987472E+00 0.28844461E+04</pdfrwt>
<pdfrwt beam="2">  1       -2 0.15887370E+00 0.28844461E+04</pdfrwt>
<totfact> 0.14559660E+00</totfact>
</mgrwt>
</event>
<event>
 6    1  0.1885829E-005  0.1099690E+04  0.7818608E-02  0.9205494E-01
         -2   -1    0    0    0  501 -0.00000000000E+00  0.00000000000E+00  0.58564940853E+03  0.58564940853E+03  0.00000000000E+00 0.  1.
          2   -1    0    0  501    0  0.00000000000E+00 -0.00000000000E+00 -0.51622995997E+03  0.51622995997E+03  0.00000000000E+00 0. -1.
         23    2    1    2    0    0  0.31334257882E+03  0.97989163806E+02  0.47197996063E+03  0.58241771081E+03  0.93058361761E+02 0.  0.
         13    1    3    3    0    0  0.20921150372E+03  0.56706510849E+02  0.38000448259E+03  0.43747970062E+03  0.00000000000E+00 0. -1.
        -13    1    3    3    0    0  0.10413107510E+03  0.41282652957E+02  0.91975478044E+02  0.14493801019E+03  0.00000000000E+00 0.  1.
         22    1    1    2    0    0 -0.31334257882E+03 -0.97989163806E+02 -0.40256051207E+03  0.51946165769E+03  0.00000000000E+00 0. -1.
<mgrwt>
<rscale>  0 0.10996904E+04</rscale>
<asrwt>0</asrwt>
<pdfrwt beam="1">  1        2 0.79419994E-01 0.10996904E+04</pdfrwt>
<pdfrwt beam="2">  1       -2 0.90099909E-01 0.10996904E+04</pdfrwt>
<totfact> 0.62118519E+01</totfact>
</mgrwt>
</event>
<event>
 6    1  0.1885829E-005  0.7118481E+03  0.7818608E-02  0.9697182E-01
         -2   -1    0    0    0  501 -0.00000000000E+00  0.00000000000E+00  0.78953261466E+02  0.78953261466E+02  0.00000000000E+00 0.  1.
          2   -1    0    0  501    0  0.00000000000E+00 -0.00000000000E+00 -0.16045181931E+04  0.16045181931E+04  0.00000000000E+00 0. -1.
         23    2    1    2    0    0  0.33909157868E+03 -0.85056483384E+02 -0.81858567904E+03  0.89477799847E+03  0.91254854738E+02 0.  0.
         11    1    3    3    0    0  0.25684384850E+03 -0.67629717328E+02 -0.70568939701E+03  0.75401595887E+03  0.00000000000E+00 0. -1.
        -11    1    3    3    0    0  0.82247730183E+02 -0.17426766056E+02 -0.11289628203E+03  0.14076203960E+03  0.00000000000E+00 0.  1.
         22    1    1    2    0    0 -0.33909157868E+03  0.85056483384E+02 -0.70697925259E+03  0.78869345609E+03  0.00000000000E+00 0. -1.
<mgrwt>
<rscale>  0 0.71184814E+03</rscale>
<asrwt>0</asrwt>
<pdfrwt beam="1">  1        2 0.24684896E+00 0.71184814E+03</pdfrwt>
<pdfrwt beam="2">  1       -2 0.12146655E-01 0.71184814E+03</pdfrwt>
<totfact> 0.56219569E+02</totfact>
</mgrwt>
</event>
<event>
 6    1  0.1885829E-005  0.3175776E+04  0.7818608E-02  0.8195244E-01
         -2   -1    0    0    0  501 -0.00000000000E+00  0.00000000000E+00  0.19429907310E+04  0.19429907310E+04  0.00000000000E+00 0.  1.
          2   -1    0    0  501    0  0.00000000000E+00 -0.00000000000E+00 -0.12976840834E+04  0.12976840834E+04  0.00000000000E+00 0. -1.
         23    2    1    2    0    0  0.66375681114E+03 -0.12229563093E+04 -0.45495739917E+03  0.14667593114E+04  0.90561601652E+02 0.  0.
         13    1    3    3    0    0  0.50713883653E+03 -0.90427517571E+03 -0.37718368087E+03  0.11032546950E+04  0.00000000000E+00 0. -1.
        -13    1    3    3    0    0  0.15661797461E+03 -0.31868113363E+03 -0.77773718298E+02  0.36350461642E+03  0.00000000000E+00 0.  1.
         22    1    1    2    0    0 -0.66375681114E+03  0.12229563093E+04  0.11002640468E+04  0.17739155029E+04  0.00000000000E+00 0.  1.
<mgrwt>
<rscale>  0 0.31757759E+04</rscale>
<asrwt>0</asrwt>
<pdfrwt beam="1">  1        2 0.19964371E+00 0.31757759E+04</pdfrwt>
<pdfrwt beam="2">  1       -2 0.29892165E+00 0.31757759E+04</pdfrwt>
<totfact> 0.45147460E-01</totfact>
</mgrwt>
</event>
<event>
 6    1  0.1885829E-005  0.5598636E+03  0.7818608E-02  0.9992363E-01
         -1   -1    0    0    0  501 -0.00000000000E+00  0.00000000000E+00  0.20128713352E+03  0.20128713352E+03  0.00000000000E+00 0.  1.
          1   -1    0    0  501    0  0.00000000000E+00 -0.00000000000E+00 -0.38930367945E+03  0.38930367945E+03  0.00000000000E+00 0. -1.
         23    2    1    2    0    0  0.23331748502E+02 -0.25487372653E+03 -0.19553036120E+03  0.33454112173E+03  0.90446962455E+02 0.  0.
         11    1    3    3    0    0 -0.13000706677E+02 -0.14440736511E+03 -0.15282196828E+03  0.21065863254E+03  0.00000000000E+00 0. -1.
        -11    1    3    3    0    0  0.36332455180E+02 -0.11046636141E+03 -0.42708392916E+02  0.12388248919E+03  0.00000000000E+00 0.  1.
         22    1    1    2    0    0 -0.23331748502E+02  0.25487372653E+03  0.75138152712E+01  0.25604969124E+03  0.00000000000E+00 0.  1.
<mgrwt>
<rscale>  0 0.55986363E+03</rscale>
<asrwt>0</asrwt>
<pdfrwt beam="1">  1        1 0.59892874E-01 0.55986363E+03</pdfrwt>
<pdfrwt beam="2">  1       -1 0.30967251E-01 0.55986363E+03</pdfrwt>
<totfact> 0.60565121E+02</totfact>
</mgrwt>
</event>
<event>
 6    1  0.1885829E-005  0.2012867E+04  0.7818608E-02  0.8600628E-01
         -2   -1    0    0    0  501 -0.00000000000E+00  0.00000000000E+00  0.49646669852E+03  0.49646669852E+03  0.00000000000E+00 0.  1.
          2   -1    0    0  501    0  0.00000000000E+00 -0.00000000000E+00 -0.20402350422E+04  0.20402350422E+04  0.00000000000E+00 0. -1.
         23    2    1    2    0    0  0.23839064293E+03  0.52836553382E+02 -0.20012470286E+04  0.20181378130E+04  0.90932737137E+02 0.  0.
         11    1    3    3    0    0  0.16340379251E+03  0.62888748785E+00 -0.10679567295E+04  0.10803854733E+04  0.00000000000E+00 0.  1.
        -11    1    3    3    0    0  0.74986850415E+02  0.52207665894E+02 -0.93329029913E+03  0.93775233967E+03  0.00000000000E+00 0. -1.
         22    1    1    2    0    0 -0.23839064293E+03 -0.52836553382E+02  0.45747868491E+03  0.51856392774E+03  0.00000000000E+00 0.  1.
<mgrwt>
<rscale>  0 0.20128674E+04</rscale>
<asrwt>0</asrwt>
<pdfrwt beam="1">  1        2 0.31388232E+00 0.20128674E+04</pdfrwt>
<pdfrwt beam="2">  1       -2 0.76379491E-01 0.20128674E+04</pdfrwt>
<totfact> 0.90292136E+00</totfact>
</mgrwt>
</event>
<event>
 6    1  0.1885829E-005  0.4785841E+04  0.7818608E-02  0.7862420E-01
          2   -1    0    0  501    0  0.00000000000E+00  0.00000000000E+00  0.19610290023E+04  0.19610290023E+04  0.00000000000E+00 0. -1.
         -2   -1    0    0    0  501 -0.00000000000E+00 -0.00000000000E+00 -0.29199301985E+04  0.29199301985E+04  0.00000000000E+00 0.  1.
         23    2    1    2    0    0  0.45887232149E+03  0.10202539649E+04 -0.26360044190E+04  0.28649837098E+04  0.90168730474E+02 0.  0.
         13    1    3    3    0    0  0.31881654115E+03  0.61021452384E+03 -0.15740680146E+04  0.17180500187E+04  0.00000000000E+00 0. -1.
        -13    1    3    3    0    0  0.14005578035E+03  0.41003944111E+03 -0.10619364044E+04  0.11469336912E+04  0.00000000000E+00 0.  1.
         22    1    1    2    0    0 -0.45887232149E+03 -0.10202539649E+04  0.16771032228E+04  0.20159754910E+04  0.00000000000E+00 0. -1.
<mgrwt>
<rscale>  0 0.47858407E+04</rscale>
<asrwt>0</asrwt>
<pdfrwt beam="1">  1        2 0.30169677E+00 0.47858407E+04</pdfrwt>
<pdfrwt beam="2">  1       -2 0.44922003E+00 0.47858407E+04</pdfrwt>
<totfact> 0.18305116E-02</totfact>
</mgrwt>
</event>
<event>
 6    1  0.1885829E-005  0.1637939E+04  0.7818608E-02  0.8797574E-01
         -2   -1    0    0    0  501 -0.00000000000E+00  0.00000000000E+00  0.22609700854E+03  0.22609700854E+03  0.00000000000E+00 0.  1.
          2   -1    0    0  501    0  0.00000000000E+00 -0.00000000000E+00 -0.29664756324E+04  0.29664756324E+04  0.00000000000E+00 0. -1.
         23    2    1    2    0    0 -0.14241250022E+03 -0.71300614501E+03 -0.66172623561E+03  0.99042486337E+03  0.12000298350E+03 0.  0.
         11    1    3    3    0    0 -0.54917365471E+02 -0.33067874869E+03 -0.22654992180E+03  0.40458524310E+03  0.00000000000E+00 0. -1.
        -11    1    3    3    0    0 -0.87495134753E+02 -0.38232739632E+03 -0.43517631380E+03  0.58583962027E+03  0.00000000000E+00 0.  1.
         22    1    1    2    0    0  0.14241250022E+03  0.71300614501E+03 -0.20786523883E+04  0.22021477776E+04  0.00000000000E+00 0. -1.
<mgrwt>
<rscale>  0 0.16379393E+04</rscale>
<asrwt>0</asrwt>
<pdfrwt beam="1">  1        2 0.45638088E+00 0.16379393E+04</pdfrwt>
<pdfrwt beam="2">  1       -2 0.34784154E-01 0.16379393E+04</pdfrwt>
<totfact> 0.13614902E+01</totfact>
</mgrwt>
</event>
<event>
 6    1  0.1885829E-005  0.1415479E+04  0.7818608E-02  0.8942689E-01
         -2   -1    0    0    0  501 -0.00000000000E+00  0.00000000000E+00  0.36775754480E+03  0.36775754480E+03  0.00000000000E+00 0. -1.
          2   -1    0    0  501    0  0.00000000000E+00 -0.00000000000E+00 -0.13620265848E+04  0.13620265848E+04  0.00000000000E+00 0.  1.
         23    2    1    2    0    0 -0.29621145472E+03 -0.23764315287E+03  0.22625701302E+03  0.45154340888E+03  0.92107112370E+02 0.  0.
         11    1    3    3    0    0 -0.80627212488E+02 -0.12138558944E+03  0.79210780049E+02  0.16586005062E+03  0.00000000000E+00 0. -1.
        -11    1    3    3    0    0 -0.21558424223E+03 -0.11625756343E+03  0.14704623297E+03  0.28568335826E+03  0.00000000000E+00 0.  1.
         22    1    1    2    0    0  0.29621145472E+03  0.23764315287E+03 -0.12205260530E+04  0.12782407207E+04  0.00000000000E+00 0.  1.
<mgrwt>
<rscale>  0 0.14154795E+04</rscale>
<asrwt>0</asrwt>
<pdfrwt beam="1">  1        2 0.20954255E+00 0.14154795E+04</pdfrwt>
<pdfrwt beam="2">  1       -2 0.56578083E-01 0.14154795E+04</pdfrwt>
<totfact> 0.43350659E+01</totfact>
</mgrwt>
</event>
<event>
 6    1  0.1885829E-005  0.4078600E+04  0.7818608E-02  0.7988875E-01
          2   -1    0    0  501    0  0.00000000000E+00  0.00000000000E+00  0.29626883811E+04  0.29626883811E+04  0.00000000000E+00 0. -1.
         -2   -1    0    0    0  501 -0.00000000000E+00 -0.00000000000E+00 -0.14037066376E+04  0.14037066376E+04  0.00000000000E+00 0.  1.
         23    2    1    2    0    0  0.10762280898E+04  0.31379559551E+02  0.26325116547E+04  0.28459615119E+04  0.10063665924E+03 0.  0.
         11    1    3    3    0    0  0.19034877907E+03 -0.17114930769E+01  0.57196730855E+03  0.60281190180E+03  0.00000000000E+00 0. -1.
        -11    1    3    3    0    0  0.88587931072E+03  0.33091052628E+02  0.20605443462E+04  0.22431496101E+04  0.00000000000E+00 0.  1.
         22    1    1    2    0    0 -0.10762280898E+04 -0.31379559551E+02 -0.10735299112E+04  0.15204335067E+04  0.00000000000E+00 0.  1.
<mgrwt>
<rscale>  0 0.40786004E+04</rscale>
<asrwt>0</asrwt>
<pdfrwt beam="1">  1        2 0.45579821E+00 0.40786004E+04</pdfrwt>
<pdfrwt beam="2">  1       -2 0.21595487E+00 0.40786004E+04</pdfrwt>
<totfact> 0.15095211E-01</totfact>
</mgrwt>
</event>
<event>
 6    1  0.1885829E-005  0.2249844E+04  0.7818608E-02  0.8497964E-01
          2   -1    0    0  501    0  0.00000000000E+00  0.00000000000E+00  0.13490863221E+04  0.13490863221E+04  0.00000000000E+00 0. -1.
         -2   -1    0    0    0  501 -0.00000000000E+00 -0.00000000000E+00 -0.93800500377E+03  0.93800500377E+03  0.00000000000E+00 0.  1.
         23    2    1    2    0    0  0.67804012734E+03  0.77323971494E+03 -0.25292320256E+03  0.10629426115E+04  0.90767714295E+02 0.  0.
         13    1    3    3    0    0  0.57715755945E+03  0.65226659917E+03 -0.24705006595E+03  0.90531558028E+03  0.00000000000E+00 0.  1.
        -13    1    3    3    0    0  0.10088256790E+03  0.12097311577E+03 -0.58731366052E+01  0.15762703124E+03  0.00000000000E+00 0. -1.
         22    1    1    2    0    0 -0.67804012734E+03 -0.77323971494E+03  0.66400452085E+03  0.12241487143E+04  0.00000000000E+00 0.  1.
<mgrwt>
<rscale>  0 0.22498442E+04</rscale>
<asrwt>0</asrwt>
<pdfrwt beam="1">  1        2 0.20755174E+00 0.22498442E+04</pdfrwt>
<pdfrwt beam="2">  1       -2 0.14430846E+00 0.22498442E+04</pdfrwt>
<totfact> 0.46768770E+00</totfact>
</mgrwt>
</event>
<event>
 6    1  0.1885829E-005  0.3312587E+04  0.7818608E-02  0.8159700E-01
          2   -1    0    0  501    0  0.00000000000E+00  0.00000000000E+00  0.13694351940E+04  0.13694351940E+04  0.00000000000E+00 0. -1.
         -2   -1    0    0    0  501 -0.00000000000E+00 -0.00000000000E+00 -0.20032411262E+04  0.20032411262E+04  0.00000000000E+00 0.  1.
         23    2    1    2    0    0  0.90253705385E+03 -0.10418331312E+03 -0.17256192224E+04  0.19522948373E+04  0.90918285865E+02 0.  0.
         13    1    3    3    0    0  0.31535182674E+03 -0.36186973324E+02 -0.51274288014E+03  0.60304355797E+03  0.00000000000E+00 0. -1.
        -13    1    3    3    0    0  0.58718522710E+03 -0.67996339799E+02 -0.12128763423E+04  0.13492512793E+04  0.00000000000E+00 0.  1.
         22    1    1    2    0    0 -0.90253705385E+03  0.10418331312E+03  0.10918132902E+04  0.14203814829E+04  0.00000000000E+00 0. -1.
<mgrwt>
<rscale>  0 0.33125874E+04</rscale>
<asrwt>0</asrwt>
<pdfrwt beam="1">  1        2 0.21068234E+00 0.33125874E+04</pdfrwt>
<pdfrwt beam="2">  1       -2 0.30819094E+00 0.33125874E+04</pdfrwt>
<totfact> 0.35586573E-01</totfact>
</mgrwt>
</event>
<event>
 6    1  0.1885829E-005  0.1860772E+04  0.7818608E-02  0.8674633E-01
         -1   -1    0    0    0  501 -0.00000000000E+00  0.00000000000E+00  0.40395227361E+03  0.40395227361E+03  0.00000000000E+00 0.  1.
          1   -1    0    0  501    0  0.00000000000E+00 -0.00000000000E+00 -0.21428726667E+04  0.21428726667E+04  0.00000000000E+00 0. -1.
         23    2    1    2    0    0  0.44288994817E+03  0.70997071377E+03 -0.14201737164E+04  0.16513868551E+04  0.99876121504E+02 0.  0.
         13    1    3    3    0    0  0.45172123630E+02  0.98250890476E+02 -0.24978048080E+03  0.27218384746E+03  0.00000000000E+00 0. -1.
        -13    1    3    3    0    0  0.39771782454E+03  0.61171982329E+03 -0.11703932356E+04  0.13792030076E+04  0.00000000000E+00 0.  1.
         22    1    1    2    0    0 -0.44288994817E+03 -0.70997071377E+03 -0.31874667665E+03  0.89543808523E+03  0.00000000000E+00 0. -1.
<mgrwt>
<rscale>  0 0.18607722E+04</rscale>
<asrwt>0</asrwt>
<pdfrwt beam="1">  1        1 0.32967272E+00 0.18607722E+04</pdfrwt>
<pdfrwt beam="2">  1       -1 0.62146503E-01 0.18607722E+04</pdfrwt>
<totfact> 0.58756569E+00</totfact>
</mgrwt>
</event>
<event>
 6    1  0.1885829E-005  0.2121185E+04  0.7818608E-02  0.8551968E-01
          2   -1    0    0  501    0  0.00000000000E+00  0.00000000000E+00  0.20562123700E+04  0.20562123700E+04  0.00000000000E+00 0. -1.
         -2   -1    0    0    0  501 -0.00000000000E+00 -0.00000000000E+00 -0.54705254118E+03  0.54705254118E+03  0.00000000000E+00 0.  1.
         23    2    1    2    0    0 -0.52438457832E+03 -0.76754115541E+03  0.13777438932E+04  0.16644524915E+04  0.90140168140E+02 0.  0.
         13    1    3    3    0    0 -0.13555327024E+02 -0.50848766741E+02  0.98799966937E+02  0.11194095514E+03  0.00000000000E+00 0. -1.
        -13    1    3    3    0    0 -0.51082925130E+03 -0.71669238867E+03  0.12789439263E+04  0.15525115364E+04  0.00000000000E+00 0.  1.
         22    1    1    2    0    0  0.52438457832E+03  0.76754115541E+03  0.13141593561E+03  0.93881241969E+03  0.00000000000E+00 0.  1.
<mgrwt>
<rscale>  0 0.21211848E+04</rscale>
<asrwt>0</asrwt>
<pdfrwt beam="1">  1        2 0.31634036E+00 0.21211848E+04</pdfrwt>
<pdfrwt beam="2">  1       -2 0.84161931E-01 0.21211848E+04</pdfrwt>
<totfact> 0.70470753E+00</totfact>
</mgrwt>
</event>
<event>
 6    1  0.1885829E-005  0.6528390E+04  0.7818608E-02  0.7628130E-01
          2   -1    0    0  501    0  0.00000000000E+00  0.00000000000E+00  0.35040483652E+04  0.35040483652E+04  0.00000000000E+00 0. -1.
         -2   -1    0    0    0  501 -0.00000000000E+00 -0.00000000000E+00 -0.30407597762E+04  0.30407597762E+04  0.00000000000E+00 0.  1.
         23    2    1    2    0    0 -0.23664494170E+04  0.90606896756E+03 -0.18301099197E+04  0.31271012294E+04  0.91738558795E+02 0.  0.
         11    1    3    3    0    0 -0.14659843082E+04  0.51769203095E+03 -0.11448590229E+04  0.19307556068E+04  0.00000000000E+00 0.  1.
        -11    1    3    3    0    0 -0.90046510877E+03  0.38837693661E+03 -0.68525089682E+03  0.11963456225E+04  0.00000000000E+00 0. -1.
         22    1    1    2    0    0  0.23664494170E+04 -0.90606896756E+03  0.22933985087E+04  0.34177069121E+04  0.00000000000E+00 0. -1.
<mgrwt>
<rscale>  0 0.65283901E+04</rscale>
<asrwt>0</asrwt>
<pdfrwt beam="1">  1        2 0.53908436E+00 0.65283901E+04</pdfrwt>
<pdfrwt beam="2">  1       -2 0.46780920E+00 0.65283901E+04</pdfrwt>
<totfact> 0.13914181E-03</totfact>
</mgrwt>
</event>
<event>
 6    1  0.1885829E-005  0.8942252E+03  0.7818608E-02  0.9432829E-01
          4   -1    0    0  501    0  0.00000000000E+00  0.00000000000E+00  0.88351205936E+03  0.88351205936E+03  0.00000000000E+00 0. -1.
         -4   -1    0    0    0  501 -0.00000000000E+00 -0.00000000000E+00 -0.22626707785E+03  0.22626707785E+03  0.00000000000E+00 0.  1.
         23    2    1    2    0    0 -0.10868581679E+03 -0.41481873568E+03  0.19633418446E+03  0.48023489485E+03  0.90505535741E+02 0.  0.
         13    1    3    3    0    0 -0.70696295589E+02 -0.22104257715E+03  0.15330230093E+03  0.27813554716E+03  0.00000000000E+00 0. -1.
        -13    1    3    3    0    0 -0.37989521197E+02 -0.19377615854E+03  0.43031883530E+02  0.20209934769E+03  0.00000000000E+00 0.  1.
         22    1    1    2    0    0  0.10868581679E+03  0.41481873568E+03  0.46091079706E+03  0.62954424236E+03  0.00000000000E+00 0. -1.
<mgrwt>
<rscale>  0 0.89422523E+03</rscale>
<asrwt>0</asrwt>
<pdfrwt beam="1">  1        4 0.13592493E+00 0.89422523E+03</pdfrwt>
<pdfrwt beam="2">  1       -4 0.34810320E-01 0.89422523E+03</pdfrwt>
<totfact> 0.61803444E+00</totfact>
</mgrwt>
</event>
<event>
 6    1  0.1885829E-005  0.1084211E+04  0.7818608E-02  0.9220719E-01
          2   -1    0    0  501    0  0.00000000000E+00  0.00000000000E+00  0.36710256509E+03  0.36710256509E+03  0.00000000000E+00 0. -1.
         -2   -1    0    0    0  501 -0.00000000000E+00 -0.00000000000E+00 -0.80053412162E+03  0.80053412162E+03  0.00000000000E+00 0.  1.
         23    2    1    2    0    0 -0.22644064435E+03  0.47314990212E+03 -0.89094633977E+02  0.54017026408E+03  0.93273067428E+02 0.  0.
         11    1    3    3    0    0 -0.60572749380E+02  0.15754877994E+03  0.13043538768E+02  0.16929503812E+03  0.00000000000E+00 0.  1.
        -11    1    3    3    0    0 -0.16586789497E+03  0.31560112218E+03 -0.10213817275E+03  0.37087522596E+03  0.00000000000E+00 0. -1.
         22    1    1    2    0    0  0.22644064435E+03 -0.47314990212E+03 -0.34433692255E+03  0.62746642263E+03  0.00000000000E+00 0.  1.
<mgrwt>
<rscale>  0 0.10842106E+04</rscale>
<asrwt>0</asrwt>
<pdfrwt beam="1">  1        2 0.56477317E-01 0.10842106E+04</pdfrwt>
<pdfrwt beam="2">  1       -2 0.12315910E+00 0.10842106E+04</pdfrwt>
<totfact> 0.43297512E+01</totfact>
</mgrwt>
</event>
<event>
 6    1  0.1885829E-005  0.2555775E+03  0.7818608E-02  0.1109830E+00
          2   -1    0    0  501    0  0.00000000000E+00  0.00000000000E+00  0.31838201200E+03  0.31838201200E+03  0.00000000000E+00 0. -1.
         -2   -1    0    0    0  501 -0.00000000000E+00 -0.00000000000E+00 -0.51290463284E+02  0.51290463284E+02  0.00000000000E+00 0.  1.
         23    2    1    2    0    0  0.53906987662E+02 -0.56621583631E+02  0.40302369237E+02  0.12978646281E+03  0.95437298324E+02 0.  0.
         11    1    3    3    0    0 -0.25606031520E+02 -0.20626002181E+02  0.24694424708E+02  0.41120742063E+02  0.00000000000E+00 0. -1.
        -11    1    3    3    0    0  0.79513019182E+02 -0.35995581450E+02  0.15607944528E+02  0.88665720748E+02  0.00000000000E+00 0.  1.
         22    1    1    2    0    0 -0.53906987662E+02  0.56621583631E+02  0.22678917948E+03  0.23988601248E+03  0.00000000000E+00 0. -1.
<mgrwt>
<rscale>  0 0.25557747E+03</rscale>
<asrwt>0</asrwt>
<pdfrwt beam="1">  1        2 0.48981847E-01 0.25557747E+03</pdfrwt>
<pdfrwt beam="2">  1       -2 0.78908407E-02 0.25557747E+03</pdfrwt>
<totfact> 0.97810588E+03</totfact>
</mgrwt>
</event>
<event>
 6    1  0.1885829E-005  0.2665335E+04  0.7818608E-02  0.8346341E-01
          1   -1    0    0  501    0  0.00000000000E+00  0.00000000000E+00  0.20338422237E+04  0.20338422237E+04  0.00000000000E+00 0.  1.
         -1   -1    0    0    0  501 -0.00000000000E+00 -0.00000000000E+00 -0.87322514122E+03  0.87322514122E+03  0.00000000000E+00 0. -1.
         23    2    1    2    0    0 -0.12051732423E+04 -0.54085909793E+02 -0.32491274138E+02  0.12103424667E+04  0.92224584523E+02 0.  0.
         13    1    3    3    0    0 -0.91114547316E+03 -0.45670831900E+01 -0.40638084000E+02  0.91206270912E+03  0.00000000000E+00 0.  1.
        -13    1    3    3    0    0 -0.29402776919E+03 -0.49518826603E+02  0.81468098618E+01  0.29827975753E+03  0.00000000000E+00 0. -1.
         22    1    1    2    0    0  0.12051732423E+04  0.54085909793E+02  0.11931083566E+04  0.16967248982E+04  0.00000000000E+00 0.  1.
<mgrwt>
<rscale>  0 0.26653346E+04</rscale>
<asrwt>0</asrwt>
<pdfrwt beam="1">  1        1 0.31289880E+00 0.26653346E+04</pdfrwt>
<pdfrwt beam="2">  1       -1 0.13434233E+00 0.26653346E+04</pdfrwt>
<totfact> 0.11544015E+00</totfact>
</mgrwt>
</event>
<event>
 6    1  0.1885829E-005  0.3697880E+04  0.7818608E-02  0.8068432E-01
         -2   -1    0    0    0  501 -0.00000000000E+00  0.00000000000E+00  0.99615455950E+03  0.99615455950E+03  0.00000000000E+00 0.  1.
          2   -1    0    0  501    0  0.00000000000E+00 -0.00000000000E+00 -0.34317766407E+04  0.34317766407E+04  0.00000000000E+00 0. -1.
         23    2    1    2    0    0 -0.11663629979E+04  0.84609621299E+03 -0.26036911345E+04  0.29772318340E+04  0.91762873682E+02 0.  0.
         11    1    3    3    0    0 -0.79309154323E+03  0.56392182666E+03 -0.16699337445E+04  0.19327909182E+04  0.00000000000E+00 0. -1.
        -11    1    3    3    0    0 -0.37327145467E+03  0.28217438633E+03 -0.93375739004E+03  0.10444409158E+04  0.00000000000E+00 0.  1.
         22    1    1    2    0    0  0.11663629979E+04 -0.84609621299E+03  0.16806905328E+03  0.14506993662E+04  0.00000000000E+00 0.  1.
<mgrwt>
<rscale>  0 0.36978804E+04</rscale>
<asrwt>0</asrwt>
<pdfrwt beam="1">  1        2 0.52796564E+00 0.36978804E+04</pdfrwt>
<pdfrwt beam="2">  1       -2 0.15325455E+00 0.36978804E+04</pdfrwt>
<totfact> 0.20712893E-01</totfact>
</mgrwt>
</event>
<event>
 6    1  0.1885829E-005  0.3048406E+04  0.7818608E-02  0.8230042E-01
         -2   -1    0    0    0  501 -0.00000000000E+00  0.00000000000E+00  0.12019503591E+04  0.12019503591E+04  0.00000000000E+00 0.  1.
          2   -1    0    0  501    0  0.00000000000E+00 -0.00000000000E+00 -0.19328539694E+04  0.19328539694E+04  0.00000000000E+00 0. -1.
         23    2    1    2    0    0 -0.32899573437E+03  0.41316528125E+03  0.11029939785E+04  0.12263693389E+04  0.91881967506E+02 0.  0.
         11    1    3    3    0    0 -0.21555697127E+03  0.30412725717E+03  0.68710301783E+03  0.78170886749E+03  0.00000000000E+00 0. -1.
        -11    1    3    3    0    0 -0.11343876310E+03  0.10903802408E+03  0.41589096069E+03  0.44466047143E+03  0.00000000000E+00 0.  1.
         22    1    1    2    0    0  0.32899573437E+03 -0.41316528125E+03 -0.18338975889E+04  0.19084349896E+04  0.00000000000E+00 0. -1.
<mgrwt>
<rscale>  0 0.30484058E+04</rscale>
<asrwt>0</asrwt>
<pdfrwt beam="1">  1        2 0.29736215E+00 0.30484058E+04</pdfrwt>
<pdfrwt beam="2">  1       -2 0.18491544E+00 0.30484058E+04</pdfrwt>
<totfact> 0.10416413E+00</totfact>
</mgrwt>
</event>
<event>
 6    1  0.1885829E-005  0.2985572E+04  0.7818608E-02  0.8247863E-01
          2   -1    0    0  501    0  0.00000000000E+00  0.00000000000E+00  0.16478534839E+04  0.16478534839E+04  0.00000000000E+00 0. -1.
         -2   -1    0    0    0  501 -0.00000000000E+00 -0.00000000000E+00 -0.13523108642E+04  0.13523108642E+04  0.00000000000E+00 0.  1.
         23    2    1    2    0    0 -0.42998289360E+03  0.75253602697E+03  0.13675313509E+04  0.16216304891E+04  0.91365675224E+02 0.  0.
         13    1    3    3    0    0 -0.88315870753E+02  0.21565455509E+03  0.31819815577E+03  0.39440670189E+03  0.00000000000E+00 0. -1.
        -13    1    3    3    0    0 -0.34166702285E+03  0.53688147188E+03  0.10493331952E+04  0.12272237872E+04  0.00000000000E+00 0.  1.
         22    1    1    2    0    0  0.42998289360E+03 -0.75253602697E+03 -0.10719887312E+04  0.13785338590E+04  0.00000000000E+00 0.  1.
<mgrwt>
<rscale>  0 0.29855721E+04</rscale>
<asrwt>0</asrwt>
<pdfrwt beam="1">  1        2 0.25351592E+00 0.29855721E+04</pdfrwt>
<pdfrwt beam="2">  1       -2 0.20804783E+00 0.29855721E+04</pdfrwt>
<totfact> 0.10594161E+00</totfact>
</mgrwt>
</event>
<event>
 6    1  0.1885829E-005  0.1230603E+04  0.7818608E-02  0.9086484E-01
          2   -1    0    0  501    0  0.00000000000E+00  0.00000000000E+00  0.20125863611E+04  0.20125863611E+04  0.00000000000E+00 0. -1.
         -2   -1    0    0    0  501 -0.00000000000E+00 -0.00000000000E+00 -0.18811404506E+03  0.18811404506E+03  0.00000000000E+00 0.  1.
         23    2    1    2    0    0 -0.51193885432E+02  0.11593482167E+02  0.20075086169E+04  0.20102863569E+04  0.91679699001E+02 0.  0.
         11    1    3    3    0    0 -0.52792867102E+02  0.45824834655E+02  0.11805275232E+04  0.11825955502E+04  0.00000000000E+00 0.  1.
        -11    1    3    3    0    0  0.15989816701E+01 -0.34231352489E+02  0.82698109368E+03  0.82769080672E+03  0.00000000000E+00 0. -1.
         22    1    1    2    0    0  0.51193885432E+02 -0.11593482167E+02 -0.18303630083E+03  0.19041404926E+03  0.00000000000E+00 0.  1.
<mgrwt>
<rscale>  0 0.12306027E+04</rscale>
<asrwt>0</asrwt>
<pdfrwt beam="1">  1        2 0.30962866E+00 0.12306027E+04</pdfrwt>
<pdfrwt beam="2">  1       -2 0.28940624E-01 0.12306027E+04</pdfrwt>
<totfact> 0.71077581E+01</totfact>
</mgrwt>
</event>
<event>
 6    1  0.1885829E-005  0.1402136E+04  0.7818608E-02  0.8952274E-01
         -2   -1    0    0    0  501 -0.00000000000E+00  0.00000000000E+00  0.14980171894E+03  0.14980171894E+03  0.00000000000E+00 0.  1.
          2   -1    0    0  501    0  0.00000000000E+00 -0.00000000000E+00 -0.32809814938E+04  0.32809814938E+04  0.00000000000E+00 0. -1.
         23    2    1    2    0    0 -0.44766668916E+03  0.27259654037E+03 -0.44359866025E+03  0.69257091526E+03  0.90334726895E+02 0.  0.
         11    1    3    3    0    0 -0.25971865358E+03  0.11344117931E+03 -0.26835733734E+03  0.39030544537E+03  0.00000000000E+00 0.  1.
        -11    1    3    3    0    0 -0.18794803558E+03  0.15915536106E+03 -0.17524132291E+03  0.30226546989E+03  0.00000000000E+00 0. -1.
         22    1    1    2    0    0  0.44766668916E+03 -0.27259654037E+03 -0.26875811146E+04  0.27382122975E+04  0.00000000000E+00 0. -1.
<mgrwt>
<rscale>  0 0.14021365E+04</rscale>
<asrwt>0</asrwt>
<pdfrwt beam="1">  1        2 0.50476636E+00 0.14021365E+04</pdfrwt>
<pdfrwt beam="2">  1       -2 0.23046419E-01 0.14021365E+04</pdfrwt>
<totfact> 0.18792118E+01</totfact>
</mgrwt>
</event>
<event>
 6    1  0.1885829E-005  0.1808042E+04  0.7818608E-02  0.8702035E-01
         -2   -1    0    0    0  501 -0.00000000000E+00  0.00000000000E+00  0.34264620356E+03  0.34264620356E+03  0.00000000000E+00 0.  1.
          2   -1    0    0  501    0  0.00000000000E+00 -0.00000000000E+00 -0.23851236906E+04  0.23851236906E+04  0.00000000000E+00 0. -1.
         23    2    1    2    0    0 -0.61603767049E+03 -0.51145436476E+03 -0.39886470768E+03  0.89950543103E+03  0.94493315723E+02 0.  0.
         11    1    3    3    0    0 -0.38144011358E+03 -0.35798070692E+03 -0.29489046541E+03  0.60050573133E+03  0.00000000000E+00 0.  1.
        -11    1    3    3    0    0 -0.23459755691E+03 -0.15347365784E+03 -0.10397424226E+03  0.29899969969E+03  0.00000000000E+00 0. -1.
         22    1    1    2    0    0  0.61603767049E+03  0.51145436476E+03 -0.16436127794E+04  0.18282644632E+04  0.00000000000E+00 0. -1.
<mgrwt>
<rscale>  0 0.18080416E+04</rscale>
<asrwt>0</asrwt>
<pdfrwt beam="1">  1        2 0.36694210E+00 0.18080416E+04</pdfrwt>
<pdfrwt beam="2">  1       -2 0.52714801E-01 0.18080416E+04</pdfrwt>
<totfact> 0.12995380E+01</totfact>
</mgrwt>
</event>
<event>
 6    1  0.1885829E-005  0.2924980E+04  0.7818608E-02  0.8265484E-01
         -2   -1    0    0    0  501 -0.00000000000E+00  0.00000000000E+00  0.46612127437E+03  0.46612127437E+03  0.00000000000E+00 0.  1.
          2   -1    0    0  501    0  0.00000000000E+00 -0.00000000000E+00 -0.45886705501E+04  0.45886705501E+04  0.00000000000E+00 0. -1.
         23    2    1    2    0    0  0.14020455503E+04 -0.19523324744E+03 -0.14407389739E+04  0.20223086438E+04  0.10077556209E+03 0.  0.
         11    1    3    3    0    0  0.89770651287E+03 -0.16263249870E+03 -0.88301292770E+03  0.12696606410E+04  0.00000000000E+00 0.  1.
        -11    1    3    3    0    0  0.50433903742E+03 -0.32600748742E+02 -0.55772604620E+03  0.75264800278E+03  0.00000000000E+00 0. -1.
         22    1    1    2    0    0 -0.14020455503E+04  0.19523324744E+03 -0.26818103018E+04  0.30324831806E+04  0.00000000000E+00 0. -1.
<mgrwt>
<rscale>  0 0.29249800E+04</rscale>
<asrwt>0</asrwt>
<pdfrwt beam="1">  1        2 0.70594930E+00 0.29249800E+04</pdfrwt>
<pdfrwt beam="2">  1       -2 0.71710967E-01 0.29249800E+04</pdfrwt>
<totfact> 0.15242275E-01</totfact>
</mgrwt>
</event>
<event>
 6    1  0.1885829E-005  0.3760349E+04  0.7818608E-02  0.8054718E-01
         -2   -1    0    0    0  501 -0.00000000000E+00  0.00000000000E+00  0.11375637091E+04  0.11375637091E+04  0.00000000000E+00 0.  1.
          2   -1    0    0  501    0  0.00000000000E+00 -0.00000000000E+00 -0.31075675120E+04  0.31075675120E+04  0.00000000000E+00 0. -1.
         23    2    1    2    0    0  0.61550073886E+03  0.13575334135E+04 -0.22773179120E+04  0.27232310634E+04  0.89846670028E+02 0.  0.
         11    1    3    3    0    0  0.25443969672E+03  0.66609654364E+03 -0.10662116678E+04  0.12826657730E+04  0.00000000000E+00 0. -1.
        -11    1    3    3    0    0  0.36106104214E+03  0.69143686984E+03 -0.12111062442E+04  0.14405652904E+04  0.00000000000E+00 0.  1.
         22    1    1    2    0    0 -0.61550073886E+03 -0.13575334135E+04  0.30731410907E+03  0.15219001577E+04  0.00000000000E+00 0.  1.
<mgrwt>
<rscale>  0 0.37603489E+04</rscale>
<asrwt>0</asrwt>
<pdfrwt beam="1">  1        2 0.47808731E+00 0.37603489E+04</pdfrwt>
<pdfrwt beam="2">  1       -2 0.17500980E+00 0.37603489E+04</pdfrwt>
<totfact> 0.23496752E-01</totfact>
</mgrwt>
</event>
<event>
 6    1  0.1885829E-005  0.3658634E+04  0.7818608E-02  0.8077191E-01
         -2   -1    0    0    0  501 -0.00000000000E+00  0.00000000000E+00  0.15526391065E+04  0.15526391065E+04  0.00000000000E+00 0.  1.
          2   -1    0    0  501    0  0.00000000000E+00 -0.00000000000E+00 -0.21552987658E+04  0.21552987658E+04  0.00000000000E+00 0. -1.
         23    2    1    2    0    0 -0.10927149682E+04 -0.92305173375E+01 -0.17867996897E+04  0.20966344198E+04  0.95454464707E+02 0.  0.
         11    1    3    3    0    0 -0.87746261745E+03 -0.45429329981E+02 -0.14329815668E+04  0.16809047087E+04  0.00000000000E+00 0. -1.
        -11    1    3    3    0    0 -0.21525235077E+03  0.36198812644E+02 -0.35381812293E+03  0.41572971107E+03  0.00000000000E+00 0.  1.
         22    1    1    2    0    0  0.10927149682E+04  0.92305173375E+01  0.11841400305E+04  0.16113034525E+04  0.00000000000E+00 0.  1.
<mgrwt>
<rscale>  0 0.36586343E+04</rscale>
<asrwt>0</asrwt>
<pdfrwt beam="1">  1        2 0.33158442E+00 0.36586343E+04</pdfrwt>
<pdfrwt beam="2">  1       -2 0.23886756E+00 0.36586343E+04</pdfrwt>
<totfact> 0.33412645E-01</totfact>
</mgrwt>
</event>
<event>
 6    1  0.1885829E-005  0.2014263E+04  0.7818608E-02  0.8599981E-01
         -2   -1    0    0    0  501 -0.00000000000E+00  0.00000000000E+00  0.78696496875E+03  0.78696496875E+03  0.00000000000E+00 0.  1.
          2   -1    0    0  501    0  0.00000000000E+00 -0.00000000000E+00 -0.12888927611E+04  0.12888927611E+04  0.00000000000E+00 0. -1.
         23    2    1    2    0    0  0.73639041252E+03 -0.58215461569E+03 -0.62189933973E+03  0.11295131793E+04  0.88692712836E+02 0.  0.
         11    1    3    3    0    0  0.17515185272E+03 -0.17840080623E+03 -0.19376495069E+03  0.31630661595E+03  0.00000000000E+00 0. -1.
        -11    1    3    3    0    0  0.56123855979E+03 -0.40375380946E+03 -0.42813438904E+03  0.81320656338E+03  0.00000000000E+00 0.  1.
         22    1    1    2    0    0 -0.73639041252E+03  0.58215461569E+03  0.11997154734E+03  0.94634455056E+03  0.00000000000E+00 0.  1.
<mgrwt>
<rscale>  0 0.20142626E+04</rscale>
<asrwt>0</asrwt>
<pdfrwt beam="1">  1        2 0.19829119E+00 0.20142626E+04</pdfrwt>
<pdfrwt beam="2">  1       -2 0.12107153E+00 0.20142626E+04</pdfrwt>
<totfact> 0.80891614E+00</totfact>
</mgrwt>
</event>
<event>
 6    1  0.1885829E-005  0.4991459E+04  0.7818608E-02  0.7829826E-01
         -2   -1    0    0    0  501 -0.00000000000E+00  0.00000000000E+00  0.15932667650E+04  0.15932667650E+04  0.00000000000E+00 0.  1.
          2   -1    0    0  501    0  0.00000000000E+00 -0.00000000000E+00 -0.39093671898E+04  0.39093671898E+04  0.00000000000E+00 0. -1.
         23    2    1    2    0    0  0.19449946723E+04 -0.12473040478E+04 -0.21959089281E+04  0.31889318004E+04  0.92186465331E+02 0.  0.
         13    1    3    3    0    0  0.73740866407E+03 -0.43728383711E+03 -0.76930594764E+03  0.11518768741E+04  0.00000000000E+00 0. -1.
        -13    1    3    3    0    0  0.12075860082E+04 -0.81002021073E+03 -0.14266029804E+04  0.20370549263E+04  0.00000000000E+00 0.  1.
         22    1    1    2    0    0 -0.19449946723E+04  0.12473040478E+04 -0.12019149666E+03  0.23137021543E+04  0.00000000000E+00 0.  1.
<mgrwt>
<rscale>  0 0.49914586E+04</rscale>
<asrwt>0</asrwt>
<pdfrwt beam="1">  1        2 0.60144110E+00 0.49914586E+04</pdfrwt>
<pdfrwt beam="2">  1       -2 0.24511797E+00 0.49914586E+04</pdfrwt>
<totfact> 0.20196431E-02</totfact>
</mgrwt>
</event>
<event>
 6    1  0.1885829E-005  0.1256268E+04  0.7818608E-02  0.9064983E-01
          2   -1    0    0  501    0  0.00000000000E+00  0.00000000000E+00  0.33501501054E+04  0.33501501054E+04  0.00000000000E+00 0. -1.
         -2   -1    0    0    0  501 -0.00000000000E+00 -0.00000000000E+00 -0.11777148101E+03  0.11777148101E+03  0.00000000000E+00 0.  1.
         23    2    1    2    0    0  0.21235331612E+03 -0.50869600435E+03  0.24367197357E+04  0.24999656872E+04  0.91432002195E+02 0.  0.
         11    1    3    3    0    0  0.14778942427E+03 -0.24393709093E+03  0.11697896510E+04  0.12040576589E+04  0.00000000000E+00 0. -1.
        -11    1    3    3    0    0  0.64563891849E+02 -0.26475891343E+03  0.12669300847E+04  0.12959080283E+04  0.00000000000E+00 0.  1.
         22    1    1    2    0    0 -0.21235331612E+03  0.50869600435E+03  0.79565888872E+03  0.96795589926E+03  0.00000000000E+00 0.  1.
<mgrwt>
<rscale>  0 0.12562677E+04</rscale>
<asrwt>0</asrwt>
<pdfrwt beam="1">  1        2 0.51540764E+00 0.12562677E+04</pdfrwt>
<pdfrwt beam="2">  1       -2 0.18118692E-01 0.12562677E+04</pdfrwt>
<totfact> 0.26245137E+01</totfact>
</mgrwt>
</event>
<event>
 6    1  0.1885829E-005  0.2761895E+04  0.7818608E-02  0.8315197E-01
         -2   -1    0    0    0  501 -0.00000000000E+00  0.00000000000E+00  0.12800596047E+04  0.12800596047E+04  0.00000000000E+00 0.  1.
          2   -1    0    0  501    0  0.00000000000E+00 -0.00000000000E+00 -0.14897866965E+04  0.14897866965E+04  0.00000000000E+00 0. -1.
         23    2    1    2    0    0 -0.51892908795E+03  0.48648146961E+03 -0.12902359569E+04  0.14762269498E+04  0.92658319306E+02 0.  0.
         11    1    3    3    0    0 -0.11636682249E+03  0.75865027137E+02 -0.31144974696E+03  0.34102446334E+03  0.00000000000E+00 0.  1.
        -11    1    3    3    0    0 -0.40256226547E+03  0.41061644248E+03 -0.97878620998E+03  0.11352024865E+04  0.00000000000E+00 0. -1.
         22    1    1    2    0    0  0.51892908795E+03 -0.48648146961E+03  0.10805088652E+04  0.12936193514E+04  0.00000000000E+00 0.  1.
<mgrwt>
<rscale>  0 0.27618948E+04</rscale>
<asrwt>0</asrwt>
<pdfrwt beam="1">  1        2 0.22919795E+00 0.27618948E+04</pdfrwt>
<pdfrwt beam="2">  1       -2 0.19693225E+00 0.27618948E+04</pdfrwt>
<totfact> 0.15647791E+00</totfact>
</mgrwt>
</event>
<event>
 6    1  0.1885829E-005  0.1324117E+04  0.7818608E-02  0.9010656E-01
         -2   -1    0    0    0  501 -0.00000000000E+00  0.00000000000E+00  0.49289240133E+03  0.49289240133E+03  0.00000000000E+00 0.  1.
          2   -1    0    0  501    0  0.00000000000E+00 -0.00000000000E+00 -0.88928380928E+03  0.88928380928E+03  0.00000000000E+00 0. -1.
         23    2    1    2    0    0 -0.41202988566E+03 -0.51448185275E+03 -0.19272317369E+03  0.69229147159E+03  0.87550308264E+02 0.  0.
         11    1    3    3    0    0 -0.16008402089E+03 -0.15439346599E+03 -0.33786247902E+02  0.22495721067E+03  0.00000000000E+00 0.  1.
        -11    1    3    3    0    0 -0.25194586477E+03 -0.36008838676E+03 -0.15893692579E+03  0.46733426093E+03  0.00000000000E+00 0. -1.
         22    1    1    2    0    0  0.41202988566E+03  0.51448185275E+03 -0.20366823426E+03  0.68988473902E+03  0.00000000000E+00 0.  1.
<mgrwt>
<rscale>  0 0.13241167E+04</rscale>
<asrwt>0</asrwt>
<pdfrwt beam="1">  1        2 0.13681289E+00 0.13241167E+04</pdfrwt>
<pdfrwt beam="2">  1       -2 0.75829600E-01 0.13241167E+04</pdfrwt>
<totfact> 0.45482373E+01</totfact>
</mgrwt>
</event>
<event>
 6    1  0.1885829E-005  0.4082914E+04  0.7818608E-02  0.7988026E-01
          2   -1    0    0  501    0  0.00000000000E+00  0.00000000000E+00  0.29080087320E+04  0.29080087320E+04  0.00000000000E+00 0. -1.
         -2   -1    0    0    0  501 -0.00000000000E+00 -0.00000000000E+00 -0.14331275624E+04  0.14331275624E+04  0.00000000000E+00 0.  1.
         23    2    1    2    0    0  0.17525877298E+04 -0.71180833985E+02  0.18462585221E+04  0.25482192299E+04  0.90112436810E+02 0.  0.
         11    1    3    3    0    0  0.53340700389E+03 -0.25985549038E+02  0.50319990135E+03  0.73376319155E+03  0.00000000000E+00 0.  1.
        -11    1    3    3    0    0  0.12191807260E+04 -0.45195284947E+02  0.13430586208E+04  0.18144560384E+04  0.00000000000E+00 0. -1.
         22    1    1    2    0    0 -0.17525877298E+04  0.71180833985E+02 -0.37137735255E+03  0.17929170644E+04  0.00000000000E+00 0.  1.
<mgrwt>
<rscale>  0 0.40829144E+04</rscale>
<asrwt>0</asrwt>
<pdfrwt beam="1">  1        2 0.44738596E+00 0.40829144E+04</pdfrwt>
<pdfrwt beam="2">  1       -2 0.22048116E+00 0.40829144E+04</pdfrwt>
<totfact> 0.15270173E-01</totfact>
</mgrwt>
</event>
<event>
 6    1  0.1885829E-005  0.2039133E+04  0.7818608E-02  0.8588540E-01
         -2   -1    0    0    0  501 -0.00000000000E+00  0.00000000000E+00  0.78616497180E+03  0.78616497180E+03  0.00000000000E+00 0.  1.
          2   -1    0    0  501    0  0.00000000000E+00 -0.00000000000E+00 -0.13222619056E+04  0.13222619056E+04  0.00000000000E+00 0. -1.
         23    2    1    2    0    0 -0.22755353443E+03  0.48489010626E+03 -0.11631134164E+04  0.12837762268E+04  0.91375899552E+02 0.  0.
         13    1    3    3    0    0 -0.17865649212E+03  0.32595210422E+03 -0.71584924093E+03  0.80659968520E+03  0.00000000000E+00 0. -1.
        -13    1    3    3    0    0 -0.48897042315E+02  0.15893800204E+03 -0.44726417544E+03  0.47717654161E+03  0.00000000000E+00 0.  1.
         22    1    1    2    0    0  0.22755353443E+03 -0.48489010626E+03  0.62701648254E+03  0.82465065062E+03  0.00000000000E+00 0.  1.
<mgrwt>
<rscale>  0 0.20391331E+04</rscale>
<asrwt>0</asrwt>
<pdfrwt beam="1">  1        2 0.20342491E+00 0.20391331E+04</pdfrwt>
<pdfrwt beam="2">  1       -2 0.12094846E+00 0.20391331E+04</pdfrwt>
<totfact> 0.77387072E+00</totfact>
</mgrwt>
</event>
<event>
 6    1  0.1885829E-005  0.1484410E+04  0.7818608E-02  0.8894887E-01
         -2   -1    0    0    0  501 -0.00000000000E+00  0.00000000000E+00  0.21234008771E+04  0.21234008771E+04  0.00000000000E+00 0. -1.
          2   -1    0    0  501    0  0.00000000000E+00 -0.00000000000E+00 -0.25942722145E+03  0.25942722145E+03  0.00000000000E+00 0.  1.
         23    2    1    2    0    0  0.52817764393E+02 -0.72906795727E+03  0.76029471179E+03  0.10590316589E+04  0.95761177706E+02 0.  0.
         11    1    3    3    0    0  0.47766015845E+02 -0.64001914573E+03  0.61720592529E+03  0.89042082937E+03  0.00000000000E+00 0.  1.
        -11    1    3    3    0    0  0.50517485484E+01 -0.89048811540E+02  0.14308878651E+03  0.16861082950E+03  0.00000000000E+00 0. -1.
         22    1    1    2    0    0 -0.52817764393E+02  0.72906795727E+03  0.11036789438E+04  0.13237964396E+04  0.00000000000E+00 0. -1.
<mgrwt>
<rscale>  0 0.14844096E+04</rscale>
<asrwt>0</asrwt>
<pdfrwt beam="1">  1        2 0.39911882E-01 0.14844096E+04</pdfrwt>
<pdfrwt beam="2">  1       -2 0.32667705E+00 0.14844096E+04</pdfrwt>
<totfact> 0.27350264E+00</totfact>
</mgrwt>
</event>
<event>
 6    1  0.1885829E-005  0.1169160E+04  0.7818608E-02  0.9140288E-01
          2   -1    0    0  501    0  0.00000000000E+00  0.00000000000E+00  0.24492700263E+04  0.24492700263E+04  0.00000000000E+00 0.  1.
         -2   -1    0    0    0  501 -0.00000000000E+00 -0.00000000000E+00 -0.13952468559E+03  0.13952468559E+03  0.00000000000E+00 0. -1.
         23    2    1    2    0    0  0.52497505445E+03  0.16607770364E+03  0.75301359211E+03  0.93755446634E+03  0.93799232432E+02 0.  0.
         13    1    3    3    0    0  0.14106686852E+03  0.17856987825E+02  0.25041876922E+03  0.28797273028E+03  0.00000000000E+00 0.  1.
        -13    1    3    3    0    0  0.38390818593E+03  0.14822071581E+03  0.50259482290E+03  0.64958173606E+03  0.00000000000E+00 0. -1.
         22    1    1    2    0    0 -0.52497505445E+03 -0.16607770364E+03  0.15567317486E+04  0.16512402455E+04  0.00000000000E+00 0. -1.
<mgrwt>
<rscale>  0 0.11691598E+04</rscale>
<asrwt>0</asrwt>
<pdfrwt beam="1">  1        2 0.37681074E+00 0.11691598E+04</pdfrwt>
<pdfrwt beam="2">  1       -2 0.21465338E-01 0.11691598E+04</pdfrwt>
<totfact> 0.69903315E+01</totfact>
</mgrwt>
</event>
<event>
 6    1  0.1885829E-005  0.2918706E+04  0.7818608E-02  0.8267334E-01
          1   -1    0    0  501    0  0.00000000000E+00  0.00000000000E+00  0.21545510322E+04  0.21545510322E+04  0.00000000000E+00 0. -1.
         -1   -1    0    0    0  501 -0.00000000000E+00 -0.00000000000E+00 -0.98847097709E+03  0.98847097709E+03  0.00000000000E+00 0.  1.
         23    2    1    2    0    0 -0.33494430411E+03 -0.13987685578E+04  0.84046302967E+03  0.16683126778E+04  0.90265837956E+02 0.  0.
         11    1    3    3    0    0 -0.20404252442E+03 -0.91069548894E+03  0.59212354574E+03  0.11052646374E+04  0.00000000000E+00 0. -1.
        -11    1    3    3    0    0 -0.13090177969E+03 -0.48807306885E+03  0.24833948392E+03  0.56304804035E+03  0.00000000000E+00 0.  1.
         22    1    1    2    0    0  0.33494430411E+03  0.13987685578E+04  0.32561702545E+03  0.14747093315E+04  0.00000000000E+00 0.  1.
<mgrwt>
<rscale>  0 0.29187060E+04</rscale>
<asrwt>0</asrwt>
<pdfrwt beam="1">  1        1 0.33146939E+00 0.29187060E+04</pdfrwt>
<pdfrwt beam="2">  1       -1 0.15207246E+00 0.29187060E+04</pdfrwt>
<totfact> 0.67393933E-01</totfact>
</mgrwt>
</event>
<event>
 6    1  0.1885829E-005  0.1632521E+04  0.7818608E-02  0.8800815E-01
         -1   -1    0    0    0  501 -0.00000000000E+00  0.00000000000E+00  0.92031467584E+03  0.92031467584E+03  0.00000000000E+00 0.  1.
          1   -1    0    0  501    0  0.00000000000E+00 -0.00000000000E+00 -0.72397099856E+03  0.72397099856E+03  0.00000000000E+00 0. -1.
         23    2    1    2    0    0 -0.38910779095E+03  0.70792922066E+03  0.19668332718E+03  0.83646838702E+03  0.91795298633E+02 0.  0.
         11    1    3    3    0    0 -0.10922335738E+03  0.28452487230E+03  0.57061751305E+02  0.31006481293E+03  0.00000000000E+00 0.  1.
        -11    1    3    3    0    0 -0.27988443358E+03  0.42340434836E+03  0.13962157587E+03  0.52640357409E+03  0.00000000000E+00 0. -1.
         22    1    1    2    0    0  0.38910779095E+03 -0.70792922066E+03 -0.33964989696E+00  0.80781728739E+03  0.00000000000E+00 0. -1.
<mgrwt>
<rscale>  0 0.16325209E+04</rscale>
<asrwt>0</asrwt>
<pdfrwt beam="1">  1        1 0.11138015E+00 0.16325209E+04</pdfrwt>
<pdfrwt beam="2">  1       -1 0.14158687E+00 0.16325209E+04</pdfrwt>
<totfact> 0.10077222E+01</totfact>
</mgrwt>
</event>
<event>
 6    1  0.1885829E-005  0.3139986E+03  0.7818608E-02  0.1078445E+00
         -1   -1    0    0    0  501 -0.00000000000E+00  0.00000000000E+00  0.24669284380E+03  0.24669284380E+03  0.00000000000E+00 0.  1.
          1   -1    0    0  501    0  0.00000000000E+00 -0.00000000000E+00 -0.99916882860E+02  0.99916882860E+02  0.00000000000E+00 0. -1.
         23    2    1    2    0    0  0.15591984225E+02 -0.51073235502E+02  0.22708263972E+03  0.25016934086E+03  0.90369178862E+02 0.  0.
         11    1    3    3    0    0 -0.11679803271E+02  0.15598474555E+02  0.11700923708E+03  0.11862078981E+03  0.00000000000E+00 0. -1.
        -11    1    3    3    0    0  0.27271787496E+02 -0.66671710057E+02  0.11007340264E+03  0.13154855105E+03  0.00000000000E+00 0.  1.
         22    1    1    2    0    0 -0.15591984225E+02  0.51073235502E+02 -0.80306678779E+02  0.96440385799E+02  0.00000000000E+00 0. -1.
<mgrwt>
<rscale>  0 0.31399860E+03</rscale>
<asrwt>0</asrwt>
<pdfrwt beam="1">  1        1 0.15371828E-01 0.31399860E+03</pdfrwt>
<pdfrwt beam="2">  1       -1 0.37952745E-01 0.31399860E+03</pdfrwt>
<totfact> 0.24475303E+03</totfact>
</mgrwt>
</event>
<event>
 6    1  0.1885829E-005  0.2968114E+04  0.7818608E-02  0.8252895E-01
          2   -1    0    0  501    0  0.00000000000E+00  0.00000000000E+00  0.11282289309E+04  0.11282289309E+04  0.00000000000E+00 0. -1.
         -2   -1    0    0    0  501 -0.00000000000E+00 -0.00000000000E+00 -0.19521084526E+04  0.19521084526E+04  0.00000000000E+00 0.  1.
         23    2    1    2    0    0  0.11061506982E+04  0.42296501765E+03 -0.13380890032E+04  0.17892602501E+04  0.92202433244E+02 0.  0.
         13    1    3    3    0    0  0.22550204806E+03  0.94132359052E+02 -0.33351760756E+03  0.41345624830E+03  0.00000000000E+00 0. -1.
        -13    1    3    3    0    0  0.88064865018E+03  0.32883265860E+03 -0.10045713957E+04  0.13758040018E+04  0.00000000000E+00 0.  1.
         22    1    1    2    0    0 -0.11061506982E+04 -0.42296501765E+03  0.51420948160E+03  0.12910771334E+04  0.00000000000E+00 0. -1.
<mgrwt>
<rscale>  0 0.29681140E+04</rscale>
<asrwt>0</asrwt>
<pdfrwt beam="1">  1        2 0.17357368E+00 0.29681140E+04</pdfrwt>
<pdfrwt beam="2">  1       -2 0.30032437E+00 0.29681140E+04</pdfrwt>
<totfact> 0.56836844E-01</totfact>
</mgrwt>
</event>
<event>
 6    1  0.3642258E-005  0.3247620E+04  0.7818608E-02  0.8176353E-01
         -2   -1    0    0    0  501 -0.00000000000E+00  0.00000000000E+00  0.10408862416E+04  0.10408862416E+04  0.00000000000E+00 0.  1.
          2   -1    0    0  501    0  0.00000000000E+00 -0.00000000000E+00 -0.25331864258E+04  0.25331864258E+04  0.00000000000E+00 0. -1.
         23    2    1    2    0    0  0.14156189756E+04  0.79166969136E+03 -0.79214637761E+03  0.18074563149E+04  0.93190463754E+02 0.  0.
         13    1    3    3    0    0  0.43558421849E+03  0.26455575562E+03 -0.20560684180E+03  0.54954302163E+03  0.00000000000E+00 0. -1.
        -13    1    3    3    0    0  0.98003475707E+03  0.52711393574E+03 -0.58653953582E+03  0.12579132933E+04  0.00000000000E+00 0.  1.
         22    1    1    2    0    0 -0.14156189756E+04 -0.79166969136E+03 -0.70015380656E+03  0.17666163525E+04  0.00000000000E+00 0. -1.
<mgrwt>
<rscale>  0 0.32476200E+04</rscale>
<asrwt>0</asrwt>
<pdfrwt beam="1">  1        2 0.38972099E+00 0.32476200E+04</pdfrwt>
<pdfrwt beam="2">  1       -2 0.16013634E+00 0.32476200E+04</pdfrwt>
<totfact> 0.70175432E-01</totfact>
</mgrwt>
</event>
<event>
 6    1  0.1885829E-005  0.1331138E+04  0.7818608E-02  0.9005230E-01
          1   -1    0    0  501    0  0.00000000000E+00  0.00000000000E+00  0.12789658518E+04  0.12789658518E+04  0.00000000000E+00 0. -1.
         -1   -1    0    0    0  501 -0.00000000000E+00 -0.00000000000E+00 -0.34635969534E+03  0.34635969534E+03  0.00000000000E+00 0.  1.
         23    2    1    2    0    0 -0.12863004438E+03 -0.47631332506E+02  0.12597851652E+04  0.12705572624E+04  0.91883961329E+02 0.  0.
         13    1    3    3    0    0 -0.13207837002E+02 -0.44013545960E+02  0.49126675873E+03  0.49341125587E+03  0.00000000000E+00 0.  1.
        -13    1    3    3    0    0 -0.11542220738E+03 -0.36177865459E+01  0.76851840647E+03  0.77714600650E+03  0.00000000000E+00 0. -1.
         22    1    1    2    0    0  0.12863004438E+03  0.47631332506E+02 -0.32717900872E+03  0.35476828480E+03  0.00000000000E+00 0.  1.
<mgrwt>
<rscale>  0 0.13311382E+04</rscale>
<asrwt>0</asrwt>
<pdfrwt beam="1">  1        1 0.19676398E+00 0.13311382E+04</pdfrwt>
<pdfrwt beam="2">  1       -1 0.53286108E-01 0.13311382E+04</pdfrwt>
<totfact> 0.32607039E+01</totfact>
</mgrwt>
</event>
<event>
 6    1  0.1885829E-005  0.2110393E+04  0.7818608E-02  0.8556679E-01
         -2   -1    0    0    0  501 -0.00000000000E+00  0.00000000000E+00  0.65778644544E+03  0.65778644544E+03  0.00000000000E+00 0. -1.
          2   -1    0    0  501    0  0.00000000000E+00 -0.00000000000E+00 -0.16927062482E+04  0.16927062482E+04  0.00000000000E+00 0.  1.
         23    2    1    2    0    0 -0.82219735407E+03  0.29023933320E+03  0.13976007456E+03  0.88757773583E+03  0.89520942452E+02 0.  0.
         13    1    3    3    0    0 -0.38288014446E+03  0.14820146174E+03  0.22321248555E+02  0.41116799051E+03  0.00000000000E+00 0. -1.
        -13    1    3    3    0    0 -0.43931720961E+03  0.14203787146E+03  0.11743882601E+03  0.47640974532E+03  0.00000000000E+00 0.  1.
         22    1    1    2    0    0  0.82219735407E+03 -0.29023933320E+03 -0.11746798773E+04  0.14629149578E+04  0.00000000000E+00 0.  1.
<mgrwt>
<rscale>  0 0.21103926E+04</rscale>
<asrwt>0</asrwt>
<pdfrwt beam="1">  1        2 0.26041634E+00 0.21103926E+04</pdfrwt>
<pdfrwt beam="2">  1       -2 0.10119792E+00 0.21103926E+04</pdfrwt>
<totfact> 0.73188425E+00</totfact>
</mgrwt>
</event>
<event>
 6    1  0.2410400E-005  0.2942265E+04  0.7818608E-02  0.8260412E-01
          2   -1    0    0  501    0  0.00000000000E+00  0.00000000000E+00  0.18331066817E+04  0.18331066817E+04  0.00000000000E+00 0. -1.
         -2   -1    0    0    0  501 -0.00000000000E+00 -0.00000000000E+00 -0.11806358035E+04  0.11806358035E+04  0.00000000000E+00 0.  1.
         23    2    1    2    0    0  0.75650854380E+03 -0.80932854936E+03  0.13159115105E+04  0.17224364215E+04  0.88579032555E+02 0.  0.
         11    1    3    3    0    0  0.40866598011E+03 -0.39360557638E+03  0.62213213264E+03  0.84201046521E+03  0.00000000000E+00 0. -1.
        -11    1    3    3    0    0  0.34784256368E+03 -0.41572297298E+03  0.69377937783E+03  0.88042595627E+03  0.00000000000E+00 0.  1.
         22    1    1    2    0    0 -0.75650854380E+03  0.80932854936E+03 -0.66344063229E+03  0.12913060637E+04  0.00000000000E+00 0.  1.
<mgrwt>
<rscale>  0 0.29422654E+04</rscale>
<asrwt>0</asrwt>
<pdfrwt beam="1">  1        2 0.28201641E+00 0.29422654E+04</pdfrwt>
<pdfrwt beam="2">  1       -2 0.18163628E+00 0.29422654E+04</pdfrwt>
<totfact> 0.12570178E+00</totfact>
</mgrwt>
</event>
<event>
 6    1  0.1885829E-005  0.3547800E+04  0.7818608E-02  0.8102554E-01
         -2   -1    0    0    0  501 -0.00000000000E+00  0.00000000000E+00  0.10476929225E+04  0.10476929225E+04  0.00000000000E+00 0.  1.
          2   -1    0    0  501    0  0.00000000000E+00 -0.00000000000E+00 -0.30034770195E+04  0.30034770195E+04  0.00000000000E+00 0. -1.
         23    2    1    2    0    0  0.13043660865E+04  0.95617507482E+03 -0.14958479469E+03  0.16267117384E+04  0.90409112693E+02 0.  0.
         11    1    3    3    0    0  0.94672527309E+03  0.65932885476E+03 -0.13655525111E+03  0.11617446441E+04  0.00000000000E+00 0.  1.
        -11    1    3    3    0    0  0.35764081339E+03  0.29684622006E+03 -0.13029543581E+02  0.46496709429E+03  0.00000000000E+00 0. -1.
         22    1    1    2    0    0 -0.13043660865E+04 -0.95617507482E+03 -0.18061993024E+04  0.24244582036E+04  0.00000000000E+00 0. -1.
<mgrwt>
<rscale>  0 0.35478002E+04</rscale>
<asrwt>0</asrwt>
<pdfrwt beam="1">  1        2 0.46207338E+00 0.35478002E+04</pdfrwt>
<pdfrwt beam="2">  1       -2 0.16118353E+00 0.35478002E+04</pdfrwt>
<totfact> 0.34982477E-01</totfact>
</mgrwt>
</event>
<event>
 6    1  0.1885829E-005  0.4261217E+03  0.7818608E-02  0.1035092E+00
         -2   -1    0    0    0  501 -0.00000000000E+00  0.00000000000E+00  0.80171820185E+02  0.80171820185E+02  0.00000000000E+00 0.  1.
          2   -1    0    0  501    0  0.00000000000E+00 -0.00000000000E+00 -0.56622042673E+03  0.56622042673E+03  0.00000000000E+00 0. -1.
         23    2    1    2    0    0 -0.49109181637E+02  0.81169322544E+02  0.15949610361E+02  0.13550832622E+03  0.95435558166E+02 0.  0.
         13    1    3    3    0    0 -0.57217356347E+02  0.98464845297E+02  0.61714145130E+01  0.11404927875E+03  0.00000000000E+00 0. -1.
        -13    1    3    3    0    0  0.81081747097E+01 -0.17295522753E+02  0.97781958476E+01  0.21459047473E+02  0.00000000000E+00 0.  1.
         22    1    1    2    0    0  0.49109181637E+02 -0.81169322544E+02 -0.50199821691E+03  0.51088392069E+03  0.00000000000E+00 0. -1.
<mgrwt>
<rscale>  0 0.42612168E+03</rscale>
<asrwt>0</asrwt>
<pdfrwt beam="1">  1        2 0.87110834E-01 0.42612168E+03</pdfrwt>
<pdfrwt beam="2">  1       -2 0.12334126E-01 0.42612168E+03</pdfrwt>
<totfact> 0.25673267E+03</totfact>
</mgrwt>
</event>
<event>
 6    1  0.1885829E-005  0.1833849E+04  0.7818608E-02  0.8688503E-01
          2   -1    0    0  501    0  0.00000000000E+00  0.00000000000E+00  0.13238122468E+04  0.13238122468E+04  0.00000000000E+00 0. -1.
         -2   -1    0    0    0  501 -0.00000000000E+00 -0.00000000000E+00 -0.63509833653E+03  0.63509833653E+03  0.00000000000E+00 0.  1.
         23    2    1    2    0    0 -0.70984760344E+03  0.51670567748E+03  0.71510313176E+02  0.88568709425E+03  0.91975685850E+02 0.  0.
         13    1    3    3    0    0 -0.25738218749E+03  0.18696928359E+03  0.70391125194E+02  0.32581898955E+03  0.00000000000E+00 0. -1.
        -13    1    3    3    0    0 -0.45246541595E+03  0.32973639389E+03  0.11191879827E+01  0.55986810470E+03  0.00000000000E+00 0.  1.
         22    1    1    2    0    0  0.70984760344E+03 -0.51670567748E+03  0.61720359710E+03  0.10732234891E+04  0.00000000000E+00 0. -1.
<mgrwt>
<rscale>  0 0.18338495E+04</rscale>
<asrwt>0</asrwt>
<pdfrwt beam="1">  1        2 0.20366342E+00 0.18338495E+04</pdfrwt>
<pdfrwt beam="2">  1       -2 0.97707437E-01 0.18338495E+04</pdfrwt>
<totfact> 0.13155551E+01</totfact>
</mgrwt>
</event>
<event>
 6    1  0.1885829E-005  0.2940054E+04  0.7818608E-02  0.8261059E-01
         -2   -1    0    0    0  501 -0.00000000000E+00  0.00000000000E+00  0.16623253018E+04  0.16623253018E+04  0.00000000000E+00 0.  1.
          2   -1    0    0  501    0  0.00000000000E+00 -0.00000000000E+00 -0.12999734195E+04  0.12999734195E+04  0.00000000000E+00 0. -1.
         23    2    1    2    0    0  0.12383794552E+04  0.23868533414E+03 -0.57702571251E+03  0.13897261063E+04  0.88462500225E+02 0.  0.
         13    1    3    3    0    0  0.58563845683E+03  0.15641707789E+03 -0.28900707390E+03  0.67153837801E+03  0.00000000000E+00 0. -1.
        -13    1    3    3    0    0  0.65274099832E+03  0.82268256257E+02 -0.28801863861E+03  0.71818772829E+03  0.00000000000E+00 0.  1.
         22    1    1    2    0    0 -0.12383794552E+04 -0.23868533414E+03  0.93937759486E+03  0.15725726150E+04  0.00000000000E+00 0.  1.
<mgrwt>
<rscale>  0 0.29400535E+04</rscale>
<asrwt>0</asrwt>
<pdfrwt beam="1">  1        2 0.19999591E+00 0.29400535E+04</pdfrwt>
<pdfrwt beam="2">  1       -2 0.25574236E+00 0.29400535E+04</pdfrwt>
<totfact> 0.84257616E-01</totfact>
</mgrwt>
</event>
<event>
 6    1  0.1885829E-005  0.8500296E+03  0.7818608E-02  0.9490297E-01
         -1   -1    0    0    0  501 -0.00000000000E+00  0.00000000000E+00  0.10731388668E+03  0.10731388668E+03  0.00000000000E+00 0.  1.
          1   -1    0    0  501    0  0.00000000000E+00 -0.00000000000E+00 -0.16832636268E+04  0.16832636268E+04  0.00000000000E+00 0. -1.
         23    2    1    2    0    0  0.35219113478E+03 -0.14712684552E+03 -0.11669615511E+04  0.12311525919E+04  0.90843485188E+02 0.  0.
         11    1    3    3    0    0  0.85178929538E+02 -0.64655405906E+01 -0.18315569346E+03  0.20209715807E+03  0.00000000000E+00 0.  1.
        -11    1    3    3    0    0  0.26701220524E+03 -0.14066130493E+03 -0.98380585761E+03  0.10290554338E+04  0.00000000000E+00 0. -1.
         22    1    1    2    0    0 -0.35219113478E+03  0.14712684552E+03 -0.40898818907E+03  0.55942492158E+03  0.00000000000E+00 0. -1.
<mgrwt>
<rscale>  0 0.85002956E+03</rscale>
<asrwt>0</asrwt>
<pdfrwt beam="1">  1        1 0.25896362E+00 0.85002956E+03</pdfrwt>
<pdfrwt beam="2">  1       -1 0.16509829E-01 0.85002956E+03</pdfrwt>
<totfact> 0.13960390E+02</totfact>
</mgrwt>
</event>
<event>
 6    1  0.1885829E-005  0.2158833E+04  0.7818608E-02  0.8535761E-01
          1   -1    0    0  501    0  0.00000000000E+00  0.00000000000E+00  0.12008708608E+04  0.12008708608E+04  0.00000000000E+00 0. -1.
         -1   -1    0    0    0  501 -0.00000000000E+00 -0.00000000000E+00 -0.97024558950E+03  0.97024558950E+03  0.00000000000E+00 0.  1.
         23    2    1    2    0    0  0.49532208028E+02  0.66948158477E+03 -0.73207683304E+03  0.99746642850E+03  0.91344154382E+02 0.  0.
         11    1    3    3    0    0  0.30614574306E+01  0.40858688130E+03 -0.39096594919E+03  0.56551479691E+03  0.00000000000E+00 0.  1.
        -11    1    3    3    0    0  0.46470750598E+02  0.26089470346E+03 -0.34111088384E+03  0.43195163159E+03  0.00000000000E+00 0. -1.
         22    1    1    2    0    0 -0.49532208028E+02 -0.66948158477E+03  0.96270210435E+03  0.11736500218E+04  0.00000000000E+00 0. -1.
<mgrwt>
<rscale>  0 0.21588327E+04</rscale>
<asrwt>0</asrwt>
<pdfrwt beam="1">  1        1 0.18474936E+00 0.21588327E+04</pdfrwt>
<pdfrwt beam="2">  1       -1 0.14926855E+00 0.21588327E+04</pdfrwt>
<totfact> 0.34518030E+00</totfact>
</mgrwt>
</event>
<event>
 6    1  0.1885829E-005  0.1322424E+04  0.7818608E-02  0.9011970E-01
         -2   -1    0    0    0  501 -0.00000000000E+00  0.00000000000E+00  0.21437194637E+03  0.21437194637E+03  0.00000000000E+00 0.  1.
          2   -1    0    0  501    0  0.00000000000E+00 -0.00000000000E+00 -0.20394511602E+04  0.20394511602E+04  0.00000000000E+00 0. -1.
         23    2    1    2    0    0  0.61169301647E+03  0.19017916476E+03 -0.11734041462E+04  0.13400305399E+04  0.92022260915E+02 0.  0.
         13    1    3    3    0    0  0.53589252843E+03  0.19284783108E+03 -0.10010552678E+04  0.11517303231E+04  0.00000000000E+00 0. -1.
        -13    1    3    3    0    0  0.75800488040E+02 -0.26686663167E+01 -0.17234887840E+03  0.18830021681E+03  0.00000000000E+00 0.  1.
         22    1    1    2    0    0 -0.61169301647E+03 -0.19017916476E+03 -0.65167506768E+03  0.91379256669E+03  0.00000000000E+00 0. -1.
<mgrwt>
<rscale>  0 0.13224237E+04</rscale>
<asrwt>0</asrwt>
<pdfrwt beam="1">  1        2 0.31376173E+00 0.13224237E+04</pdfrwt>
<pdfrwt beam="2">  1       -2 0.32980298E-01 0.13224237E+04</pdfrwt>
<totfact> 0.53386821E+01</totfact>
</mgrwt>
</event>
<event>
 6    1  0.1885829E-005  0.3256916E+04  0.7818608E-02  0.8173946E-01
         -2   -1    0    0    0  501 -0.00000000000E+00  0.00000000000E+00  0.19750100512E+04  0.19750100512E+04  0.00000000000E+00 0.  1.
          2   -1    0    0  501    0  0.00000000000E+00 -0.00000000000E+00 -0.13427147439E+04  0.13427147439E+04  0.00000000000E+00 0. -1.
         23    2    1    2    0    0 -0.68669085931E+03 -0.27574799480E+02 -0.11858100819E+04  0.13740653824E+04  0.98007239130E+02 0.  0.
         13    1    3    3    0    0 -0.60511473831E+03  0.55079586052E+01 -0.10089662067E+04  0.11765232639E+04  0.00000000000E+00 0.  1.
        -13    1    3    3    0    0 -0.81576120999E+02 -0.33082758085E+02 -0.17684387521E+03  0.19754211854E+03  0.00000000000E+00 0. -1.
         22    1    1    2    0    0  0.68669085931E+03  0.27574799480E+02  0.18181053893E+04  0.19436594126E+04  0.00000000000E+00 0.  1.
<mgrwt>
<rscale>  0 0.32569158E+04</rscale>
<asrwt>0</asrwt>
<pdfrwt beam="1">  1        2 0.20657150E+00 0.32569158E+04</pdfrwt>
<pdfrwt beam="2">  1       -2 0.30384770E+00 0.32569158E+04</pdfrwt>
<totfact> 0.39387667E-01</totfact>
</mgrwt>
</event>
<event>
 6    1  0.1885829E-005  0.3983072E+04  0.7818608E-02  0.8007970E-01
         -1   -1    0    0    0  501 -0.00000000000E+00  0.00000000000E+00  0.11045415985E+04  0.11045415985E+04  0.00000000000E+00 0.  1.
          1   -1    0    0  501    0  0.00000000000E+00 -0.00000000000E+00 -0.35908257848E+04  0.35908257848E+04  0.00000000000E+00 0. -1.
         23    2    1    2    0    0  0.11827254198E+03 -0.19205059088E+04 -0.64238248492E+03  0.20303524069E+04  0.85698886628E+02 0.  0.
         13    1    3    3    0    0 -0.89651597145E+01 -0.31612823976E+03 -0.90614541171E+02  0.32898090086E+03  0.00000000000E+00 0.  1.
        -13    1    3    3    0    0  0.12723770169E+03 -0.16043776691E+04 -0.55176794375E+03  0.17013715060E+04  0.00000000000E+00 0. -1.
         22    1    1    2    0    0 -0.11827254198E+03  0.19205059088E+04 -0.18439017015E+04  0.26650149764E+04  0.00000000000E+00 0.  1.
<mgrwt>
<rscale>  0 0.39830724E+04</rscale>
<asrwt>0</asrwt>
<pdfrwt beam="1">  1        1 0.55243474E+00 0.39830724E+04</pdfrwt>
<pdfrwt beam="2">  1       -1 0.16992948E+00 0.39830724E+04</pdfrwt>
<totfact> 0.40776248E-02</totfact>
</mgrwt>
</event>
<event>
 6    1  0.1885829E-005  0.5448679E+03  0.7818608E-02  0.1002689E+00
          2   -1    0    0  501    0  0.00000000000E+00  0.00000000000E+00  0.56467292849E+03  0.56467292849E+03  0.00000000000E+00 0. -1.
         -2   -1    0    0    0  501 -0.00000000000E+00 -0.00000000000E+00 -0.13143939435E+03  0.13143939435E+03  0.00000000000E+00 0.  1.
         23    2    1    2    0    0  0.17039275482E+02  0.19543637423E+03  0.45022859884E+03  0.49919979022E+03  0.89492603390E+02 0.  0.
         11    1    3    3    0    0  0.45716274490E+02  0.15407201768E+03  0.29393349278E+03  0.33500009338E+03  0.00000000000E+00 0. -1.
        -11    1    3    3    0    0 -0.28676999008E+02  0.41364356550E+02  0.15629510606E+03  0.16419969685E+03  0.00000000000E+00 0.  1.
         22    1    1    2    0    0 -0.17039275482E+02 -0.19543637423E+03 -0.16995064701E+02  0.19691253262E+03  0.00000000000E+00 0.  1.
<mgrwt>
<rscale>  0 0.54486794E+03</rscale>
<asrwt>0</asrwt>
<pdfrwt beam="1">  1        2 0.86872757E-01 0.54486794E+03</pdfrwt>
<pdfrwt beam="2">  1       -2 0.20221446E-01 0.54486794E+03</pdfrwt>
<totfact> 0.11193466E+03</totfact>
</mgrwt>
</event>
<event>
 6    1  0.1885829E-005  0.2092675E+04  0.7818608E-02  0.8564477E-01
          2   -1    0    0  501    0  0.00000000000E+00  0.00000000000E+00  0.83441829480E+03  0.83441829480E+03  0.00000000000E+00 0. -1.
         -2   -1    0    0    0  501 -0.00000000000E+00 -0.00000000000E+00 -0.13120781100E+04  0.13120781100E+04  0.00000000000E+00 0.  1.
         23    2    1    2    0    0 -0.59965229331E+03  0.10988371717E+03  0.63029440787E+03  0.88189375393E+03  0.93852269359E+02 0.  0.
         13    1    3    3    0    0 -0.30014669416E+03  0.96340168825E+02  0.35644741573E+03  0.47584054716E+03  0.00000000000E+00 0. -1.
        -13    1    3    3    0    0 -0.29950559915E+03  0.13543548345E+02  0.27384699214E+03  0.40605320677E+03  0.00000000000E+00 0.  1.
         22    1    1    2    0    0  0.59965229331E+03 -0.10988371717E+03 -0.11079542231E+04  0.12646026509E+04  0.00000000000E+00 0.  1.
<mgrwt>
<rscale>  0 0.20926748E+04</rscale>
<asrwt>0</asrwt>
<pdfrwt beam="1">  1        2 0.12837205E+00 0.20926748E+04</pdfrwt>
<pdfrwt beam="2">  1       -2 0.20185817E+00 0.20926748E+04</pdfrwt>
<totfact> 0.38795820E+00</totfact>
</mgrwt>
</event>
<event>
 6    1  0.1885829E-005  0.1340875E+04  0.7818608E-02  0.8997764E-01
          2   -1    0    0  501    0  0.00000000000E+00  0.00000000000E+00  0.10061472828E+04  0.10061472828E+04  0.00000000000E+00 0.  1.
         -2   -1    0    0    0  501 -0.00000000000E+00 -0.00000000000E+00 -0.44674031096E+03  0.44674031096E+03  0.00000000000E+00 0. -1.
         23    2    1    2    0    0  0.30303324594E+03 -0.41707145544E+03 -0.17811095719E+03  0.55304847330E+03  0.91440437755E+02 0.  0.
         11    1    3    3    0    0  0.20158218947E+03 -0.21024344612E+03 -0.75728507968E+02  0.30095264190E+03  0.00000000000E+00 0. -1.
        -11    1    3    3    0    0  0.10145105647E+03 -0.20682800932E+03 -0.10238244923E+03  0.25209583139E+03  0.00000000000E+00 0.  1.
         22    1    1    2    0    0 -0.30303324594E+03  0.41707145544E+03  0.73751792907E+03  0.89983912050E+03  0.00000000000E+00 0.  1.
<mgrwt>
<rscale>  0 0.13408752E+04</rscale>
<asrwt>0</asrwt>
<pdfrwt beam="1">  1        2 0.15479189E+00 0.13408752E+04</pdfrwt>
<pdfrwt beam="2">  1       -2 0.68729279E-01 0.13408752E+04</pdfrwt>
<totfact> 0.47211173E+01</totfact>
</mgrwt>
</event>
<event>
 6    1  0.1885829E-005  0.4617419E+04  0.7818608E-02  0.7890397E-01
         -2   -1    0    0    0  501 -0.00000000000E+00  0.00000000000E+00  0.12103788062E+04  0.12103788062E+04  0.00000000000E+00 0.  1.
          2   -1    0    0  501    0  0.00000000000E+00 -0.00000000000E+00 -0.44036957889E+04  0.44036957889E+04  0.00000000000E+00 0. -1.
         23    2    1    2    0    0  0.11380465223E+03  0.13007899919E+04  0.71637352984E+03  0.14920986120E+04  0.90338981895E+02 0.  0.
         13    1    3    3    0    0  0.36714446751E+02  0.64785276472E+03  0.30961278739E+03  0.71897234541E+03  0.00000000000E+00 0. -1.
        -13    1    3    3    0    0  0.77090205481E+02  0.65293722719E+03  0.40676074245E+03  0.77312626655E+03  0.00000000000E+00 0.  1.
         22    1    1    2    0    0 -0.11380465223E+03 -0.13007899919E+04 -0.39096905126E+04  0.41219759832E+04  0.00000000000E+00 0. -1.
<mgrwt>
<rscale>  0 0.46174192E+04</rscale>
<asrwt>0</asrwt>
<pdfrwt beam="1">  1        2 0.67749166E+00 0.46174192E+04</pdfrwt>
<pdfrwt beam="2">  1       -2 0.18621212E+00 0.46174192E+04</pdfrwt>
<totfact> 0.18640233E-02</totfact>
</mgrwt>
</event>
<event>
 6    1  0.1885829E-005  0.3095889E+04  0.7818608E-02  0.8216867E-01
          2   -1    0    0  501    0  0.00000000000E+00  0.00000000000E+00  0.25089016339E+04  0.25089016339E+04  0.00000000000E+00 0.  1.
         -2   -1    0    0    0  501 -0.00000000000E+00 -0.00000000000E+00 -0.95505203428E+03  0.95505203428E+03  0.00000000000E+00 0. -1.
         23    2    1    2    0    0  0.23041714069E+03 -0.15313193424E+03  0.24801508023E+04  0.24972192859E+04  0.91731738637E+02 0.  0.
         11    1    3    3    0    0  0.71690795921E+01  0.36303699837E+01  0.29468016809E+03  0.29478971616E+03  0.00000000000E+00 0.  1.
        -11    1    3    3    0    0  0.22324806110E+03 -0.15676230422E+03  0.21854706342E+04  0.22024295697E+04  0.00000000000E+00 0. -1.
         22    1    1    2    0    0 -0.23041714069E+03  0.15313193424E+03 -0.92630120261E+03  0.96673438232E+03  0.00000000000E+00 0. -1.
<mgrwt>
<rscale>  0 0.30958886E+04</rscale>
<asrwt>0</asrwt>
<pdfrwt beam="1">  1        2 0.38598486E+00 0.30958886E+04</pdfrwt>
<pdfrwt beam="2">  1       -2 0.14693108E+00 0.30958886E+04</pdfrwt>
<totfact> 0.92436330E-01</totfact>
</mgrwt>
</event>
<event>
 6    1  0.1885829E-005  0.2939784E+04  0.7818608E-02  0.8261138E-01
         -2   -1    0    0    0  501 -0.00000000000E+00  0.00000000000E+00  0.13550516292E+04  0.13550516292E+04  0.00000000000E+00 0.  1.
          2   -1    0    0  501    0  0.00000000000E+00 -0.00000000000E+00 -0.15944647896E+04  0.15944647896E+04  0.00000000000E+00 0. -1.
         23    2    1    2    0    0  0.11825405000E+03  0.98938441383E+03 -0.12020913895E+04  0.15640147366E+04  0.90845191099E+02 0.  0.
         13    1    3    3    0    0  0.17316510965E+01  0.19132234760E+03 -0.27781149226E+03  0.33732249338E+03  0.00000000000E+00 0.  1.
        -13    1    3    3    0    0  0.11652239891E+03  0.79806206623E+03 -0.92427989725E+03  0.12266922432E+04  0.00000000000E+00 0. -1.
         22    1    1    2    0    0 -0.11825405000E+03 -0.98938441383E+03  0.96267822915E+03  0.13855016823E+04  0.00000000000E+00 0.  1.
<mgrwt>
<rscale>  0 0.29397837E+04</rscale>
<asrwt>0</asrwt>
<pdfrwt beam="1">  1        2 0.24530227E+00 0.29397837E+04</pdfrwt>
<pdfrwt beam="2">  1       -2 0.20846948E+00 0.29397837E+04</pdfrwt>
<totfact> 0.11319421E+00</totfact>
</mgrwt>
</event>
<event>
 6    1  0.1885829E-005  0.2591953E+04  0.7818608E-02  0.8370940E-01
         -2   -1    0    0    0  501 -0.00000000000E+00  0.00000000000E+00  0.45712768617E+03  0.45712768617E+03  0.00000000000E+00 0.  1.
          2   -1    0    0  501    0  0.00000000000E+00 -0.00000000000E+00 -0.36741475069E+04  0.36741475069E+04  0.00000000000E+00 0. -1.
         23    2    1    2    0    0 -0.83647177522E+03 -0.84412902915E+03 -0.24281349853E+04  0.27048888035E+04  0.91351432716E+02 0.  0.
         13    1    3    3    0    0 -0.44676842326E+03 -0.39420807562E+03 -0.11641131986E+04  0.13077314594E+04  0.00000000000E+00 0. -1.
        -13    1    3    3    0    0 -0.38970335196E+03 -0.44992095353E+03 -0.12640217867E+04  0.13971573441E+04  0.00000000000E+00 0.  1.
         22    1    1    2    0    0  0.83647177522E+03  0.84412902915E+03 -0.78888483546E+03  0.14263863895E+04  0.00000000000E+00 0.  1.
<mgrwt>
<rscale>  0 0.25919526E+04</rscale>
<asrwt>0</asrwt>
<pdfrwt beam="1">  1        2 0.56525348E+00 0.25919526E+04</pdfrwt>
<pdfrwt beam="2">  1       -2 0.70327335E-01 0.25919526E+04</pdfrwt>
<totfact> 0.99453833E-01</totfact>
</mgrwt>
</event>
<event>
 6    1  0.1885829E-005  0.1950977E+04  0.7818608E-02  0.8629890E-01
         -2   -1    0    0    0  501 -0.00000000000E+00  0.00000000000E+00  0.55223588391E+03  0.55223588391E+03  0.00000000000E+00 0.  1.
          2   -1    0    0  501    0  0.00000000000E+00 -0.00000000000E+00 -0.17231363834E+04  0.17231363834E+04  0.00000000000E+00 0. -1.
         23    2    1    2    0    0 -0.70990905874E+02 -0.97066183640E+03 -0.60568676757E+03  0.11498987349E+04  0.90479449421E+02 0.  0.
         13    1    3    3    0    0 -0.65631938183E+02 -0.33742602007E+03 -0.19665633264E+03  0.39602725095E+03  0.00000000000E+00 0.  1.
        -13    1    3    3    0    0 -0.53589676917E+01 -0.63323581634E+03 -0.40903043493E+03  0.75387148396E+03  0.00000000000E+00 0. -1.
         22    1    1    2    0    0  0.70990905874E+02  0.97066183640E+03 -0.56521373192E+03  0.11254735324E+04  0.00000000000E+00 0.  1.
<mgrwt>
<rscale>  0 0.19509769E+04</rscale>
<asrwt>0</asrwt>
<pdfrwt beam="1">  1        2 0.26509790E+00 0.19509769E+04</pdfrwt>
<pdfrwt beam="2">  1       -2 0.84959368E-01 0.19509769E+04</pdfrwt>
<totfact> 0.10710950E+01</totfact>
</mgrwt>
</event>
<event>
 6    1  0.1885829E-005  0.4215751E+04  0.7818608E-02  0.7962383E-01
          2   -1    0    0  501    0  0.00000000000E+00  0.00000000000E+00  0.43035639944E+04  0.43035639944E+04  0.00000000000E+00 0. -1.
         -2   -1    0    0    0  501 -0.00000000000E+00 -0.00000000000E+00 -0.10324326282E+04  0.10324326282E+04  0.00000000000E+00 0.  1.
         23    2    1    2    0    0  0.22097247813E+03 -0.16961903197E+04  0.79159569721E+02  0.17145915932E+04  0.87565159153E+02 0.  0.
         11    1    3    3    0    0  0.11400674228E+03 -0.56506088458E+03  0.37017012773E+02  0.57763448633E+03  0.00000000000E+00 0.  1.
        -11    1    3    3    0    0  0.10696573586E+03 -0.11311294352E+04  0.42142556947E+02  0.11369571069E+04  0.00000000000E+00 0. -1.
         22    1    1    2    0    0 -0.22097247813E+03  0.16961903197E+04  0.31919717965E+04  0.36214050293E+04  0.00000000000E+00 0. -1.
<mgrwt>
<rscale>  0 0.42157514E+04</rscale>
<asrwt>0</asrwt>
<pdfrwt beam="1">  1        2 0.66208676E+00 0.42157514E+04</pdfrwt>
<pdfrwt beam="2">  1       -2 0.15883579E+00 0.42157514E+04</pdfrwt>
<totfact> 0.37280887E-02</totfact>
</mgrwt>
</event>
<event>
 6    1  0.1885829E-005  0.7152438E+03  0.7818608E-02  0.9691513E-01
         -3   -1    0    0    0  501 -0.00000000000E+00  0.00000000000E+00  0.65232136302E+03  0.65232136302E+03  0.00000000000E+00 0. -1.
          3   -1    0    0  501    0  0.00000000000E+00 -0.00000000000E+00 -0.19605890142E+03  0.19605890142E+03  0.00000000000E+00 0.  1.
         23    2    1    2    0    0 -0.13399317667E+03 -0.30666722806E+03  0.10287686114E+03  0.36167671733E+03  0.90705232179E+02 0.  0.
         13    1    3    3    0    0 -0.54484288326E+02 -0.50123933332E+02  0.45932145056E+02  0.87124671113E+02  0.00000000000E+00 0.  1.
        -13    1    3    3    0    0 -0.79508888346E+02 -0.25654329472E+03  0.56944716080E+02  0.27455204622E+03  0.00000000000E+00 0. -1.
         22    1    1    2    0    0  0.13399317667E+03  0.30666722806E+03  0.35338560046E+03  0.48670354711E+03  0.00000000000E+00 0.  1.
<mgrwt>
<rscale>  0 0.71524376E+03</rscale>
<asrwt>0</asrwt>
<pdfrwt beam="1">  1        3 0.30162908E-01 0.71524376E+03</pdfrwt>
<pdfrwt beam="2">  1       -3 0.10035713E+00 0.71524376E+03</pdfrwt>
<totfact> 0.24516756E+01</totfact>
</mgrwt>
</event>
<event>
 6    1  0.1885829E-005  0.2425970E+04  0.7818608E-02  0.8429844E-01
          2   -1    0    0  501    0  0.00000000000E+00  0.00000000000E+00  0.21050487994E+04  0.21050487994E+04  0.00000000000E+00 0. -1.
         -2   -1    0    0    0  501 -0.00000000000E+00 -0.00000000000E+00 -0.69895389193E+03  0.69895389193E+03  0.00000000000E+00 0.  1.
         23    2    1    2    0    0  0.83821371989E+03  0.40328785967E+03 -0.19275200514E+03  0.95425817169E+03  0.90620002034E+02 0.  0.
         13    1    3    3    0    0  0.60002970337E+03  0.29247585230E+03 -0.17947835008E+03  0.69122373169E+03  0.00000000000E+00 0. -1.
        -13    1    3    3    0    0  0.23818401652E+03  0.11081200737E+03 -0.13273655056E+02  0.26303443999E+03  0.00000000000E+00 0.  1.
         22    1    1    2    0    0 -0.83821371989E+03 -0.40328785967E+03  0.15988469126E+04  0.18497445196E+04  0.00000000000E+00 0. -1.
<mgrwt>
<rscale>  0 0.24259695E+04</rscale>
<asrwt>0</asrwt>
<pdfrwt beam="1">  1        2 0.32385366E+00 0.24259695E+04</pdfrwt>
<pdfrwt beam="2">  1       -2 0.10753137E+00 0.24259695E+04</pdfrwt>
<totfact> 0.36356231E+00</totfact>
</mgrwt>
</event>
<event>
 6    1  0.1885829E-005  0.2090424E+04  0.7818608E-02  0.8565473E-01
          2   -1    0    0  501    0  0.00000000000E+00  0.00000000000E+00  0.98019181981E+03  0.98019181981E+03  0.00000000000E+00 0. -1.
         -2   -1    0    0    0  501 -0.00000000000E+00 -0.00000000000E+00 -0.11145453247E+04  0.11145453247E+04  0.00000000000E+00 0.  1.
         23    2    1    2    0    0 -0.10557444950E+03  0.99734300965E+03  0.22050934703E+03  0.10308919081E+04  0.90965437179E+02 0.  0.
         11    1    3    3    0    0 -0.48940935218E+02  0.74704285985E+03  0.13744604845E+03  0.76115679451E+03  0.00000000000E+00 0. -1.
        -11    1    3    3    0    0 -0.56633514281E+02  0.25030014981E+03  0.83063298582E+02  0.26973511359E+03  0.00000000000E+00 0.  1.
         22    1    1    2    0    0  0.10557444950E+03 -0.99734300965E+03 -0.35486285188E+03  0.10638452364E+04  0.00000000000E+00 0.  1.
<mgrwt>
<rscale>  0 0.20904241E+04</rscale>
<asrwt>0</asrwt>
<pdfrwt beam="1">  1        2 0.15079874E+00 0.20904241E+04</pdfrwt>
<pdfrwt beam="2">  1       -2 0.17146851E+00 0.20904241E+04</pdfrwt>
<totfact> 0.49773055E+00</totfact>
</mgrwt>
</event>
<event>
 6    1  0.2343650E-005  0.4379209E+04  0.7818608E-02  0.7932132E-01
         -1   -1    0    0    0  501 -0.00000000000E+00  0.00000000000E+00  0.29507366414E+04  0.29507366414E+04  0.00000000000E+00 0.  1.
          1   -1    0    0  501    0  0.00000000000E+00 -0.00000000000E+00 -0.16248040606E+04  0.16248040606E+04  0.00000000000E+00 0. -1.
         23    2    1    2    0    0 -0.78481735325E+03 -0.97767634366E+03 -0.12108577880E+04  0.17458596800E+04  0.10030019229E+03 0.  0.
         13    1    3    3    0    0 -0.26424644759E+03 -0.33554891120E+03 -0.34793993433E+03  0.55089150908E+03  0.00000000000E+00 0.  1.
        -13    1    3    3    0    0 -0.52057090565E+03 -0.64212743247E+03 -0.86291785366E+03  0.11949681709E+04  0.00000000000E+00 0. -1.
         22    1    1    2    0    0  0.78481735325E+03  0.97767634366E+03  0.25367903689E+04  0.28296810220E+04  0.00000000000E+00 0.  1.
<mgrwt>
<rscale>  0 0.43792095E+04</rscale>
<asrwt>0</asrwt>
<pdfrwt beam="1">  1        1 0.24996986E+00 0.43792095E+04</pdfrwt>
<pdfrwt beam="2">  1       -1 0.45395948E+00 0.43792095E+04</pdfrwt>
<totfact> 0.12382856E-02</totfact>
</mgrwt>
</event>
<event>
 6    1  0.1885829E-005  0.2359969E+04  0.7818608E-02  0.8454644E-01
          2   -1    0    0  501    0  0.00000000000E+00  0.00000000000E+00  0.10694837943E+04  0.10694837943E+04  0.00000000000E+00 0.  1.
         -2   -1    0    0    0  501 -0.00000000000E+00 -0.00000000000E+00 -0.13019023492E+04  0.13019023492E+04  0.00000000000E+00 0. -1.
         23    2    1    2    0    0  0.11108014744E+04 -0.24594999469E+03 -0.42431184836E+03  0.12176121832E+04  0.90374601936E+02 0.  0.
         11    1    3    3    0    0  0.55963894440E+03 -0.79218916129E+02 -0.19767478612E+03  0.59878769680E+03  0.00000000000E+00 0. -1.
        -11    1    3    3    0    0  0.55116252995E+03 -0.16673107856E+03 -0.22663706224E+03  0.61882448640E+03  0.00000000000E+00 0.  1.
         22    1    1    2    0    0 -0.11108014744E+04  0.24594999469E+03  0.19189329349E+03  0.11537739603E+04  0.00000000000E+00 0.  1.
<mgrwt>
<rscale>  0 0.23599690E+04</rscale>
<asrwt>0</asrwt>
<pdfrwt beam="1">  1        2 0.16453597E+00 0.23599690E+04</pdfrwt>
<pdfrwt beam="2">  1       -2 0.20029267E+00 0.23599690E+04</pdfrwt>
<totfact> 0.27183399E+00</totfact>
</mgrwt>
</event>
<event>
 6    1  0.1885829E-005  0.4105560E+04  0.7818608E-02  0.7983584E-01
         -2   -1    0    0    0  501 -0.00000000000E+00  0.00000000000E+00  0.23185040942E+04  0.23185040942E+04  0.00000000000E+00 0.  1.
          2   -1    0    0  501    0  0.00000000000E+00 -0.00000000000E+00 -0.18175109848E+04  0.18175109848E+04  0.00000000000E+00 0. -1.
         23    2    1    2    0    0  0.98097735873E+03  0.12797768698E+04 -0.10274210018E+04  0.19142601172E+04  0.93018635529E+02 0.  0.
         11    1    3    3    0    0  0.73271890442E+03  0.90617070538E+03 -0.70754222240E+03  0.13633188683E+04  0.00000000000E+00 0.  1.
        -11    1    3    3    0    0  0.24825845431E+03  0.37360616444E+03 -0.31987877945E+03  0.55094124894E+03  0.00000000000E+00 0. -1.
         22    1    1    2    0    0 -0.98097735873E+03 -0.12797768698E+04  0.15284141112E+04  0.22217549618E+04  0.00000000000E+00 0.  1.
<mgrwt>
<rscale>  0 0.41055605E+04</rscale>
<asrwt>0</asrwt>
<pdfrwt beam="1">  1        2 0.27961708E+00 0.41055605E+04</pdfrwt>
<pdfrwt beam="2">  1       -2 0.35669294E+00 0.41055605E+04</pdfrwt>
<totfact> 0.93128574E-02</totfact>
</mgrwt>
</event>
<event>
 6    1  0.1885829E-005  0.1982924E+04  0.7818608E-02  0.8614646E-01
          2   -1    0    0  501    0  0.00000000000E+00  0.00000000000E+00  0.15938525521E+04  0.15938525521E+04  0.00000000000E+00 0. -1.
         -2   -1    0    0    0  501 -0.00000000000E+00 -0.00000000000E+00 -0.61674263489E+03  0.61674263489E+03  0.00000000000E+00 0.  1.
         23    2    1    2    0    0 -0.83530377049E+03 -0.42243634779E+03  0.84725555925E+03  0.12655835409E+04  0.87606275083E+02 0.  0.
         13    1    3    3    0    0 -0.25864474143E+03 -0.10684400821E+03  0.29972205555E+03  0.41005616072E+03  0.00000000000E+00 0.  1.
        -13    1    3    3    0    0 -0.57665902906E+03 -0.31559233958E+03  0.54753350370E+03  0.85552738020E+03  0.00000000000E+00 0. -1.
         22    1    1    2    0    0  0.83530377049E+03  0.42243634779E+03  0.12985435795E+03  0.94501164607E+03  0.00000000000E+00 0.  1.
<mgrwt>
<rscale>  0 0.19829239E+04</rscale>
<asrwt>0</asrwt>
<pdfrwt beam="1">  1        2 0.24520808E+00 0.19829239E+04</pdfrwt>
<pdfrwt beam="2">  1       -2 0.94883483E-01 0.19829239E+04</pdfrwt>
<totfact> 0.97751699E+00</totfact>
</mgrwt>
</event>
<event>
 6    1  0.1885829E-005  0.1857162E+04  0.7818608E-02  0.8676479E-01
         -2   -1    0    0    0  501 -0.00000000000E+00  0.00000000000E+00  0.58407395670E+03  0.58407395670E+03  0.00000000000E+00 0. -1.
          2   -1    0    0  501    0  0.00000000000E+00 -0.00000000000E+00 -0.14762896752E+04  0.14762896752E+04  0.00000000000E+00 0.  1.
         23    2    1    2    0    0 -0.22571332662E+03 -0.25979483404E+03 -0.14012529402E+04  0.14459055335E+04  0.93237051308E+02 0.  0.
         11    1    3    3    0    0 -0.27206212601E+02 -0.70492652573E+02 -0.43322940955E+03  0.43976938658E+03  0.00000000000E+00 0. -1.
        -11    1    3    3    0    0 -0.19850711402E+03 -0.18930218147E+03 -0.96802353065E+03  0.10061361469E+04  0.00000000000E+00 0.  1.
         22    1    1    2    0    0  0.22571332662E+03  0.25979483404E+03  0.50903722171E+03  0.61445809840E+03  0.00000000000E+00 0. -1.
<mgrwt>
<rscale>  0 0.18571617E+04</rscale>
<asrwt>0</asrwt>
<pdfrwt beam="1">  1        2 0.22712148E+00 0.18571617E+04</pdfrwt>
<pdfrwt beam="2">  1       -2 0.89857533E-01 0.18571617E+04</pdfrwt>
<totfact> 0.13051081E+01</totfact>
</mgrwt>
</event>
<event>
 6    1  0.1885829E-005  0.5710640E+04  0.7818608E-02  0.7727352E-01
          2   -1    0    0  501    0  0.00000000000E+00  0.00000000000E+00  0.37126091903E+04  0.37126091903E+04  0.00000000000E+00 0. -1.
         -2   -1    0    0    0  501 -0.00000000000E+00 -0.00000000000E+00 -0.21959895687E+04  0.21959895687E+04  0.00000000000E+00 0.  1.
         23    2    1    2    0    0  0.27454913860E+04 -0.65427543606E+03  0.31628696381E+03  0.28415810241E+04  0.93519925771E+02 0.  0.
         13    1    3    3    0    0  0.10206738071E+04 -0.26377364790E+03  0.77318875709E+02  0.10570382048E+04  0.00000000000E+00 0.  1.
        -13    1    3    3    0    0  0.17248175789E+04 -0.39050178816E+03  0.23896808811E+03  0.17845428194E+04  0.00000000000E+00 0. -1.
         22    1    1    2    0    0 -0.27454913860E+04  0.65427543606E+03  0.12003326578E+04  0.30670177349E+04  0.00000000000E+00 0.  1.
<mgrwt>
<rscale>  0 0.57106396E+04</rscale>
<asrwt>0</asrwt>
<pdfrwt beam="1">  1        2 0.57117064E+00 0.57106396E+04</pdfrwt>
<pdfrwt beam="2">  1       -2 0.33784455E+00 0.57106396E+04</pdfrwt>
<totfact> 0.72702969E-03</totfact>
</mgrwt>
</event>
<event>
 6    1  0.1885829E-005  0.2808275E+04  0.7818608E-02  0.8300704E-01
         -2   -1    0    0    0  501 -0.00000000000E+00  0.00000000000E+00  0.18202792229E+04  0.18202792229E+04  0.00000000000E+00 0.  1.
          2   -1    0    0  501    0  0.00000000000E+00 -0.00000000000E+00 -0.10831319012E+04  0.10831319012E+04  0.00000000000E+00 0. -1.
         23    2    1    2    0    0 -0.26953433623E+03 -0.13310399838E+04  0.73164037602E+03  0.15453439227E+04  0.92054346709E+02 0.  0.
         11    1    3    3    0    0 -0.71542025971E+02 -0.29205847884E+03  0.12162242221E+03  0.32435849014E+03  0.00000000000E+00 0. -1.
        -11    1    3    3    0    0 -0.19799231026E+03 -0.10389815050E+04  0.61001795381E+03  0.12209854326E+04  0.00000000000E+00 0.  1.
         22    1    1    2    0    0  0.26953433623E+03  0.13310399838E+04  0.55069457607E+01  0.13580672014E+04  0.00000000000E+00 0. -1.
<mgrwt>
<rscale>  0 0.28082753E+04</rscale>
<asrwt>0</asrwt>
<pdfrwt beam="1">  1        2 0.16663568E+00 0.28082753E+04</pdfrwt>
<pdfrwt beam="2">  1       -2 0.28004296E+00 0.28082753E+04</pdfrwt>
<totfact> 0.81672714E-01</totfact>
</mgrwt>
</event>
<event>
 6    1  0.1885829E-005  0.1793038E+04  0.7818608E-02  0.8710010E-01
         -2   -1    0    0    0  501 -0.00000000000E+00  0.00000000000E+00  0.52810977220E+03  0.52810977220E+03  0.00000000000E+00 0.  1.
          2   -1    0    0  501    0  0.00000000000E+00 -0.00000000000E+00 -0.15219309902E+04  0.15219309902E+04  0.00000000000E+00 0. -1.
         23    2    1    2    0    0 -0.63902684695E+03 -0.42822349439E+03 -0.10193740694E+04  0.12803761468E+04  0.92243762172E+02 0.  0.
         11    1    3    3    0    0 -0.43601968799E+03 -0.28326486021E+03 -0.75678173147E+03  0.91818883593E+03  0.00000000000E+00 0. -1.
        -11    1    3    3    0    0 -0.20300715896E+03 -0.14495863418E+03 -0.26259233789E+03  0.36218731084E+03  0.00000000000E+00 0.  1.
         22    1    1    2    0    0  0.63902684695E+03  0.42822349439E+03  0.25552851406E+02  0.76966461559E+03  0.00000000000E+00 0.  1.
<mgrwt>
<rscale>  0 0.17930383E+04</rscale>
<asrwt>0</asrwt>
<pdfrwt beam="1">  1        2 0.23414323E+00 0.17930383E+04</pdfrwt>
<pdfrwt beam="2">  1       -2 0.81247658E-01 0.17930383E+04</pdfrwt>
<totfact> 0.15555936E+01</totfact>
</mgrwt>
</event>
<event>
 6    1  0.1885829E-005  0.2720885E+04  0.7818608E-02  0.8328260E-01
         -2   -1    0    0    0  501 -0.00000000000E+00  0.00000000000E+00  0.14401479228E+04  0.14401479228E+04  0.00000000000E+00 0.  1.
          2   -1    0    0  501    0  0.00000000000E+00 -0.00000000000E+00 -0.12851483478E+04  0.12851483478E+04  0.00000000000E+00 0. -1.
         23    2    1    2    0    0  0.12403122564E+04 -0.21235790210E+03  0.59068709489E+03  0.13936454203E+04  0.99327446966E+02 0.  0.
         13    1    3    3    0    0  0.24026681324E+03 -0.80159739818E+02  0.12957105939E+03  0.28450375193E+03  0.00000000000E+00 0. -1.
        -13    1    3    3    0    0  0.10000454431E+04 -0.13219816228E+03  0.46111603550E+03  0.11091416684E+04  0.00000000000E+00 0.  1.
         22    1    1    2    0    0 -0.12403122564E+04  0.21235790210E+03 -0.43568751995E+03  0.13316508502E+04  0.00000000000E+00 0.  1.
<mgrwt>
<rscale>  0 0.27208849E+04</rscale>
<asrwt>0</asrwt>
<pdfrwt beam="1">  1        2 0.19771513E+00 0.27208849E+04</pdfrwt>
<pdfrwt beam="2">  1       -2 0.22156122E+00 0.27208849E+04</pdfrwt>
<totfact> 0.14270372E+00</totfact>
</mgrwt>
</event>
<event>
 6    1  0.1885829E-005  0.3048517E+04  0.7818608E-02  0.8230011E-01
          1   -1    0    0  501    0  0.00000000000E+00  0.00000000000E+00  0.16295415856E+04  0.16295415856E+04  0.00000000000E+00 0. -1.
         -1   -1    0    0    0  501 -0.00000000000E+00 -0.00000000000E+00 -0.14257778654E+04  0.14257778654E+04  0.00000000000E+00 0.  1.
         23    2    1    2    0    0 -0.14104461558E+04 -0.30401260426E+03  0.59004767681E+03  0.15616671096E+04  0.94158793510E+02 0.  0.
         13    1    3    3    0    0 -0.60287999781E+03 -0.17643624427E+03  0.24490013473E+03  0.67421815167E+03  0.00000000000E+00 0. -1.
        -13    1    3    3    0    0 -0.80756615798E+03 -0.12757635999E+03  0.34514754208E+03  0.88744895794E+03  0.00000000000E+00 0.  1.
         22    1    1    2    0    0  0.14104461558E+04  0.30401260426E+03 -0.38628395654E+03  0.14936523414E+04  0.00000000000E+00 0.  1.
<mgrwt>
<rscale>  0 0.30485172E+04</rscale>
<asrwt>0</asrwt>
<pdfrwt beam="1">  1        1 0.25069870E+00 0.30485172E+04</pdfrwt>
<pdfrwt beam="2">  1       -1 0.21935044E+00 0.30485172E+04</pdfrwt>
<totfact> 0.50175751E-01</totfact>
</mgrwt>
</event>
<event>
 6    1  0.1885829E-005  0.1892919E+04  0.7818608E-02  0.8658389E-01
          2   -1    0    0  501    0  0.00000000000E+00  0.00000000000E+00  0.25599221043E+04  0.25599221043E+04  0.00000000000E+00 0. -1.
         -2   -1    0    0    0  501 -0.00000000000E+00 -0.00000000000E+00 -0.34992679799E+03  0.34992679799E+03  0.00000000000E+00 0.  1.
         23    2    1    2    0    0  0.41308521605E+03 -0.52732502724E+03  0.84580498424E+02  0.68137427025E+03  0.91683997374E+02 0.  0.
         11    1    3    3    0    0  0.39495709976E+02 -0.10531222292E+03  0.15627550421E+02  0.11355525410E+03  0.00000000000E+00 0.  1.
        -11    1    3    3    0    0  0.37358950607E+03 -0.42201280432E+03  0.68952948003E+02  0.56781901615E+03  0.00000000000E+00 0. -1.
         22    1    1    2    0    0 -0.41308521605E+03  0.52732502724E+03  0.21254148079E+04  0.22284746321E+04  0.00000000000E+00 0. -1.
<mgrwt>
<rscale>  0 0.18929187E+04</rscale>
<asrwt>0</asrwt>
<pdfrwt beam="1">  1        2 0.39383416E+00 0.18929187E+04</pdfrwt>
<pdfrwt beam="2">  1       -2 0.53834894E-01 0.18929187E+04</pdfrwt>
<totfact> 0.97948368E+00</totfact>
</mgrwt>
</event>
<event>
 6    1  0.1885829E-005  0.3602014E+04  0.7818608E-02  0.8090031E-01
         -2   -1    0    0    0  501 -0.00000000000E+00  0.00000000000E+00  0.12193523514E+04  0.12193523514E+04  0.00000000000E+00 0.  1.
          2   -1    0    0  501    0  0.00000000000E+00 -0.00000000000E+00 -0.26601215439E+04  0.26601215439E+04  0.00000000000E+00 0. -1.
         23    2    1    2    0    0  0.18019318316E+02 -0.71584978335E+03 -0.24993276459E+04  0.26014630943E+04  0.90586651669E+02 0.  0.
         11    1    3    3    0    0 -0.36671731066E+02 -0.23739070362E+03 -0.83491901975E+03  0.86878589512E+03  0.00000000000E+00 0.  1.
        -11    1    3    3    0    0  0.54691049381E+02 -0.47845907973E+03 -0.16644086261E+04  0.17326771992E+04  0.00000000000E+00 0. -1.
         22    1    1    2    0    0 -0.18019318316E+02  0.71584978335E+03  0.10585584534E+04  0.12780108009E+04  0.00000000000E+00 0.  1.
<mgrwt>
<rscale>  0 0.36020136E+04</rscale>
<asrwt>0</asrwt>
<pdfrwt beam="1">  1        2 0.40924947E+00 0.36020136E+04</pdfrwt>
<pdfrwt beam="2">  1       -2 0.18759267E+00 0.36020136E+04</pdfrwt>
<totfact> 0.36763115E-01</totfact>
</mgrwt>
</event>
<event>
 6    1  0.1885829E-005  0.1456474E+04  0.7818608E-02  0.8913925E-01
         -2   -1    0    0    0  501 -0.00000000000E+00  0.00000000000E+00  0.20555690599E+03  0.20555690599E+03  0.00000000000E+00 0.  1.
          2   -1    0    0  501    0  0.00000000000E+00 -0.00000000000E+00 -0.25799621356E+04  0.25799621356E+04  0.00000000000E+00 0. -1.
         23    2    1    2    0    0 -0.55814836811E+03 -0.39004948093E+03 -0.16696595296E+04  0.18055523585E+04  0.92672412046E+02 0.  0.
         11    1    3    3    0    0 -0.19366754568E+03 -0.18437868962E+03 -0.59738507181E+03  0.65450098813E+03  0.00000000000E+00 0. -1.
        -11    1    3    3    0    0 -0.36448082243E+03 -0.20567079131E+03 -0.10722744578E+04  0.11510513703E+04  0.00000000000E+00 0.  1.
         22    1    1    2    0    0  0.55814836811E+03  0.39004948093E+03 -0.70474570005E+03  0.97996668318E+03  0.00000000000E+00 0.  1.
<mgrwt>
<rscale>  0 0.14564739E+04</rscale>
<asrwt>0</asrwt>
<pdfrwt beam="1">  1        2 0.39691724E+00 0.14564739E+04</pdfrwt>
<pdfrwt beam="2">  1       -2 0.31624140E-01 0.14564739E+04</pdfrwt>
<totfact> 0.28259478E+01</totfact>
</mgrwt>
</event>
<event>
 6    1  0.1885829E-005  0.1761202E+04  0.7818608E-02  0.8727208E-01
         -2   -1    0    0    0  501 -0.00000000000E+00  0.00000000000E+00  0.53673725086E+03  0.53673725086E+03  0.00000000000E+00 0.  1.
          2   -1    0    0  501    0  0.00000000000E+00 -0.00000000000E+00 -0.14447633821E+04  0.14447633821E+04  0.00000000000E+00 0. -1.
         23    2    1    2    0    0  0.44742737050E+03  0.62216410690E+03  0.26545686161E+02  0.77290479081E+03  0.96941809383E+02 0.  0.
         13    1    3    3    0    0  0.36211900746E+03  0.53820044757E+03  0.51179620429E+02  0.65069904785E+03  0.00000000000E+00 0.  1.
        -13    1    3    3    0    0  0.85308363046E+02  0.83963659331E+02 -0.24633934268E+02  0.12220574296E+03  0.00000000000E+00 0. -1.
         22    1    1    2    0    0 -0.44742737050E+03 -0.62216410690E+03 -0.93457181737E+03  0.12085958421E+04  0.00000000000E+00 0.  1.
<mgrwt>
<rscale>  0 0.17612022E+04</rscale>
<asrwt>0</asrwt>
<pdfrwt beam="1">  1        2 0.22227129E+00 0.17612022E+04</pdfrwt>
<pdfrwt beam="2">  1       -2 0.82574963E-01 0.17612022E+04</pdfrwt>
<totfact> 0.16626328E+01</totfact>
</mgrwt>
</event>
<event>
 6    1  0.1885829E-005  0.3768545E+04  0.7818608E-02  0.8052939E-01
          2   -1    0    0  501    0  0.00000000000E+00  0.00000000000E+00  0.25661302720E+04  0.25661302720E+04  0.00000000000E+00 0. -1.
         -2   -1    0    0    0  501 -0.00000000000E+00 -0.00000000000E+00 -0.13835938740E+04  0.13835938740E+04  0.00000000000E+00 0.  1.
         23    2    1    2    0    0  0.78154320174E+03 -0.17119885717E+04  0.66193655191E+03  0.19971005660E+04  0.92390615998E+02 0.  0.
         11    1    3    3    0    0  0.42221679818E+03 -0.95368531201E+03  0.31973824661E+03  0.10908781991E+04  0.00000000000E+00 0. -1.
        -11    1    3    3    0    0  0.35932640356E+03 -0.75830325971E+03  0.34219830530E+03  0.90622236682E+03  0.00000000000E+00 0.  1.
         22    1    1    2    0    0 -0.78154320174E+03  0.17119885717E+04  0.52059984608E+03  0.19526235801E+04  0.00000000000E+00 0.  1.
<mgrwt>
<rscale>  0 0.37685446E+04</rscale>
<asrwt>0</asrwt>
<pdfrwt beam="1">  1        2 0.39478927E+00 0.37685446E+04</pdfrwt>
<pdfrwt beam="2">  1       -2 0.21286060E+00 0.37685446E+04</pdfrwt>
<totfact> 0.28105312E-01</totfact>
</mgrwt>
</event>
<event>
 6    1  0.1885829E-005  0.3032441E+04  0.7818608E-02  0.8234527E-01
         -1   -1    0    0    0  501 -0.00000000000E+00  0.00000000000E+00  0.19790654751E+04  0.19790654751E+04  0.00000000000E+00 0.  1.
          1   -1    0    0  501    0  0.00000000000E+00 -0.00000000000E+00 -0.11616211712E+04  0.11616211712E+04  0.00000000000E+00 0. -1.
         23    2    1    2    0    0 -0.23390702985E+03  0.13989160497E+04  0.96016682879E+03  0.17151873192E+04  0.90931776506E+02 0.  0.
         11    1    3    3    0    0 -0.25737021220E+02  0.27098279559E+03  0.14860738715E+03  0.31012614414E+03  0.00000000000E+00 0. -1.
        -11    1    3    3    0    0 -0.20817000863E+03  0.11279332541E+04  0.81155944163E+03  0.14050611750E+04  0.00000000000E+00 0.  1.
         22    1    1    2    0    0  0.23390702985E+03 -0.13989160497E+04 -0.14272252487E+03  0.14254993272E+04  0.00000000000E+00 0. -1.
<mgrwt>
<rscale>  0 0.30324408E+04</rscale>
<asrwt>0</asrwt>
<pdfrwt beam="1">  1        1 0.17871095E+00 0.30324408E+04</pdfrwt>
<pdfrwt beam="2">  1       -1 0.30447161E+00 0.30324408E+04</pdfrwt>
<totfact> 0.29892875E-01</totfact>
</mgrwt>
</event>
<event>
 6    1  0.1885829E-005  0.1113214E+04  0.7818608E-02  0.9192407E-01
          2   -1    0    0  501    0  0.00000000000E+00  0.00000000000E+00  0.71753304284E+03  0.71753304284E+03  0.00000000000E+00 0.  1.
         -2   -1    0    0    0  501 -0.00000000000E+00 -0.00000000000E+00 -0.43177293620E+03  0.43177293620E+03  0.00000000000E+00 0. -1.
         23    2    1    2    0    0  0.17915144429E+03 -0.40714644304E+03 -0.19407802885E+03  0.49500627528E+03  0.97475459561E+02 0.  0.
         11    1    3    3    0    0  0.98697266807E+02 -0.11310973467E+03 -0.73995352421E+02  0.16736270413E+03  0.00000000000E+00 0. -1.
        -11    1    3    3    0    0  0.80454177488E+02 -0.29403670837E+03 -0.12008267643E+03  0.32764357116E+03  0.00000000000E+00 0.  1.
         22    1    1    2    0    0 -0.17915144429E+03  0.40714644304E+03  0.47983813549E+03  0.65429970376E+03  0.00000000000E+00 0.  1.
<mgrwt>
<rscale>  0 0.11132140E+04</rscale>
<asrwt>0</asrwt>
<pdfrwt beam="1">  1        2 0.11038970E+00 0.11132140E+04</pdfrwt>
<pdfrwt beam="2">  1       -2 0.66426606E-01 0.11132140E+04</pdfrwt>
<totfact> 0.82098426E+01</totfact>
</mgrwt>
</event>
<event>
 6    1  0.1885829E-005  0.2770893E+04  0.7818608E-02  0.8312362E-01
         -1   -1    0    0    0  501 -0.00000000000E+00  0.00000000000E+00  0.93977888956E+03  0.93977888956E+03  0.00000000000E+00 0.  1.
          1   -1    0    0  501    0  0.00000000000E+00 -0.00000000000E+00 -0.20424606756E+04  0.20424606756E+04  0.00000000000E+00 0. -1.
         23    2    1    2    0    0 -0.54537459556E+03 -0.12456806465E+04 -0.27350180600E+03  0.13895396054E+04  0.82845364181E+02 0.  0.
         11    1    3    3    0    0 -0.22285850524E+03 -0.49974120306E+03 -0.68885277199E+02  0.55150010409E+03  0.00000000000E+00 0.  1.
        -11    1    3    3    0    0 -0.32251609032E+03 -0.74593944347E+03 -0.20461652881E+03  0.83803950128E+03  0.00000000000E+00 0. -1.
         22    1    1    2    0    0  0.54537459556E+03  0.12456806465E+04 -0.82917998003E+03  0.15926999598E+04  0.00000000000E+00 0. -1.
<mgrwt>
<rscale>  0 0.27708926E+04</rscale>
<asrwt>0</asrwt>
<pdfrwt beam="1">  1        1 0.31422472E+00 0.27708926E+04</pdfrwt>
<pdfrwt beam="2">  1       -1 0.14458137E+00 0.27708926E+04</pdfrwt>
<totfact> 0.93170395E-01</totfact>
</mgrwt>
</event>
<event>
 6    1  0.1885829E-005  0.1256252E+04  0.7818608E-02  0.9064996E-01
          2   -1    0    0  501    0  0.00000000000E+00  0.00000000000E+00  0.11421313946E+04  0.11421313946E+04  0.00000000000E+00 0. -1.
         -2   -1    0    0    0  501 -0.00000000000E+00 -0.00000000000E+00 -0.34544362579E+03  0.34544362579E+03  0.00000000000E+00 0.  1.
         23    2    1    2    0    0  0.13453868335E+03  0.16807944243E+03  0.10949933330E+04  0.11196924767E+04  0.91375526329E+02 0.  0.
         11    1    3    3    0    0  0.77168263717E+02  0.34347000209E+02  0.50519751362E+03  0.51221009861E+03  0.00000000000E+00 0.  1.
        -11    1    3    3    0    0  0.57370419628E+02  0.13373244223E+03  0.58979581941E+03  0.60748237813E+03  0.00000000000E+00 0. -1.
         22    1    1    2    0    0 -0.13453868335E+03 -0.16807944243E+03 -0.29830556421E+03  0.36788254365E+03  0.00000000000E+00 0.  1.
<mgrwt>
<rscale>  0 0.12562516E+04</rscale>
<asrwt>0</asrwt>
<pdfrwt beam="1">  1        2 0.17571252E+00 0.12562516E+04</pdfrwt>
<pdfrwt beam="2">  1       -2 0.53145174E-01 0.12562516E+04</pdfrwt>
<totfact> 0.67358370E+01</totfact>
</mgrwt>
</event>
<event>
 6    1  0.1885829E-005  0.1871063E+04  0.7818608E-02  0.8669396E-01
         -2   -1    0    0    0  501 -0.00000000000E+00  0.00000000000E+00  0.94159050001E+03  0.94159050001E+03  0.00000000000E+00 0.  1.
          2   -1    0    0  501    0  0.00000000000E+00 -0.00000000000E+00 -0.92951169741E+03  0.92951169741E+03  0.00000000000E+00 0. -1.
         23    2    1    2    0    0  0.94029150735E+02  0.60900139964E+03 -0.69478179432E+03  0.93335164987E+03  0.93270438169E+02 0.  0.
         11    1    3    3    0    0  0.10629249670E+02  0.32227366755E+03 -0.39957344366E+03  0.51345129723E+03  0.00000000000E+00 0.  1.
        -11    1    3    3    0    0  0.83399901065E+02  0.28672773209E+03 -0.29520835066E+03  0.41990035264E+03  0.00000000000E+00 0. -1.
         22    1    1    2    0    0 -0.94029150735E+02 -0.60900139964E+03  0.70686059693E+03  0.93775054755E+03  0.00000000000E+00 0.  1.
<mgrwt>
<rscale>  0 0.18710632E+04</rscale>
<asrwt>0</asrwt>
<pdfrwt beam="1">  1        2 0.14300180E+00 0.18710632E+04</pdfrwt>
<pdfrwt beam="2">  1       -2 0.14486008E+00 0.18710632E+04</pdfrwt>
<totfact> 0.86371493E+00</totfact>
</mgrwt>
</event>
<event>
 6    1  0.1885829E-005  0.1858609E+04  0.7818608E-02  0.8675738E-01
         -2   -1    0    0    0  501 -0.00000000000E+00  0.00000000000E+00  0.37066424593E+03  0.37066424593E+03  0.00000000000E+00 0.  1.
          2   -1    0    0  501    0  0.00000000000E+00 -0.00000000000E+00 -0.23298887724E+04  0.23298887724E+04  0.00000000000E+00 0. -1.
         23    2    1    2    0    0  0.17356186677E+03  0.34473173908E+03  0.24269902489E+03  0.46505955614E+03  0.91727207254E+02 0.  0.
         11    1    3    3    0    0  0.11735786360E+03  0.23209277156E+03  0.21187943780E+03  0.33545911662E+03  0.00000000000E+00 0.  1.
        -11    1    3    3    0    0  0.56204003168E+02  0.11263896752E+03  0.30819587084E+02  0.12960043952E+03  0.00000000000E+00 0. -1.
         22    1    1    2    0    0 -0.17356186677E+03 -0.34473173908E+03 -0.22019235514E+04  0.22354934622E+04  0.00000000000E+00 0. -1.
<mgrwt>
<rscale>  0 0.18586086E+04</rscale>
<asrwt>0</asrwt>
<pdfrwt beam="1">  1        2 0.35844443E+00 0.18586086E+04</pdfrwt>
<pdfrwt beam="2">  1       -2 0.57025269E-01 0.18586086E+04</pdfrwt>
<totfact> 0.11814871E+01</totfact>
</mgrwt>
</event>
<event>
 6    1  0.1885829E-005  0.1695129E+04  0.7818608E-02  0.8764148E-01
         -2   -1    0    0    0  501 -0.00000000000E+00  0.00000000000E+00  0.87410052786E+03  0.87410052786E+03  0.00000000000E+00 0.  1.
          2   -1    0    0  501    0  0.00000000000E+00 -0.00000000000E+00 -0.82183358840E+03  0.82183358840E+03  0.00000000000E+00 0. -1.
         23    2    1    2    0    0  0.26873650617E+03 -0.35334624959E+03 -0.69346006860E+03  0.82807372864E+03  0.88013359588E+02 0.  0.
         13    1    3    3    0    0  0.10468498996E+03 -0.14498019524E+03 -0.36042735323E+03  0.40235069416E+03  0.00000000000E+00 0.  1.
        -13    1    3    3    0    0  0.16405151621E+03 -0.20836605435E+03 -0.33303271537E+03  0.42572303448E+03  0.00000000000E+00 0. -1.
         22    1    1    2    0    0 -0.26873650617E+03  0.35334624959E+03  0.74572700806E+03  0.86786038762E+03  0.00000000000E+00 0.  1.
<mgrwt>
<rscale>  0 0.16951285E+04</rscale>
<asrwt>0</asrwt>
<pdfrwt beam="1">  1        2 0.12643594E+00 0.16951285E+04</pdfrwt>
<pdfrwt beam="2">  1       -2 0.13447700E+00 0.16951285E+04</pdfrwt>
<totfact> 0.12599063E+01</totfact>
</mgrwt>
</event>
<event>
 6    1  0.1885829E-005  0.1509153E+04  0.7818608E-02  0.8878389E-01
          2   -1    0    0  501    0  0.00000000000E+00  0.00000000000E+00  0.10331660823E+04  0.10331660823E+04  0.00000000000E+00 0.  1.
         -2   -1    0    0    0  501 -0.00000000000E+00 -0.00000000000E+00 -0.55110761023E+03  0.55110761023E+03  0.00000000000E+00 0. -1.
         23    2    1    2    0    0  0.12414971125E+03  0.60305152833E+03  0.69467037273E+03  0.93289967024E+03  0.93008447822E+02 0.  0.
         11    1    3    3    0    0  0.19831742426E+02  0.98302899782E+02  0.66444027406E+02  0.12029782580E+03  0.00000000000E+00 0. -1.
        -11    1    3    3    0    0  0.10431796882E+03  0.50474862855E+03  0.62822634532E+03  0.81260184445E+03  0.00000000000E+00 0.  1.
         22    1    1    2    0    0 -0.12414971125E+03 -0.60305152833E+03 -0.21261190064E+03  0.65137402230E+03  0.00000000000E+00 0. -1.
<mgrwt>
<rscale>  0 0.15091530E+04</rscale>
<asrwt>0</asrwt>
<pdfrwt beam="1">  1        2 0.15894863E+00 0.15091530E+04</pdfrwt>
<pdfrwt beam="2">  1       -2 0.84785786E-01 0.15091530E+04</pdfrwt>
<totfact> 0.28075673E+01</totfact>
</mgrwt>
</event>
<event>
 6    1  0.1885829E-005  0.3298173E+04  0.7818608E-02  0.8163360E-01
         -2   -1    0    0    0  501 -0.00000000000E+00  0.00000000000E+00  0.99964033836E+03  0.99964033836E+03  0.00000000000E+00 0.  1.
          2   -1    0    0  501    0  0.00000000000E+00 -0.00000000000E+00 -0.27204645094E+04  0.27204645094E+04  0.00000000000E+00 0. -1.
         23    2    1    2    0    0  0.63093450113E+03 -0.90517511098E+03 -0.22415649272E+04  0.25000264645E+04  0.89992632729E+02 0.  0.
         11    1    3    3    0    0  0.19361860811E+03 -0.21349184464E+03 -0.61675854071E+03  0.68077751922E+03  0.00000000000E+00 0. -1.
        -11    1    3    3    0    0  0.43731589301E+03 -0.69168326634E+03 -0.16248063865E+04  0.18192489453E+04  0.00000000000E+00 0.  1.
         22    1    1    2    0    0 -0.63093450113E+03  0.90517511098E+03  0.52074075616E+03  0.12200783833E+04  0.00000000000E+00 0.  1.
<mgrwt>
<rscale>  0 0.32981729E+04</rscale>
<asrwt>0</asrwt>
<pdfrwt beam="1">  1        2 0.41853300E+00 0.32981729E+04</pdfrwt>
<pdfrwt beam="2">  1       -2 0.15379082E+00 0.32981729E+04</pdfrwt>
<totfact> 0.60438252E-01</totfact>
</mgrwt>
</event>
<event>
 6    1  0.1885829E-005  0.1746519E+04  0.7818608E-02  0.8735269E-01
          2   -1    0    0  501    0  0.00000000000E+00  0.00000000000E+00  0.24424187445E+04  0.24424187445E+04  0.00000000000E+00 0. -1.
         -2   -1    0    0    0  501 -0.00000000000E+00 -0.00000000000E+00 -0.31222404822E+03  0.31222404822E+03  0.00000000000E+00 0.  1.
         23    2    1    2    0    0  0.61629098858E+03  0.60018467187E+03  0.85479536306E+03  0.12162411280E+04  0.92364201331E+02 0.  0.
         13    1    3    3    0    0  0.11384827981E+03  0.13378119277E+03  0.22374617547E+03  0.28446649960E+03  0.00000000000E+00 0. -1.
        -13    1    3    3    0    0  0.50244270877E+03  0.46640347909E+03  0.63104918759E+03  0.93177462837E+03  0.00000000000E+00 0.  1.
         22    1    1    2    0    0 -0.61629098858E+03 -0.60018467187E+03  0.12753993332E+04  0.15384016647E+04  0.00000000000E+00 0. -1.
<mgrwt>
<rscale>  0 0.17465187E+04</rscale>
<asrwt>0</asrwt>
<pdfrwt beam="1">  1        2 0.37575672E+00 0.17465187E+04</pdfrwt>
<pdfrwt beam="2">  1       -2 0.48034471E-01 0.17465187E+04</pdfrwt>
<totfact> 0.14648548E+01</totfact>
</mgrwt>
</event>
<event>
 6    1  0.1885829E-005  0.2225521E+04  0.7818608E-02  0.8507880E-01
          2   -1    0    0  501    0  0.00000000000E+00  0.00000000000E+00  0.74712775875E+03  0.74712775875E+03  0.00000000000E+00 0. -1.
         -2   -1    0    0    0  501 -0.00000000000E+00 -0.00000000000E+00 -0.16573284332E+04  0.16573284332E+04  0.00000000000E+00 0.  1.
         23    2    1    2    0    0 -0.67416833443E+03 -0.26260647731E+03  0.45480703437E+03  0.85955776481E+03  0.92330967003E+02 0.  0.
         13    1    3    3    0    0 -0.50320092612E+03 -0.23752132169E+03  0.33991525836E+03  0.65205056029E+03  0.00000000000E+00 0.  1.
        -13    1    3    3    0    0 -0.17096740830E+03 -0.25085155627E+02  0.11489177601E+03  0.20750720452E+03  0.00000000000E+00 0. -1.
         22    1    1    2    0    0  0.67416833443E+03  0.26260647731E+03 -0.13650077089E+04  0.15448984272E+04  0.00000000000E+00 0.  1.
<mgrwt>
<rscale>  0 0.22255211E+04</rscale>
<asrwt>0</asrwt>
<pdfrwt beam="1">  1        2 0.11494273E+00 0.22255211E+04</pdfrwt>
<pdfrwt beam="2">  1       -2 0.25497360E+00 0.22255211E+04</pdfrwt>
<totfact> 0.20585900E+00</totfact>
</mgrwt>
</event>
<event>
 6    1  0.1885829E-005  0.1285254E+04  0.7818608E-02  0.9041341E-01
         -1   -1    0    0    0  501 -0.00000000000E+00  0.00000000000E+00  0.75277591026E+03  0.75277591026E+03  0.00000000000E+00 0.  1.
          1   -1    0    0  501    0  0.00000000000E+00 -0.00000000000E+00 -0.54859586746E+03  0.54859586746E+03  0.00000000000E+00 0. -1.
         23    2    1    2    0    0 -0.31565697043E+03  0.43827062898E+03  0.44887468913E+03  0.70841652043E+03  0.92978560232E+02 0.  0.
         13    1    3    3    0    0 -0.20110471964E+03  0.23399230909E+03  0.30333238767E+03  0.43267314035E+03  0.00000000000E+00 0. -1.
        -13    1    3    3    0    0 -0.11455225079E+03  0.20427831990E+03  0.14554230146E+03  0.27574338008E+03  0.00000000000E+00 0.  1.
         22    1    1    2    0    0  0.31565697043E+03 -0.43827062898E+03 -0.24469464633E+03  0.59295525730E+03  0.00000000000E+00 0. -1.
<mgrwt>
<rscale>  0 0.12852545E+04</rscale>
<asrwt>0</asrwt>
<pdfrwt beam="1">  1        1 0.84399365E-01 0.12852545E+04</pdfrwt>
<pdfrwt beam="2">  1       -1 0.11581168E+00 0.12852545E+04</pdfrwt>
<totfact> 0.25854579E+01</totfact>
</mgrwt>
</event>
<event>
 6    1  0.1885829E-005  0.1463523E+04  0.7818608E-02  0.8909079E-01
         -1   -1    0    0    0  501 -0.00000000000E+00  0.00000000000E+00  0.18209079125E+04  0.18209079125E+04  0.00000000000E+00 0.  1.
          1   -1    0    0  501    0  0.00000000000E+00 -0.00000000000E+00 -0.29407015684E+03  0.29407015684E+03  0.00000000000E+00 0. -1.
         23    2    1    2    0    0  0.61698174831E+03 -0.38322509869E+03  0.85615341950E+03  0.11263702438E+04  0.90461562618E+02 0.  0.
         13    1    3    3    0    0  0.21872994966E+03 -0.18294053445E+03  0.36290432239E+03  0.46152960602E+03  0.00000000000E+00 0. -1.
        -13    1    3    3    0    0  0.39825179866E+03 -0.20028456424E+03  0.49324909711E+03  0.66484063775E+03  0.00000000000E+00 0.  1.
         22    1    1    2    0    0 -0.61698174831E+03  0.38322509869E+03  0.67068433616E+03  0.98860782557E+03  0.00000000000E+00 0. -1.
<mgrwt>
<rscale>  0 0.14635227E+04</rscale>
<asrwt>0</asrwt>
<pdfrwt beam="1">  1        1 0.45241564E-01 0.14635227E+04</pdfrwt>
<pdfrwt beam="2">  1       -1 0.28013967E+00 0.14635227E+04</pdfrwt>
<totfact> 0.38852267E+00</totfact>
</mgrwt>
</event>
<event>
 6    1  0.1885829E-005  0.1125476E+04  0.7818608E-02  0.9180711E-01
          1   -1    0    0  501    0  0.00000000000E+00  0.00000000000E+00  0.12645737757E+04  0.12645737757E+04  0.00000000000E+00 0. -1.
         -1   -1    0    0    0  501 -0.00000000000E+00 -0.00000000000E+00 -0.25041976462E+03  0.25041976462E+03  0.00000000000E+00 0.  1.
         23    2    1    2    0    0  0.24860117348E+03 -0.44818881678E+03  0.81112426305E+03  0.96372515058E+03  0.90376085435E+02 0.  0.
         13    1    3    3    0    0  0.65113147134E+02 -0.20567716075E+03  0.31429231517E+03  0.38121185154E+03  0.00000000000E+00 0.  1.
        -13    1    3    3    0    0  0.18348802635E+03 -0.24251165603E+03  0.49683194788E+03  0.58251329904E+03  0.00000000000E+00 0. -1.
         22    1    1    2    0    0 -0.24860117348E+03  0.44818881678E+03  0.20302974805E+03  0.55126838975E+03  0.00000000000E+00 0.  1.
<mgrwt>
<rscale>  0 0.11254764E+04</rscale>
<asrwt>0</asrwt>
<pdfrwt beam="1">  1        1 0.19454981E+00 0.11254764E+04</pdfrwt>
<pdfrwt beam="2">  1       -1 0.38526119E-01 0.11254764E+04</pdfrwt>
<totfact> 0.62205771E+01</totfact>
</mgrwt>
</event>
<event>
 6    1  0.1885829E-005  0.4935973E+04  0.7818608E-02  0.7838461E-01
         -2   -1    0    0    0  501 -0.00000000000E+00  0.00000000000E+00  0.26650723900E+04  0.26650723900E+04  0.00000000000E+00 0.  1.
          2   -1    0    0  501    0  0.00000000000E+00 -0.00000000000E+00 -0.22854756058E+04  0.22854756058E+04  0.00000000000E+00 0. -1.
         23    2    1    2    0    0 -0.87847412060E+03 -0.15426918505E+04 -0.15284334224E+04  0.23443641582E+04  0.91212131841E+02 0.  0.
         11    1    3    3    0    0 -0.69692477236E+03 -0.11498985344E+04 -0.11744271100E+04  0.17852870398E+04  0.00000000000E+00 0. -1.
        -11    1    3    3    0    0 -0.18154934824E+03 -0.39279331609E+03 -0.35400631246E+03  0.55907711836E+03  0.00000000000E+00 0.  1.
         22    1    1    2    0    0  0.87847412060E+03  0.15426918505E+04  0.19080302066E+04  0.26061838377E+04  0.00000000000E+00 0. -1.
<mgrwt>
<rscale>  0 0.49359732E+04</rscale>
<asrwt>0</asrwt>
<pdfrwt beam="1">  1        2 0.35161163E+00 0.49359732E+04</pdfrwt>
<pdfrwt beam="2">  1       -2 0.41001114E+00 0.49359732E+04</pdfrwt>
<totfact> 0.21591961E-02</totfact>
</mgrwt>
</event>
<event>
 6    1  0.1885829E-005  0.2712691E+04  0.7818608E-02  0.8330899E-01
          2   -1    0    0  501    0  0.00000000000E+00  0.00000000000E+00  0.23001483138E+04  0.23001483138E+04  0.00000000000E+00 0. -1.
         -2   -1    0    0    0  501 -0.00000000000E+00 -0.00000000000E+00 -0.79980601497E+03  0.79980601497E+03  0.00000000000E+00 0.  1.
         23    2    1    2    0    0 -0.32438142340E+03 -0.54490099587E+03 -0.61698887487E+03  0.88969830236E+03  0.93527505978E+02 0.  0.
         13    1    3    3    0    0 -0.89665140607E+02 -0.89232424848E+02 -0.95664216807E+02  0.15859982806E+03  0.00000000000E+00 0. -1.
        -13    1    3    3    0    0 -0.23471628279E+03 -0.45566857102E+03 -0.52132465806E+03  0.73109847430E+03  0.00000000000E+00 0.  1.
         22    1    1    2    0    0  0.32438142340E+03  0.54490099587E+03  0.21173311737E+04  0.22102560264E+04  0.00000000000E+00 0. -1.
<mgrwt>
<rscale>  0 0.27126905E+04</rscale>
<asrwt>0</asrwt>
<pdfrwt beam="1">  1        2 0.35386897E+00 0.27126905E+04</pdfrwt>
<pdfrwt beam="2">  1       -2 0.12304708E+00 0.27126905E+04</pdfrwt>
<totfact> 0.19811556E+00</totfact>
</mgrwt>
</event>
<event>
 6    1  0.1885829E-005  0.8334802E+03  0.7818608E-02  0.9512781E-01
         -2   -1    0    0    0  501 -0.00000000000E+00  0.00000000000E+00  0.29650190108E+03  0.29650190108E+03  0.00000000000E+00 0.  1.
          2   -1    0    0  501    0  0.00000000000E+00 -0.00000000000E+00 -0.58573757409E+03  0.58573757409E+03  0.00000000000E+00 0. -1.
         23    2    1    2    0    0 -0.33743947913E+03  0.74738279796E+02 -0.38328278149E+03  0.52405506575E+03  0.90976968565E+02 0.  0.
         11    1    3    3    0    0 -0.25176125110E+03  0.78747465451E+02 -0.23771058593E+03  0.35509324625E+03  0.00000000000E+00 0.  1.
        -11    1    3    3    0    0 -0.85678228028E+02 -0.40091856546E+01 -0.14557219556E+03  0.16896181950E+03  0.00000000000E+00 0. -1.
         22    1    1    2    0    0  0.33743947913E+03 -0.74738279796E+02  0.94047108480E+02  0.35818440942E+03  0.00000000000E+00 0.  1.
<mgrwt>
<rscale>  0 0.83348018E+03</rscale>
<asrwt>0</asrwt>
<pdfrwt beam="1">  1        2 0.90113472E-01 0.83348018E+03</pdfrwt>
<pdfrwt beam="2">  1       -2 0.45615678E-01 0.83348018E+03</pdfrwt>
<totfact> 0.23398500E+02</totfact>
</mgrwt>
</event>
<event>
 6    1  0.1885829E-005  0.1042657E+04  0.7818608E-02  0.9262958E-01
          1   -1    0    0  501    0  0.00000000000E+00  0.00000000000E+00  0.23210805752E+04  0.23210805752E+04  0.00000000000E+00 0. -1.
         -1   -1    0    0    0  501 -0.00000000000E+00 -0.00000000000E+00 -0.11709357478E+03  0.11709357478E+03  0.00000000000E+00 0.  1.
         23    2    1    2    0    0  0.44488455151E+03  0.12622497626E+03  0.16527107885E+04  0.17186184047E+04  0.91330507249E+02 0.  0.
         13    1    3    3    0    0  0.30984825445E+03  0.10603018667E+03  0.10176751068E+04  0.10690701400E+04  0.00000000000E+00 0.  1.
        -13    1    3    3    0    0  0.13503629706E+03  0.20194789587E+02  0.63503568173E+03  0.64954826466E+03  0.00000000000E+00 0. -1.
         22    1    1    2    0    0 -0.44488455151E+03 -0.12622497626E+03  0.55127621187E+03  0.71955574529E+03  0.00000000000E+00 0.  1.
<mgrwt>
<rscale>  0 0.10426574E+04</rscale>
<asrwt>0</asrwt>
<pdfrwt beam="1">  1        1 0.35708929E+00 0.10426574E+04</pdfrwt>
<pdfrwt beam="2">  1       -1 0.18014398E-01 0.10426574E+04</pdfrwt>
<totfact> 0.44192755E+01</totfact>
</mgrwt>
</event>
<event>
 6    1  0.1885829E-005  0.4570298E+03  0.7818608E-02  0.1025646E+00
         -2   -1    0    0    0  501 -0.00000000000E+00  0.00000000000E+00  0.48488755104E+02  0.48488755104E+02  0.00000000000E+00 0.  1.
          2   -1    0    0  501    0  0.00000000000E+00 -0.00000000000E+00 -0.10769311022E+04  0.10769311022E+04  0.00000000000E+00 0. -1.
         23    2    1    2    0    0  0.17980618523E+03 -0.42864100562E+02 -0.25102009098E+03  0.32632476930E+03  0.96484058899E+02 0.  0.
         13    1    3    3    0    0  0.11436486267E+03 -0.47641233954E+02 -0.92046895598E+02  0.15434260583E+03  0.00000000000E+00 0. -1.
        -13    1    3    3    0    0  0.65441322558E+02  0.47771333920E+01 -0.15897319538E+03  0.17198216347E+03  0.00000000000E+00 0.  1.
         22    1    1    2    0    0 -0.17980618523E+03  0.42864100562E+02 -0.77742225612E+03  0.79909508801E+03  0.00000000000E+00 0. -1.
<mgrwt>
<rscale>  0 0.45702975E+03</rscale>
<asrwt>0</asrwt>
<pdfrwt beam="1">  1        2 0.16568170E+00 0.45702975E+03</pdfrwt>
<pdfrwt beam="2">  1       -2 0.74598087E-02 0.45702975E+03</pdfrwt>
<totfact> 0.24914927E+03</totfact>
</mgrwt>
</event>
<event>
 6    1  0.1885829E-005  0.2026246E+04  0.7818608E-02  0.8594447E-01
         -2   -1    0    0    0  501 -0.00000000000E+00  0.00000000000E+00  0.12627175989E+04  0.12627175989E+04  0.00000000000E+00 0.  1.
          2   -1    0    0  501    0  0.00000000000E+00 -0.00000000000E+00 -0.81286476259E+03  0.81286476259E+03  0.00000000000E+00 0. -1.
         23    2    1    2    0    0  0.29510295632E+02 -0.34458986590E+03 -0.74784932599E+03  0.82894548461E+03  0.90878869071E+02 0.  0.
         11    1    3    3    0    0  0.60348423521E+02 -0.20428481797E+03 -0.47549934852E+03  0.52103152449E+03  0.00000000000E+00 0.  1.
        -11    1    3    3    0    0 -0.30838127888E+02 -0.14030504793E+03 -0.27234997747E+03  0.30791396011E+03  0.00000000000E+00 0. -1.
         22    1    1    2    0    0 -0.29510295632E+02  0.34458986590E+03  0.11977021623E+04  0.12466368769E+04  0.00000000000E+00 0.  1.
<mgrwt>
<rscale>  0 0.20262464E+04</rscale>
<asrwt>0</asrwt>
<pdfrwt beam="1">  1        2 0.12505612E+00 0.20262464E+04</pdfrwt>
<pdfrwt beam="2">  1       -2 0.19426425E+00 0.20262464E+04</pdfrwt>
<totfact> 0.45350637E+00</totfact>
</mgrwt>
</event>
<event>
 6    1  0.1885829E-005  0.2368240E+04  0.7818608E-02  0.8451491E-01
          2   -1    0    0  501    0  0.00000000000E+00  0.00000000000E+00  0.13969291701E+04  0.13969291701E+04  0.00000000000E+00 0. -1.
         -2   -1    0    0    0  501 -0.00000000000E+00 -0.00000000000E+00 -0.10037305181E+04  0.10037305181E+04  0.00000000000E+00 0.  1.
         23    2    1    2    0    0 -0.29704590269E+03  0.73135602089E+03 -0.69558034754E+03  0.10558334514E+04  0.88511917844E+02 0.  0.
         13    1    3    3    0    0 -0.25041133435E+03  0.67425325460E+03 -0.61204092887E+03  0.94441377919E+03  0.00000000000E+00 0. -1.
        -13    1    3    3    0    0 -0.46634568337E+02  0.57102766283E+02 -0.83539418670E+02  0.11141967220E+03  0.00000000000E+00 0.  1.
         22    1    1    2    0    0  0.29704590269E+03 -0.73135602089E+03  0.10887789995E+04  0.13448262369E+04  0.00000000000E+00 0. -1.
<mgrwt>
<rscale>  0 0.23682402E+04</rscale>
<asrwt>0</asrwt>
<pdfrwt beam="1">  1        2 0.21491218E+00 0.23682402E+04</pdfrwt>
<pdfrwt beam="2">  1       -2 0.15442008E+00 0.23682402E+04</pdfrwt>
<totfact> 0.36329379E+00</totfact>
</mgrwt>
</event>
<event>
 6    1  0.1885829E-005  0.2615574E+04  0.7818608E-02  0.8362930E-01
          2   -1    0    0  501    0  0.00000000000E+00  0.00000000000E+00  0.36367156444E+04  0.36367156444E+04  0.00000000000E+00 0. -1.
         -2   -1    0    0    0  501 -0.00000000000E+00 -0.00000000000E+00 -0.47028889152E+03  0.47028889152E+03  0.00000000000E+00 0.  1.
         23    2    1    2    0    0  0.58071286030E+03 -0.42072393331E+03  0.32993026190E+04  0.33776952394E+04  0.95871293651E+02 0.  0.
         13    1    3    3    0    0  0.20362999074E+03 -0.17799275940E+03  0.10625852963E+04  0.10964643667E+04  0.00000000000E+00 0.  1.
        -13    1    3    3    0    0  0.37708286955E+03 -0.24273117391E+03  0.22367173226E+04  0.22812308727E+04  0.00000000000E+00 0. -1.
         22    1    1    2    0    0 -0.58071286030E+03  0.42072393331E+03 -0.13287586606E+03  0.72930929650E+03  0.00000000000E+00 0.  1.
<mgrwt>
<rscale>  0 0.26155741E+04</rscale>
<asrwt>0</asrwt>
<pdfrwt beam="1">  1        2 0.55949470E+00 0.26155741E+04</pdfrwt>
<pdfrwt beam="2">  1       -2 0.72352139E-01 0.26155741E+04</pdfrwt>
<totfact> 0.99293658E-01</totfact>
</mgrwt>
</event>
<event>
 6    1  0.2250565E-005  0.4269693E+04  0.7818608E-02  0.7952246E-01
          2   -1    0    0  501    0  0.00000000000E+00  0.00000000000E+00  0.27096671710E+04  0.27096671710E+04  0.00000000000E+00 0. -1.
         -2   -1    0    0    0  501 -0.00000000000E+00 -0.00000000000E+00 -0.16819668986E+04  0.16819668986E+04  0.00000000000E+00 0.  1.
         23    2    1    2    0    0 -0.19160455782E+02  0.66501537409E+03 -0.15713071708E+04  0.17088272818E+04  0.92042833099E+02 0.  0.
         11    1    3    3    0    0 -0.53487361661E+02  0.46671189434E+03 -0.11328072045E+04  0.12263494823E+04  0.00000000000E+00 0. -1.
        -11    1    3    3    0    0  0.34326905879E+02  0.19830347974E+03 -0.43849996622E+03  0.48247779941E+03  0.00000000000E+00 0.  1.
         22    1    1    2    0    0  0.19160455782E+02 -0.66501537409E+03  0.25990074432E+04  0.26828067878E+04  0.00000000000E+00 0. -1.
<mgrwt>
<rscale>  0 0.42696934E+04</rscale>
<asrwt>0</asrwt>
<pdfrwt beam="1">  1        2 0.41687187E+00 0.42696934E+04</pdfrwt>
<pdfrwt beam="2">  1       -2 0.25876414E+00 0.42696934E+04</pdfrwt>
<totfact> 0.11482484E-01</totfact>
</mgrwt>
</event>
<event>
 6    1  0.1885829E-005  0.1299265E+04  0.7818608E-02  0.9030148E-01
         -2   -1    0    0    0  501 -0.00000000000E+00  0.00000000000E+00  0.15207281927E+03  0.15207281927E+03  0.00000000000E+00 0.  1.
          2   -1    0    0  501    0  0.00000000000E+00 -0.00000000000E+00 -0.27751338155E+04  0.27751338155E+04  0.00000000000E+00 0. -1.
         23    2    1    2    0    0 -0.19711193981E+03 -0.60442970382E+03 -0.10551466756E+04  0.12353012885E+04  0.91904204638E+02 0.  0.
         11    1    3    3    0    0 -0.18498298570E+03 -0.47240749203E+03 -0.79037034417E+03  0.93918732129E+03  0.00000000000E+00 0.  1.
        -11    1    3    3    0    0 -0.12128954117E+02 -0.13202221179E+03 -0.26477633140E+03  0.29611396725E+03  0.00000000000E+00 0. -1.
         22    1    1    2    0    0  0.19711193981E+03  0.60442970382E+03 -0.15679143207E+04  0.16919053462E+04  0.00000000000E+00 0. -1.
<mgrwt>
<rscale>  0 0.12992651E+04</rscale>
<asrwt>0</asrwt>
<pdfrwt beam="1">  1        2 0.42694364E+00 0.12992651E+04</pdfrwt>
<pdfrwt beam="2">  1       -2 0.23395820E-01 0.12992651E+04</pdfrwt>
<totfact> 0.38257872E+01</totfact>
</mgrwt>
</event>
<event>
 6    1  0.1885829E-005  0.2003196E+04  0.7818608E-02  0.8605128E-01
         -2   -1    0    0    0  501 -0.00000000000E+00  0.00000000000E+00  0.39391912196E+03  0.39391912196E+03  0.00000000000E+00 0.  1.
          2   -1    0    0  501    0  0.00000000000E+00 -0.00000000000E+00 -0.25467126037E+04  0.25467126037E+04  0.00000000000E+00 0. -1.
         23    2    1    2    0    0 -0.15467363312E+03 -0.95343742327E+03 -0.14559244676E+04  0.17495845915E+04  0.91451269102E+02 0.  0.
         11    1    3    3    0    0 -0.37418796692E+02 -0.35334179813E+03 -0.46527608156E+03  0.58543353570E+03  0.00000000000E+00 0.  1.
        -11    1    3    3    0    0 -0.11725483643E+03 -0.60009562514E+03 -0.99064838605E+03  0.11641510558E+04  0.00000000000E+00 0. -1.
         22    1    1    2    0    0  0.15467363312E+03  0.95343742327E+03 -0.69686901414E+03  0.11910471341E+04  0.00000000000E+00 0. -1.
<mgrwt>
<rscale>  0 0.20031962E+04</rscale>
<asrwt>0</asrwt>
<pdfrwt beam="1">  1        2 0.39180194E+00 0.20031962E+04</pdfrwt>
<pdfrwt beam="2">  1       -2 0.60602941E-01 0.20031962E+04</pdfrwt>
<totfact> 0.77063091E+00</totfact>
</mgrwt>
</event>
<event>
 6    1  0.1969923E-005  0.1660006E+04  0.7818608E-02  0.8784509E-01
          2   -1    0    0  501    0  0.00000000000E+00  0.00000000000E+00  0.13447890232E+04  0.13447890232E+04  0.00000000000E+00 0. -1.
         -2   -1    0    0    0  501 -0.00000000000E+00 -0.00000000000E+00 -0.51227734079E+03  0.51227734079E+03  0.00000000000E+00 0.  1.
         23    2    1    2    0    0 -0.34385254434E+03  0.75209714926E+03  0.38826811853E+03  0.91832409999E+03  0.93179002896E+02 0.  0.
         13    1    3    3    0    0 -0.21343227531E+03  0.36251282382E+03  0.21518038835E+03  0.47251611942E+03  0.00000000000E+00 0.  1.
        -13    1    3    3    0    0 -0.13042026902E+03  0.38958432544E+03  0.17308773017E+03  0.44580798057E+03  0.00000000000E+00 0. -1.
         22    1    1    2    0    0  0.34385254434E+03 -0.75209714926E+03  0.44424356388E+03  0.93874226400E+03  0.00000000000E+00 0. -1.
<mgrwt>
<rscale>  0 0.16600060E+04</rscale>
<asrwt>0</asrwt>
<pdfrwt beam="1">  1        2 0.20689062E+00 0.16600060E+04</pdfrwt>
<pdfrwt beam="2">  1       -2 0.78811899E-01 0.16600060E+04</pdfrwt>
<totfact> 0.21246524E+01</totfact>
</mgrwt>
</event>
<event>
 6    1  0.1885829E-005  0.4429993E+04  0.7818608E-02  0.7923009E-01
         -2   -1    0    0    0  501 -0.00000000000E+00  0.00000000000E+00  0.16351444212E+04  0.16351444212E+04  0.00000000000E+00 0. -1.
          2   -1    0    0  501    0  0.00000000000E+00 -0.00000000000E+00 -0.30004747249E+04  0.30004747249E+04  0.00000000000E+00 0.  1.
         23    2    1    2    0    0 -0.62066272193E+03 -0.18101023330E+04 -0.18483117605E+04  0.26620528922E+04  0.92609754063E+02 0.  0.
         11    1    3    3    0    0 -0.33429382970E+03 -0.96176293908E+03 -0.91940664022E+03  0.13718778683E+04  0.00000000000E+00 0.  1.
        -11    1    3    3    0    0 -0.28636889224E+03 -0.84833939396E+03 -0.92890512027E+03  0.12901750239E+04  0.00000000000E+00 0. -1.
         22    1    1    2    0    0  0.62066272193E+03  0.18101023330E+04  0.48298145679E+03  0.19735662538E+04  0.00000000000E+00 0.  1.
<mgrwt>
<rscale>  0 0.44299930E+04</rscale>
<asrwt>0</asrwt>
<pdfrwt beam="1">  1        2 0.46161149E+00 0.44299930E+04</pdfrwt>
<pdfrwt beam="2">  1       -2 0.25156068E+00 0.44299930E+04</pdfrwt>
<totfact> 0.83292922E-02</totfact>
</mgrwt>
</event>
<event>
 6    1  0.1885829E-005  0.2900689E+04  0.7818608E-02  0.8272672E-01
         -2   -1    0    0    0  501 -0.00000000000E+00  0.00000000000E+00  0.21127558185E+04  0.21127558185E+04  0.00000000000E+00 0.  1.
          2   -1    0    0  501    0  0.00000000000E+00 -0.00000000000E+00 -0.99561887751E+03  0.99561887751E+03  0.00000000000E+00 0. -1.
         23    2    1    2    0    0  0.13015036763E+04  0.31104355300E+03 -0.36478752145E+02  0.13416010606E+04  0.88897667299E+02 0.  0.
         11    1    3    3    0    0  0.80187135177E+03  0.22752179653E+03 -0.47986723367E+02  0.83490511934E+03  0.00000000000E+00 0.  1.
        -11    1    3    3    0    0  0.49963232452E+03  0.83521756467E+02  0.11507971222E+02  0.50669594128E+03  0.00000000000E+00 0. -1.
         22    1    1    2    0    0 -0.13015036763E+04 -0.31104355300E+03  0.11536156931E+04  0.17667736354E+04  0.00000000000E+00 0.  1.
<mgrwt>
<rscale>  0 0.29006893E+04</rscale>
<asrwt>0</asrwt>
<pdfrwt beam="1">  1        2 0.15317214E+00 0.29006893E+04</pdfrwt>
<pdfrwt beam="2">  1       -2 0.32503936E+00 0.29006893E+04</pdfrwt>
<totfact> 0.48753707E-01</totfact>
</mgrwt>
</event>
<event>
 6    1  0.1885829E-005  0.1739088E+04  0.7818608E-02  0.8739380E-01
          2   -1    0    0  501    0  0.00000000000E+00  0.00000000000E+00  0.38113746253E+04  0.38113746253E+04  0.00000000000E+00 0. -1.
         -2   -1    0    0    0  501 -0.00000000000E+00 -0.00000000000E+00 -0.19838169407E+03  0.19838169407E+03  0.00000000000E+00 0.  1.
         23    2    1    2    0    0  0.65039491402E+02  0.85766346241E+03  0.15581857172E+04  0.17821905096E+04  0.91888698349E+02 0.  0.
         11    1    3    3    0    0 -0.14836953941E+02  0.35915690000E+03  0.61311504875E+03  0.71072067440E+03  0.00000000000E+00 0.  1.
        -11    1    3    3    0    0  0.79876445343E+02  0.49850656241E+03  0.94507066849E+03  0.10714698352E+04  0.00000000000E+00 0. -1.
         22    1    1    2    0    0 -0.65039491402E+02 -0.85766346241E+03  0.20548072140E+04  0.22275658097E+04  0.00000000000E+00 0. -1.
<mgrwt>
<rscale>  0 0.17390882E+04</rscale>
<asrwt>0</asrwt>
<pdfrwt beam="1">  1        2 0.58636527E+00 0.17390882E+04</pdfrwt>
<pdfrwt beam="2">  1       -2 0.30520263E-01 0.17390882E+04</pdfrwt>
<totfact> 0.45956784E+00</totfact>
</mgrwt>
</event>
<event>
 6    1  0.1885829E-005  0.2521772E+04  0.7818608E-02  0.8395270E-01
         -1   -1    0    0    0  501 -0.00000000000E+00  0.00000000000E+00  0.80587820450E+03  0.80587820450E+03  0.00000000000E+00 0.  1.
          1   -1    0    0  501    0  0.00000000000E+00 -0.00000000000E+00 -0.19727955428E+04  0.19727955428E+04  0.00000000000E+00 0. -1.
         23    2    1    2    0    0  0.10934648292E+04  0.38709924831E+03 -0.11242315109E+04  0.16179269013E+04  0.90993444801E+02 0.  0.
         13    1    3    3    0    0  0.88295794099E+02  0.94164941400E+01 -0.10400405679E+03  0.13675401803E+03  0.00000000000E+00 0.  1.
        -13    1    3    3    0    0  0.10051690351E+04  0.37768275417E+03 -0.10202274542E+04  0.14811728832E+04  0.00000000000E+00 0. -1.
         22    1    1    2    0    0 -0.10934648292E+04 -0.38709924831E+03 -0.42685827340E+02  0.11607468460E+04  0.00000000000E+00 0.  1.
<mgrwt>
<rscale>  0 0.25217715E+04</rscale>
<asrwt>0</asrwt>
<pdfrwt beam="1">  1        1 0.30350700E+00 0.25217715E+04</pdfrwt>
<pdfrwt beam="2">  1       -1 0.12398126E+00 0.25217715E+04</pdfrwt>
<totfact> 0.15745259E+00</totfact>
</mgrwt>
</event>
<event>
 6    1  0.1885829E-005  0.4071640E+04  0.7818608E-02  0.7990248E-01
         -2   -1    0    0    0  501 -0.00000000000E+00  0.00000000000E+00  0.15762410101E+04  0.15762410101E+04  0.00000000000E+00 0.  1.
          2   -1    0    0  501    0  0.00000000000E+00 -0.00000000000E+00 -0.26293968160E+04  0.26293968160E+04  0.00000000000E+00 0. -1.
         23    2    1    2    0    0 -0.11084536776E+04 -0.15244788536E+04  0.26503481862E+03  0.19055656853E+04  0.90729241651E+02 0.  0.
         11    1    3    3    0    0 -0.25126211127E+03 -0.36993119169E+03  0.99210348225E+02  0.45806596505E+03  0.00000000000E+00 0. -1.
        -11    1    3    3    0    0 -0.85719156634E+03 -0.11545476619E+04  0.16582447040E+03  0.14474997202E+04  0.00000000000E+00 0.  1.
         22    1    1    2    0    0  0.11084536776E+04  0.15244788536E+04 -0.13181906245E+04  0.23000721408E+04  0.00000000000E+00 0. -1.
<mgrwt>
<rscale>  0 0.40716400E+04</rscale>
<asrwt>0</asrwt>
<pdfrwt beam="1">  1        2 0.40452258E+00 0.40716400E+04</pdfrwt>
<pdfrwt beam="2">  1       -2 0.24249862E+00 0.40716400E+04</pdfrwt>
<totfact> 0.16394690E-01</totfact>
</mgrwt>
</event>
<event>
 6    1  0.1885829E-005  0.2372030E+04  0.7818608E-02  0.8450050E-01
         -1   -1    0    0    0  501 -0.00000000000E+00  0.00000000000E+00  0.10457581284E+04  0.10457581284E+04  0.00000000000E+00 0.  1.
          1   -1    0    0  501    0  0.00000000000E+00 -0.00000000000E+00 -0.13450825725E+04  0.13450825725E+04  0.00000000000E+00 0. -1.
         23    2    1    2    0    0  0.10546842716E+04  0.22273212540E+03  0.34433633155E+03  0.11353456963E+04  0.92053399054E+02 0.  0.
         11    1    3    3    0    0  0.62206183471E+03  0.17657742796E+03  0.21523868364E+03  0.68151904244E+03  0.00000000000E+00 0.  1.
        -11    1    3    3    0    0  0.43262243694E+03  0.46154697436E+02  0.12909764790E+03  0.45382665384E+03  0.00000000000E+00 0. -1.
         22    1    1    2    0    0 -0.10546842716E+04 -0.22273212540E+03 -0.64366077567E+03  0.12554950046E+04  0.00000000000E+00 0. -1.
<mgrwt>
<rscale>  0 0.23720295E+04</rscale>
<asrwt>0</asrwt>
<pdfrwt beam="1">  1        1 0.20693578E+00 0.23720295E+04</pdfrwt>
<pdfrwt beam="2">  1       -1 0.16088587E+00 0.23720295E+04</pdfrwt>
<totfact> 0.21716409E+00</totfact>
</mgrwt>
</event>
<event>
 6    1  0.1885829E-005  0.2199136E+04  0.7818608E-02  0.8518788E-01
         -2   -1    0    0    0  501 -0.00000000000E+00  0.00000000000E+00  0.10481257561E+04  0.10481257561E+04  0.00000000000E+00 0.  1.
          2   -1    0    0  501    0  0.00000000000E+00 -0.00000000000E+00 -0.11535351641E+04  0.11535351641E+04  0.00000000000E+00 0. -1.
         23    2    1    2    0    0  0.80818975449E+03 -0.30883605637E+03 -0.72920017356E+03  0.11350469749E+04  0.89712614640E+02 0.  0.
         13    1    3    3    0    0  0.50324014137E+03 -0.17772367274E+03 -0.50285373647E+03  0.73327909013E+03  0.00000000000E+00 0. -1.
        -13    1    3    3    0    0  0.30494961312E+03 -0.13111238363E+03 -0.22634643709E+03  0.40176788481E+03  0.00000000000E+00 0.  1.
         22    1    1    2    0    0 -0.80818975449E+03  0.30883605637E+03  0.62379076556E+03  0.10666139452E+04  0.00000000000E+00 0.  1.
<mgrwt>
<rscale>  0 0.21991361E+04</rscale>
<asrwt>0</asrwt>
<pdfrwt beam="1">  1        2 0.17746695E+00 0.21991361E+04</pdfrwt>
<pdfrwt beam="2">  1       -2 0.16125012E+00 0.21991361E+04</pdfrwt>
<totfact> 0.45539857E+00</totfact>
</mgrwt>
</event>
<event>
 6    1  0.1885829E-005  0.3493894E+04  0.7818608E-02  0.8115239E-01
          2   -1    0    0  501    0  0.00000000000E+00  0.00000000000E+00  0.37248623125E+04  0.37248623125E+04  0.00000000000E+00 0. -1.
         -2   -1    0    0    0  501 -0.00000000000E+00 -0.00000000000E+00 -0.81931180540E+03  0.81931180540E+03  0.00000000000E+00 0.  1.
         23    2    1    2    0    0  0.10937289887E+04  0.27156753374E+02 -0.31572859642E+03  0.11421718174E+04  0.88833124175E+02 0.  0.
         13    1    3    3    0    0  0.59060977318E+03  0.10372204305E+02 -0.12452491679E+03  0.60368364372E+03  0.00000000000E+00 0.  1.
        -13    1    3    3    0    0  0.50311921548E+03  0.16784549068E+02 -0.19120367963E+03  0.53848817367E+03  0.00000000000E+00 0. -1.
         22    1    1    2    0    0 -0.10937289887E+04 -0.27156753374E+02  0.32212791035E+04  0.34020023005E+04  0.00000000000E+00 0. -1.
<mgrwt>
<rscale>  0 0.34938939E+04</rscale>
<asrwt>0</asrwt>
<pdfrwt beam="1">  1        2 0.57305573E+00 0.34938939E+04</pdfrwt>
<pdfrwt beam="2">  1       -2 0.12604797E+00 0.34938939E+04</pdfrwt>
<totfact> 0.21549745E-01</totfact>
</mgrwt>
</event>
<event>
 6    1  0.1885829E-005  0.2213248E+04  0.7818608E-02  0.8512934E-01
          1   -1    0    0  501    0  0.00000000000E+00  0.00000000000E+00  0.22025525382E+04  0.22025525382E+04  0.00000000000E+00 0. -1.
         -1   -1    0    0    0  501 -0.00000000000E+00 -0.00000000000E+00 -0.55599866910E+03  0.55599866910E+03  0.00000000000E+00 0.  1.
         23    2    1    2    0    0 -0.85832705042E+03 -0.43075564559E+03  0.15052296275E+04  0.17878564598E+04  0.91862601186E+02 0.  0.
         11    1    3    3    0    0 -0.47792727385E+03 -0.20181516649E+03  0.86771646708E+03  0.10109776000E+04  0.00000000000E+00 0.  1.
        -11    1    3    3    0    0 -0.38039977657E+03 -0.22894047909E+03  0.63751316041E+03  0.77687885972E+03  0.00000000000E+00 0. -1.
         22    1    1    2    0    0  0.85832705042E+03  0.43075564559E+03  0.14132424163E+03  0.97069474757E+03  0.00000000000E+00 0.  1.
<mgrwt>
<rscale>  0 0.22132476E+04</rscale>
<asrwt>0</asrwt>
<pdfrwt beam="1">  1        1 0.33885423E+00 0.22132476E+04</pdfrwt>
<pdfrwt beam="2">  1       -1 0.85538258E-01 0.22132476E+04</pdfrwt>
<totfact> 0.26679958E+00</totfact>
</mgrwt>
</event>
<event>
 6    1  0.1885829E-005  0.2165640E+04  0.7818608E-02  0.8532867E-01
         -2   -1    0    0    0  501 -0.00000000000E+00  0.00000000000E+00  0.79692786208E+03  0.79692786208E+03  0.00000000000E+00 0.  1.
          2   -1    0    0  501    0  0.00000000000E+00 -0.00000000000E+00 -0.14712742949E+04  0.14712742949E+04  0.00000000000E+00 0. -1.
         23    2    1    2    0    0  0.26394273352E+03  0.22086061132E+03 -0.14108985114E+04  0.14552112956E+04  0.92520965397E+02 0.  0.
         13    1    3    3    0    0  0.69474088812E+02  0.21502135987E+02 -0.20335060833E+03  0.21596402658E+03  0.00000000000E+00 0. -1.
        -13    1    3    3    0    0  0.19446864470E+03  0.19935847533E+03 -0.12075479031E+04  0.12392472690E+04  0.00000000000E+00 0.  1.
         22    1    1    2    0    0 -0.26394273352E+03 -0.22086061132E+03  0.73655207861E+03  0.81299086140E+03  0.00000000000E+00 0.  1.
<mgrwt>
<rscale>  0 0.21656403E+04</rscale>
<asrwt>0</asrwt>
<pdfrwt beam="1">  1        2 0.22634989E+00 0.21656403E+04</pdfrwt>
<pdfrwt beam="2">  1       -2 0.12260429E+00 0.21656403E+04</pdfrwt>
<totfact> 0.60807875E+00</totfact>
</mgrwt>
</event>
<event>
 6    1  0.1885829E-005  0.2394185E+04  0.7818608E-02  0.8441684E-01
          2   -1    0    0  501    0  0.00000000000E+00  0.00000000000E+00  0.12451038159E+04  0.12451038159E+04  0.00000000000E+00 0. -1.
         -2   -1    0    0    0  501 -0.00000000000E+00 -0.00000000000E+00 -0.11509324293E+04  0.11509324293E+04  0.00000000000E+00 0.  1.
         23    2    1    2    0    0  0.10327226995E+04 -0.57908899706E+03  0.21191585139E+03  0.12061942390E+04  0.90199631737E+02 0.  0.
         13    1    3    3    0    0  0.75889639862E+03 -0.42767718625E+03  0.19601530433E+03  0.89289054145E+03  0.00000000000E+00 0. -1.
        -13    1    3    3    0    0  0.27382630088E+03 -0.15141181081E+03  0.15900547054E+02  0.31330369756E+03  0.00000000000E+00 0.  1.
         22    1    1    2    0    0 -0.10327226995E+04  0.57908899706E+03 -0.11774446482E+03  0.11898420061E+04  0.00000000000E+00 0. -1.
<mgrwt>
<rscale>  0 0.23941849E+04</rscale>
<asrwt>0</asrwt>
<pdfrwt beam="1">  1        2 0.19155443E+00 0.23941849E+04</pdfrwt>
<pdfrwt beam="2">  1       -2 0.17706653E+00 0.23941849E+04</pdfrwt>
<totfact> 0.30444202E+00</totfact>
</mgrwt>
</event>
<event>
 6    1  0.1885829E-005  0.1441429E+04  0.7818608E-02  0.8924365E-01
          1   -1    0    0  501    0  0.00000000000E+00  0.00000000000E+00  0.39237558692E+03  0.39237558692E+03  0.00000000000E+00 0. -1.
         -1   -1    0    0    0  501 -0.00000000000E+00 -0.00000000000E+00 -0.13238057233E+04  0.13238057233E+04  0.00000000000E+00 0.  1.
         23    2    1    2    0    0  0.71727404954E+03  0.33616140784E+02 -0.47438391007E+03  0.86500367892E+03  0.87058390459E+02 0.  0.
         13    1    3    3    0    0  0.40914072613E+03  0.51574516596E+02 -0.30509221746E+03  0.51296912743E+03  0.00000000000E+00 0.  1.
        -13    1    3    3    0    0  0.30813332341E+03 -0.17958375812E+02 -0.16929169261E+03  0.35203455149E+03  0.00000000000E+00 0. -1.
         22    1    1    2    0    0 -0.71727404954E+03 -0.33616140784E+02 -0.45704622632E+03  0.85117763132E+03  0.00000000000E+00 0. -1.
<mgrwt>
<rscale>  0 0.14414285E+04</rscale>
<asrwt>0</asrwt>
<pdfrwt beam="1">  1        1 0.60365475E-01 0.14414285E+04</pdfrwt>
<pdfrwt beam="2">  1       -1 0.20366242E+00 0.14414285E+04</pdfrwt>
<totfact> 0.84956473E+00</totfact>
</mgrwt>
</event>
<event>
 6    1  0.1885829E-005  0.1260735E+04  0.7818608E-02  0.9061296E-01
         -2   -1    0    0    0  501 -0.00000000000E+00  0.00000000000E+00  0.74763917272E+03  0.74763917272E+03  0.00000000000E+00 0.  1.
          2   -1    0    0  501    0  0.00000000000E+00 -0.00000000000E+00 -0.53149033287E+03  0.53149033287E+03  0.00000000000E+00 0. -1.
         23    2    1    2    0    0  0.67251725900E+02  0.23059018860E+03  0.69649875827E+03  0.74207208423E+03  0.88689504483E+02 0.  0.
         13    1    3    3    0    0  0.49198455646E+02  0.23151682139E+03  0.62476544371E+03  0.66809609060E+03  0.00000000000E+00 0.  1.
        -13    1    3    3    0    0  0.18053270254E+02 -0.92663279065E+00  0.71733314568E+02  0.73975993634E+02  0.00000000000E+00 0. -1.
         22    1    1    2    0    0 -0.67251725900E+02 -0.23059018860E+03 -0.48034991842E+03  0.53705742136E+03  0.00000000000E+00 0. -1.
<mgrwt>
<rscale>  0 0.12607347E+04</rscale>
<asrwt>0</asrwt>
<pdfrwt beam="1">  1        2 0.81767744E-01 0.12607347E+04</pdfrwt>
<pdfrwt beam="2">  1       -2 0.11502141E+00 0.12607347E+04</pdfrwt>
<totfact> 0.33201307E+01</totfact>
</mgrwt>
</event>
<event>
 6    1  0.1885829E-005  0.9488231E+03  0.7818608E-02  0.9366527E-01
         -2   -1    0    0    0  501 -0.00000000000E+00  0.00000000000E+00  0.24244419002E+03  0.24244419002E+03  0.00000000000E+00 0.  1.
          2   -1    0    0  501    0  0.00000000000E+00 -0.00000000000E+00 -0.92832225126E+03  0.92832225126E+03  0.00000000000E+00 0. -1.
         23    2    1    2    0    0  0.23406616329E+03 -0.14506512852E+03  0.12410943035E+03  0.31524870514E+03  0.90264805333E+02 0.  0.
         13    1    3    3    0    0  0.79075607635E+02 -0.49050495920E+02 -0.28195728805E+01  0.93095933660E+02  0.00000000000E+00 0. -1.
        -13    1    3    3    0    0  0.15499055565E+03 -0.96014632605E+02  0.12692900323E+03  0.22215277148E+03  0.00000000000E+00 0.  1.
         22    1    1    2    0    0 -0.23406616329E+03  0.14506512852E+03 -0.80998749160E+03  0.85551773614E+03  0.00000000000E+00 0. -1.
<mgrwt>
<rscale>  0 0.94882314E+03</rscale>
<asrwt>0</asrwt>
<pdfrwt beam="1">  1        2 0.14281880E+00 0.94882314E+03</pdfrwt>
<pdfrwt beam="2">  1       -2 0.37299107E-01 0.94882314E+03</pdfrwt>
<totfact> 0.19015141E+02</totfact>
</mgrwt>
</event>
<event>
 6    1  0.1885829E-005  0.1798532E+04  0.7818608E-02  0.8707080E-01
         -2   -1    0    0    0  501 -0.00000000000E+00  0.00000000000E+00  0.28981026515E+03  0.28981026515E+03  0.00000000000E+00 0.  1.
          2   -1    0    0  501    0  0.00000000000E+00 -0.00000000000E+00 -0.27903754622E+04  0.27903754622E+04  0.00000000000E+00 0. -1.
         23    2    1    2    0    0 -0.39275972587E+03 -0.75501651531E+03 -0.76933439049E+03  0.11510744692E+04  0.93738405363E+02 0.  0.
         11    1    3    3    0    0 -0.32786064810E+03 -0.58353466099E+03 -0.64506754120E+03  0.92957917246E+03  0.00000000000E+00 0.  1.
        -11    1    3    3    0    0 -0.64899077763E+02 -0.17148185432E+03 -0.12426684929E+03  0.22149529676E+03  0.00000000000E+00 0. -1.
         22    1    1    2    0    0  0.39275972587E+03  0.75501651531E+03 -0.17312308066E+04  0.19291112581E+04  0.00000000000E+00 0. -1.
<mgrwt>
<rscale>  0 0.17985321E+04</rscale>
<asrwt>0</asrwt>
<pdfrwt beam="1">  1        2 0.42928853E+00 0.17985321E+04</pdfrwt>
<pdfrwt beam="2">  1       -2 0.44586195E-01 0.17985321E+04</pdfrwt>
<totfact> 0.10583372E+01</totfact>
</mgrwt>
</event>
<event>
 6    1  0.1885829E-005  0.2620912E+04  0.7818608E-02  0.8361132E-01
         -2   -1    0    0    0  501 -0.00000000000E+00  0.00000000000E+00  0.11806536500E+04  0.11806536500E+04  0.00000000000E+00 0.  1.
          2   -1    0    0  501    0  0.00000000000E+00 -0.00000000000E+00 -0.14545290078E+04  0.14545290078E+04  0.00000000000E+00 0. -1.
         23    2    1    2    0    0  0.10847038205E+04  0.23858361263E+03 -0.83316879706E+03  0.13916740452E+04  0.95298926092E+02 0.  0.
         13    1    3    3    0    0  0.64236606129E+03  0.11764908936E+03 -0.43807210374E+03  0.78637308767E+03  0.00000000000E+00 0.  1.
        -13    1    3    3    0    0  0.44233775916E+03  0.12093452327E+03 -0.39509669332E+03  0.60530095751E+03  0.00000000000E+00 0. -1.
         22    1    1    2    0    0 -0.10847038205E+04 -0.23858361263E+03  0.55929343933E+03  0.12435086126E+04  0.00000000000E+00 0.  1.
<mgrwt>
<rscale>  0 0.26209120E+04</rscale>
<asrwt>0</asrwt>
<pdfrwt beam="1">  1        2 0.22377369E+00 0.26209120E+04</pdfrwt>
<pdfrwt beam="2">  1       -2 0.18163902E+00 0.26209120E+04</pdfrwt>
<totfact> 0.21016431E+00</totfact>
</mgrwt>
</event>
<event>
 6    1  0.1885829E-005  0.6265912E+03  0.7818608E-02  0.9851723E-01
          2   -1    0    0  501    0  0.00000000000E+00  0.00000000000E+00  0.19505738363E+03  0.19505738363E+03  0.00000000000E+00 0. -1.
         -2   -1    0    0    0  501 -0.00000000000E+00 -0.00000000000E+00 -0.50320652635E+03  0.50320652635E+03  0.00000000000E+00 0.  1.
         23    2    1    2    0    0 -0.19477461451E+03  0.37434780892E+02 -0.41814265202E+03  0.47146645549E+03  0.89993488315E+02 0.  0.
         13    1    3    3    0    0 -0.25076716837E+02  0.40868313335E+02 -0.85746246914E+02  0.98241944311E+02  0.00000000000E+00 0. -1.
        -13    1    3    3    0    0 -0.16969789767E+03 -0.34335324435E+01 -0.33239640510E+03  0.37322451118E+03  0.00000000000E+00 0.  1.
         22    1    1    2    0    0  0.19477461451E+03 -0.37434780892E+02  0.10999350930E+03  0.22679745449E+03  0.00000000000E+00 0. -1.
<mgrwt>
<rscale>  0 0.62659125E+03</rscale>
<asrwt>0</asrwt>
<pdfrwt beam="1">  1        2 0.30008829E-01 0.62659125E+03</pdfrwt>
<pdfrwt beam="2">  1       -2 0.77416387E-01 0.62659125E+03</pdfrwt>
<totfact> 0.26756885E+02</totfact>
</mgrwt>
</event>
<event>
 6    1  0.1885829E-005  0.1737728E+04  0.7818608E-02  0.8740135E-01
          2   -1    0    0  501    0  0.00000000000E+00  0.00000000000E+00  0.13736711478E+04  0.13736711478E+04  0.00000000000E+00 0. -1.
         -2   -1    0    0    0  501 -0.00000000000E+00 -0.00000000000E+00 -0.54956720991E+03  0.54956720991E+03  0.00000000000E+00 0.  1.
         23    2    1    2    0    0 -0.72659537052E+03  0.18501780817E+03 -0.67315489740E+02  0.75842033856E+03  0.92182498257E+02 0.  0.
         13    1    3    3    0    0 -0.58197947504E+03  0.18129961334E+03 -0.37510314422E+02  0.61071816974E+03  0.00000000000E+00 0. -1.
        -13    1    3    3    0    0 -0.14461589548E+03  0.37181948264E+01 -0.29805175317E+02  0.14770216882E+03  0.00000000000E+00 0.  1.
         22    1    1    2    0    0  0.72659537052E+03 -0.18501780817E+03  0.89141942766E+03  0.11648180192E+04  0.00000000000E+00 0. -1.
<mgrwt>
<rscale>  0 0.17377280E+04</rscale>
<asrwt>0</asrwt>
<pdfrwt beam="1">  1        2 0.21133402E+00 0.17377280E+04</pdfrwt>
<pdfrwt beam="2">  1       -2 0.84548802E-01 0.17377280E+04</pdfrwt>
<totfact> 0.17338192E+01</totfact>
</mgrwt>
</event>
<event>
 6    1  0.1885829E-005  0.6695595E+03  0.7818608E-02  0.9770754E-01
          2   -1    0    0  501    0  0.00000000000E+00  0.00000000000E+00  0.21739319762E+03  0.21739319762E+03  0.00000000000E+00 0. -1.
         -2   -1    0    0    0  501 -0.00000000000E+00 -0.00000000000E+00 -0.51555186587E+03  0.51555186587E+03  0.00000000000E+00 0.  1.
         23    2    1    2    0    0  0.32524062110E+03 -0.25110371567E+02 -0.19334513257E+03  0.39031133830E+03  0.92458683433E+02 0.  0.
         13    1    3    3    0    0  0.21279898314E+03 -0.37627127399E+02 -0.16961028267E+03  0.27471231485E+03  0.00000000000E+00 0.  1.
        -13    1    3    3    0    0  0.11244163796E+03  0.12516755831E+02 -0.23734849907E+02  0.11559902345E+03  0.00000000000E+00 0. -1.
         22    1    1    2    0    0 -0.32524062110E+03  0.25110371567E+02 -0.10481353568E+03  0.34263372519E+03  0.00000000000E+00 0. -1.
<mgrwt>
<rscale>  0 0.66955946E+03</rscale>
<asrwt>0</asrwt>
<pdfrwt beam="1">  1        2 0.33445108E-01 0.66955946E+03</pdfrwt>
<pdfrwt beam="2">  1       -2 0.79315671E-01 0.66955946E+03</pdfrwt>
<totfact> 0.22415451E+02</totfact>
</mgrwt>
</event>
<event>
 6    1  0.1885829E-005  0.2603636E+04  0.7818608E-02  0.8366967E-01
         -2   -1    0    0    0  501 -0.00000000000E+00  0.00000000000E+00  0.62210300751E+03  0.62210300751E+03  0.00000000000E+00 0.  1.
          2   -1    0    0  501    0  0.00000000000E+00 -0.00000000000E+00 -0.27241944809E+04  0.27241944809E+04  0.00000000000E+00 0. -1.
         23    2    1    2    0    0  0.69748343255E+03 -0.10834187175E+04 -0.82877299046E+03  0.15347734850E+04  0.91573600429E+02 0.  0.
         13    1    3    3    0    0  0.55995782049E+03 -0.87308346134E+03 -0.62274631021E+03  0.12098100917E+04  0.00000000000E+00 0. -1.
        -13    1    3    3    0    0  0.13752561206E+03 -0.21033525617E+03 -0.20602668025E+03  0.32496339323E+03  0.00000000000E+00 0.  1.
         22    1    1    2    0    0 -0.69748343255E+03  0.10834187175E+04 -0.12733184830E+04  0.18115240035E+04  0.00000000000E+00 0.  1.
<mgrwt>
<rscale>  0 0.26036356E+04</rscale>
<asrwt>0</asrwt>
<pdfrwt beam="1">  1        2 0.41910684E+00 0.26036356E+04</pdfrwt>
<pdfrwt beam="2">  1       -2 0.95708156E-01 0.26036356E+04</pdfrwt>
<totfact> 0.20800139E+00</totfact>
</mgrwt>
</event>
<event>
 6    1  0.1885829E-005  0.1198764E+04  0.7818608E-02  0.9113939E-01
         -2   -1    0    0    0  501 -0.00000000000E+00  0.00000000000E+00  0.64043010271E+03  0.64043010271E+03  0.00000000000E+00 0. -1.
          2   -1    0    0  501    0  0.00000000000E+00 -0.00000000000E+00 -0.56096472721E+03  0.56096472721E+03  0.00000000000E+00 0.  1.
         23    2    1    2    0    0  0.10700567577E+03 -0.58089284312E+03 -0.38894083256E+02  0.59898660345E+03  0.91572329723E+02 0.  0.
         13    1    3    3    0    0  0.68109628169E+02 -0.48847241133E+03 -0.52659186825E+01  0.49322606174E+03  0.00000000000E+00 0.  1.
        -13    1    3    3    0    0  0.38896047603E+02 -0.92420431793E+02 -0.33628164574E+02  0.10576054172E+03  0.00000000000E+00 0. -1.
         22    1    1    2    0    0 -0.10700567577E+03  0.58089284312E+03  0.11835945876E+03  0.60240822646E+03  0.00000000000E+00 0. -1.
<mgrwt>
<rscale>  0 0.11987639E+04</rscale>
<asrwt>0</asrwt>
<pdfrwt beam="1">  1        2 0.86302266E-01 0.11987639E+04</pdfrwt>
<pdfrwt beam="2">  1       -2 0.98527708E-01 0.11987639E+04</pdfrwt>
<totfact> 0.45409215E+01</totfact>
</mgrwt>
</event>
<event>
 6    1  0.1885829E-005  0.1403875E+04  0.7818608E-02  0.8951019E-01
         -2   -1    0    0    0  501 -0.00000000000E+00  0.00000000000E+00  0.45581332205E+03  0.45581332205E+03  0.00000000000E+00 0.  1.
          2   -1    0    0  501    0  0.00000000000E+00 -0.00000000000E+00 -0.10809599020E+04  0.10809599020E+04  0.00000000000E+00 0. -1.
         23    2    1    2    0    0  0.11641316871E+03  0.45027359049E+03 -0.88492101808E+03  0.10040621477E+04  0.93580212468E+02 0.  0.
         13    1    3    3    0    0  0.81732617966E+02  0.20484233754E+03 -0.33793891784E+03  0.40353849417E+03  0.00000000000E+00 0. -1.
        -13    1    3    3    0    0  0.34680550745E+02  0.24543125295E+03 -0.54698210024E+03  0.60052365357E+03  0.00000000000E+00 0.  1.
         22    1    1    2    0    0 -0.11641316871E+03 -0.45027359049E+03  0.25977443810E+03  0.53271107632E+03  0.00000000000E+00 0.  1.
<mgrwt>
<rscale>  0 0.14038745E+04</rscale>
<asrwt>0</asrwt>
<pdfrwt beam="1">  1        2 0.16630152E+00 0.14038745E+04</pdfrwt>
<pdfrwt beam="2">  1       -2 0.70125127E-01 0.14038745E+04</pdfrwt>
<totfact> 0.40341915E+01</totfact>
</mgrwt>
</event>
<event>
 6    1  0.1885829E-005  0.2448362E+04  0.7818608E-02  0.8421616E-01
          2   -1    0    0  501    0  0.00000000000E+00  0.00000000000E+00  0.24572617828E+04  0.24572617828E+04  0.00000000000E+00 0. -1.
         -2   -1    0    0    0  501 -0.00000000000E+00 -0.00000000000E+00 -0.60987367676E+03  0.60987367676E+03  0.00000000000E+00 0.  1.
         23    2    1    2    0    0  0.40404837291E+03 -0.72081698140E+03 -0.20352878303E+03  0.85600626972E+03  0.92144234493E+02 0.  0.
         13    1    3    3    0    0  0.36040757674E+03 -0.65891937637E+03 -0.15750288206E+03  0.76738225402E+03  0.00000000000E+00 0. -1.
        -13    1    3    3    0    0  0.43640796170E+02 -0.61897605034E+02 -0.46025900966E+02  0.88624015701E+02  0.00000000000E+00 0.  1.
         22    1    1    2    0    0 -0.40404837291E+03  0.72081698140E+03  0.20509168891E+04  0.22111291899E+04  0.00000000000E+00 0. -1.
<mgrwt>
<rscale>  0 0.24483621E+04</rscale>
<asrwt>0</asrwt>
<pdfrwt beam="1">  1        2 0.37804027E+00 0.24483621E+04</pdfrwt>
<pdfrwt beam="2">  1       -2 0.93826720E-01 0.24483621E+04</pdfrwt>
<totfact> 0.31663326E+00</totfact>
</mgrwt>
</event>
<event>
 6    1  0.2009203E-005  0.4505408E+04  0.7818608E-02  0.7909691E-01
          2   -1    0    0  501    0  0.00000000000E+00  0.00000000000E+00  0.23106848205E+04  0.23106848205E+04  0.00000000000E+00 0. -1.
         -2   -1    0    0    0  501 -0.00000000000E+00 -0.00000000000E+00 -0.21961782762E+04  0.21961782762E+04  0.00000000000E+00 0.  1.
         23    2    1    2    0    0 -0.19950789820E+03  0.22145335490E+04 -0.29852655634E+03  0.22453241111E+04  0.91651612471E+02 0.  0.
         13    1    3    3    0    0 -0.34579910026E+02  0.87528309062E+03 -0.12535048764E+03  0.88488926068E+03  0.00000000000E+00 0.  1.
        -13    1    3    3    0    0 -0.16492798817E+03  0.13392504584E+04 -0.17317606869E+03  0.13604348504E+04  0.00000000000E+00 0. -1.
         22    1    1    2    0    0  0.19950789820E+03 -0.22145335490E+04  0.41303310060E+03  0.22615389856E+04  0.00000000000E+00 0. -1.
<mgrwt>
<rscale>  0 0.45054082E+04</rscale>
<asrwt>0</asrwt>
<pdfrwt beam="1">  1        2 0.35548997E+00 0.45054082E+04</pdfrwt>
<pdfrwt beam="2">  1       -2 0.33787358E+00 0.45054082E+04</pdfrwt>
<totfact> 0.62777204E-02</totfact>
</mgrwt>
</event>
<event>
 6    1  0.1885829E-005  0.1431963E+04  0.7818608E-02  0.8931001E-01
          2   -1    0    0  501    0  0.00000000000E+00  0.00000000000E+00  0.14156952510E+04  0.14156952510E+04  0.00000000000E+00 0. -1.
         -2   -1    0    0    0  501 -0.00000000000E+00 -0.00000000000E+00 -0.36210464392E+03  0.36210464392E+03  0.00000000000E+00 0.  1.
         23    2    1    2    0    0  0.20202388008E+02  0.40824274156E+03  0.12546784297E+04  0.13222709881E+04  0.84334640637E+02 0.  0.
         13    1    3    3    0    0  0.14734984735E+02  0.20442599021E+03  0.76170321655E+03  0.78879585150E+03  0.00000000000E+00 0.  1.
        -13    1    3    3    0    0  0.54674032731E+01  0.20381675136E+03  0.49297521314E+03  0.53347513663E+03  0.00000000000E+00 0. -1.
         22    1    1    2    0    0 -0.20202388008E+02 -0.40824274156E+03 -0.20108782260E+03  0.45552890679E+03  0.00000000000E+00 0.  1.
<mgrwt>
<rscale>  0 0.14319634E+04</rscale>
<asrwt>0</asrwt>
<pdfrwt beam="1">  1        2 0.21779927E+00 0.14319634E+04</pdfrwt>
<pdfrwt beam="2">  1       -2 0.55708408E-01 0.14319634E+04</pdfrwt>
<totfact> 0.41659468E+01</totfact>
</mgrwt>
</event>
<event>
 6    1  0.1885829E-005  0.5233037E+04  0.7818608E-02  0.7793531E-01
          2   -1    0    0  501    0  0.00000000000E+00  0.00000000000E+00  0.29964999880E+04  0.29964999880E+04  0.00000000000E+00 0. -1.
         -2   -1    0    0    0  501 -0.00000000000E+00 -0.00000000000E+00 -0.22847222183E+04  0.22847222183E+04  0.00000000000E+00 0.  1.
         23    2    1    2    0    0  0.12284590991E+04  0.30059716510E+03 -0.19547584127E+04  0.23299706707E+04  0.90622626334E+02 0.  0.
         13    1    3    3    0    0  0.78185818032E+03  0.21450199580E+03 -0.13195864213E+04  0.15487484120E+04  0.00000000000E+00 0.  1.
        -13    1    3    3    0    0  0.44660091880E+03  0.86095169306E+02 -0.63517199136E+03  0.78122225868E+03  0.00000000000E+00 0. -1.
         22    1    1    2    0    0 -0.12284590991E+04 -0.30059716510E+03  0.26665361824E+04  0.29512515355E+04  0.00000000000E+00 0. -1.
<mgrwt>
<rscale>  0 0.52330374E+04</rscale>
<asrwt>0</asrwt>
<pdfrwt beam="1">  1        2 0.46100000E+00 0.52330374E+04</pdfrwt>
<pdfrwt beam="2">  1       -2 0.35149573E+00 0.52330374E+04</pdfrwt>
<totfact> 0.19034105E-02</totfact>
</mgrwt>
</event>
<event>
 6    1  0.1885829E-005  0.2202049E+04  0.7818608E-02  0.8517576E-01
          2   -1    0    0  501    0  0.00000000000E+00  0.00000000000E+00  0.13249052548E+04  0.13249052548E+04  0.00000000000E+00 0.  1.
         -2   -1    0    0    0  501 -0.00000000000E+00 -0.00000000000E+00 -0.91497455158E+03  0.91497455158E+03  0.00000000000E+00 0. -1.
         23    2    1    2    0    0  0.39206924410E+03 -0.11840075052E+03  0.12428660754E+04  0.13116996708E+04  0.90016194417E+02 0.  0.
         11    1    3    3    0    0  0.24388014161E+03 -0.53707452225E+02  0.87341772199E+03  0.90841649643E+03  0.00000000000E+00 0.  1.
        -11    1    3    3    0    0  0.14818910249E+03 -0.64693298295E+02  0.36944835339E+03  0.40328317441E+03  0.00000000000E+00 0. -1.
         22    1    1    2    0    0 -0.39206924410E+03  0.11840075052E+03 -0.83293537214E+03  0.92818013557E+03  0.00000000000E+00 0. -1.
<mgrwt>
<rscale>  0 0.22020487E+04</rscale>
<asrwt>0</asrwt>
<pdfrwt beam="1">  1        2 0.20383158E+00 0.22020487E+04</pdfrwt>
<pdfrwt beam="2">  1       -2 0.14076532E+00 0.22020487E+04</pdfrwt>
<totfact> 0.51747995E+00</totfact>
</mgrwt>
</event>
<event>
 6    1  0.1885829E-005  0.1504010E+04  0.7818608E-02  0.8881791E-01
         -2   -1    0    0    0  501 -0.00000000000E+00  0.00000000000E+00  0.34342123690E+03  0.34342123690E+03  0.00000000000E+00 0.  1.
          2   -1    0    0  501    0  0.00000000000E+00 -0.00000000000E+00 -0.16466991734E+04  0.16466991734E+04  0.00000000000E+00 0. -1.
         23    2    1    2    0    0  0.60886509539E+02  0.28963453812E+03 -0.15648087367E+04  0.15951600425E+04  0.91180293095E+02 0.  0.
         13    1    3    3    0    0  0.18471699216E+02  0.23098614842E+03 -0.10483515865E+04  0.10736558356E+04  0.00000000000E+00 0. -1.
        -13    1    3    3    0    0  0.42414810323E+02  0.58648389699E+02 -0.51645715023E+03  0.52150420686E+03  0.00000000000E+00 0.  1.
         22    1    1    2    0    0 -0.60886509539E+02 -0.28963453812E+03  0.26153080021E+03  0.39496036785E+03  0.00000000000E+00 0.  1.
<mgrwt>
<rscale>  0 0.15040099E+04</rscale>
<asrwt>0</asrwt>
<pdfrwt beam="1">  1        2 0.25333833E+00 0.15040099E+04</pdfrwt>
<pdfrwt beam="2">  1       -2 0.52834037E-01 0.15040099E+04</pdfrwt>
<totfact> 0.34269382E+01</totfact>
</mgrwt>
</event>
<event>
 6    1  0.1885829E-005  0.1956789E+04  0.7818608E-02  0.8627094E-01
          2   -1    0    0  501    0  0.00000000000E+00  0.00000000000E+00  0.12409335886E+04  0.12409335886E+04  0.00000000000E+00 0.  1.
         -2   -1    0    0    0  501 -0.00000000000E+00 -0.00000000000E+00 -0.77139940233E+03  0.77139940233E+03  0.00000000000E+00 0. -1.
         23    2    1    2    0    0 -0.95235032282E+03  0.88854322506E+02  0.34187437853E+02  0.96143193978E+03  0.91194111216E+02 0.  0.
         11    1    3    3    0    0 -0.55289699724E+03  0.32060045590E+02 -0.20888887994E+02  0.55421952485E+03  0.00000000000E+00 0. -1.
        -11    1    3    3    0    0 -0.39945332558E+03  0.56794276916E+02  0.55076325846E+02  0.40721241493E+03  0.00000000000E+00 0.  1.
         22    1    1    2    0    0  0.95235032282E+03 -0.88854322506E+02  0.43534674844E+03  0.10509010512E+04  0.00000000000E+00 0.  1.
<mgrwt>
<rscale>  0 0.19567886E+04</rscale>
<asrwt>0</asrwt>
<pdfrwt beam="1">  1        2 0.19091286E+00 0.19567886E+04</pdfrwt>
<pdfrwt beam="2">  1       -2 0.11867683E+00 0.19567886E+04</pdfrwt>
<totfact> 0.91143364E+00</totfact>
</mgrwt>
</event>
<event>
 6    1  0.1885829E-005  0.1896751E+04  0.7818608E-02  0.8656475E-01
          2   -1    0    0  501    0  0.00000000000E+00  0.00000000000E+00  0.15878279512E+04  0.15878279512E+04  0.00000000000E+00 0.  1.
         -2   -1    0    0    0  501 -0.00000000000E+00 -0.00000000000E+00 -0.56644441536E+03  0.56644441536E+03  0.00000000000E+00 0. -1.
         23    2    1    2    0    0  0.83549544471E+03 -0.44434425924E+03  0.51132546253E+03  0.10792590192E+04  0.88610626170E+02 0.  0.
         13    1    3    3    0    0  0.63739662893E+03 -0.32030845700E+03  0.42339749497E+03  0.82954048060E+03  0.00000000000E+00 0.  1.
        -13    1    3    3    0    0  0.19809881578E+03 -0.12403580224E+03  0.87927967560E+02  0.24971853862E+03  0.00000000000E+00 0. -1.
         22    1    1    2    0    0 -0.83549544471E+03  0.44434425924E+03  0.51005807333E+03  0.10750133474E+04  0.00000000000E+00 0.  1.
<mgrwt>
<rscale>  0 0.18967512E+04</rscale>
<asrwt>0</asrwt>
<pdfrwt beam="1">  1        2 0.24428122E+00 0.18967512E+04</pdfrwt>
<pdfrwt beam="2">  1       -2 0.87145295E-01 0.18967512E+04</pdfrwt>
<totfact> 0.12078948E+01</totfact>
</mgrwt>
</event>
<event>
 6    1  0.1885829E-005  0.3292495E+04  0.7818608E-02  0.8164808E-01
          2   -1    0    0  501    0  0.00000000000E+00  0.00000000000E+00  0.22354648083E+04  0.22354648083E+04  0.00000000000E+00 0. -1.
         -2   -1    0    0    0  501 -0.00000000000E+00 -0.00000000000E+00 -0.12123345759E+04  0.12123345759E+04  0.00000000000E+00 0.  1.
         23    2    1    2    0    0 -0.12522769830E+04 -0.57217417641E+03  0.14548285313E+04  0.20049049489E+04  0.86815138461E+02 0.  0.
         13    1    3    3    0    0 -0.78722153564E+03 -0.39818805352E+03  0.89782300481E+03  0.12587126837E+04  0.00000000000E+00 0.  1.
        -13    1    3    3    0    0 -0.46505544735E+03 -0.17398612289E+03  0.55700552648E+03  0.74619226517E+03  0.00000000000E+00 0. -1.
         22    1    1    2    0    0  0.12522769830E+04  0.57217417641E+03 -0.43169829884E+03  0.14428944353E+04  0.00000000000E+00 0.  1.
<mgrwt>
<rscale>  0 0.32924953E+04</rscale>
<asrwt>0</asrwt>
<pdfrwt beam="1">  1        2 0.34391766E+00 0.32924953E+04</pdfrwt>
<pdfrwt beam="2">  1       -2 0.18651301E+00 0.32924953E+04</pdfrwt>
<totfact> 0.67437599E-01</totfact>
</mgrwt>
</event>
<event>
 6    1  0.1885829E-005  0.6473253E+03  0.7818608E-02  0.9811811E-01
         -2   -1    0    0    0  501 -0.00000000000E+00  0.00000000000E+00  0.12841905271E+03  0.12841905271E+03  0.00000000000E+00 0.  1.
          2   -1    0    0  501    0  0.00000000000E+00 -0.00000000000E+00 -0.81574744280E+03  0.81574744280E+03  0.00000000000E+00 0. -1.
         23    2    1    2    0    0 -0.13334579654E+03  0.14140143820E+03 -0.71614637649E+03  0.74768254065E+03  0.91586466539E+02 0.  0.
         13    1    3    3    0    0 -0.41931390305E+02  0.38480372513E+02 -0.89257814863E+02  0.10585810350E+03  0.00000000000E+00 0. -1.
        -13    1    3    3    0    0 -0.91414406232E+02  0.10292106569E+03 -0.62688856162E+03  0.64182443715E+03  0.00000000000E+00 0.  1.
         22    1    1    2    0    0  0.13334579654E+03 -0.14140143820E+03  0.28817986403E+02  0.19648395487E+03  0.00000000000E+00 0.  1.
<mgrwt>
<rscale>  0 0.64732531E+03</rscale>
<asrwt>0</asrwt>
<pdfrwt beam="1">  1        2 0.12549961E+00 0.64732531E+03</pdfrwt>
<pdfrwt beam="2">  1       -2 0.19756777E-01 0.64732531E+03</pdfrwt>
<totfact> 0.73605333E+02</totfact>
</mgrwt>
</event>
<event>
 6    1  0.1885829E-005  0.3098107E+04  0.7818608E-02  0.8216258E-01
          2   -1    0    0  501    0  0.00000000000E+00  0.00000000000E+00  0.16228499944E+04  0.16228499944E+04  0.00000000000E+00 0. -1.
         -2   -1    0    0    0  501 -0.00000000000E+00 -0.00000000000E+00 -0.14786123162E+04  0.14786123162E+04  0.00000000000E+00 0.  1.
         23    2    1    2    0    0 -0.10429397724E+04 -0.51300076375E+03  0.10952908123E+04  0.15996649819E+04  0.91503762029E+02 0.  0.
         11    1    3    3    0    0 -0.21796011580E+03 -0.11823590194E+03  0.28509693110E+03  0.37784467802E+03  0.00000000000E+00 0.  1.
        -11    1    3    3    0    0 -0.82497965659E+03 -0.39476486180E+03  0.81019388119E+03  0.12218203039E+04  0.00000000000E+00 0. -1.
         22    1    1    2    0    0  0.10429397724E+04  0.51300076375E+03 -0.95105313417E+03  0.15017973287E+04  0.00000000000E+00 0.  1.
<mgrwt>
<rscale>  0 0.30981065E+04</rscale>
<asrwt>0</asrwt>
<pdfrwt beam="1">  1        2 0.24966923E+00 0.30981065E+04</pdfrwt>
<pdfrwt beam="2">  1       -2 0.22747882E+00 0.30981065E+04</pdfrwt>
<totfact> 0.81534752E-01</totfact>
</mgrwt>
</event>
<event>
 6    1  0.1885829E-005  0.1987659E+04  0.7818608E-02  0.8612412E-01
         -2   -1    0    0    0  501 -0.00000000000E+00  0.00000000000E+00  0.36791403639E+03  0.36791403639E+03  0.00000000000E+00 0.  1.
          2   -1    0    0  501    0  0.00000000000E+00 -0.00000000000E+00 -0.26845855932E+04  0.26845855932E+04  0.00000000000E+00 0. -1.
         23    2    1    2    0    0  0.71127153458E+03  0.63171401393E+03 -0.73043957379E+03  0.12028775884E+04  0.91666408259E+02 0.  0.
         13    1    3    3    0    0  0.54572583730E+03  0.48528633987E+03 -0.51012954249E+03  0.89081517235E+03  0.00000000000E+00 0. -1.
        -13    1    3    3    0    0  0.16554569728E+03  0.14642767406E+03 -0.22031003130E+03  0.31206241605E+03  0.00000000000E+00 0.  1.
         22    1    1    2    0    0 -0.71127153458E+03 -0.63171401393E+03 -0.15862319830E+04  0.18496220412E+04  0.00000000000E+00 0. -1.
<mgrwt>
<rscale>  0 0.19876586E+04</rscale>
<asrwt>0</asrwt>
<pdfrwt beam="1">  1        2 0.41301317E+00 0.19876586E+04</pdfrwt>
<pdfrwt beam="2">  1       -2 0.56602160E-01 0.19876586E+04</pdfrwt>
<totfact> 0.73940240E+00</totfact>
</mgrwt>
</event>
<event>
 6    1  0.1954153E-005  0.3913928E+04  0.7818608E-02  0.8022139E-01
          2   -1    0    0  501    0  0.00000000000E+00  0.00000000000E+00  0.22394097836E+04  0.22394097836E+04  0.00000000000E+00 0. -1.
         -2   -1    0    0    0  501 -0.00000000000E+00 -0.00000000000E+00 -0.17101413332E+04  0.17101413332E+04  0.00000000000E+00 0.  1.
         23    2    1    2    0    0 -0.12665724336E+04  0.23796027644E+03 -0.12199142163E+04  0.17768866641E+04  0.91130121789E+02 0.  0.
         13    1    3    3    0    0 -0.82725920234E+03  0.13094898881E+03 -0.84142660825E+03  0.11872254051E+04  0.00000000000E+00 0. -1.
        -13    1    3    3    0    0 -0.43931323126E+03  0.10701128763E+03 -0.37848760805E+03  0.58966125893E+03  0.00000000000E+00 0.  1.
         22    1    1    2    0    0  0.12665724336E+04 -0.23796027644E+03  0.17491826667E+04  0.21726644527E+04  0.00000000000E+00 0. -1.
<mgrwt>
<rscale>  0 0.39139276E+04</rscale>
<asrwt>0</asrwt>
<pdfrwt beam="1">  1        2 0.34452458E+00 0.39139276E+04</pdfrwt>
<pdfrwt beam="2">  1       -2 0.26309866E+00 0.39139276E+04</pdfrwt>
<totfact> 0.20817689E-01</totfact>
</mgrwt>
</event>
<event>
 6    1  0.1885829E-005  0.1594492E+04  0.7818608E-02  0.8823939E-01
         -2   -1    0    0    0  501 -0.00000000000E+00  0.00000000000E+00  0.26822468246E+03  0.26822468246E+03  0.00000000000E+00 0.  1.
          2   -1    0    0  501    0  0.00000000000E+00 -0.00000000000E+00 -0.23696586613E+04  0.23696586613E+04  0.00000000000E+00 0. -1.
         23    2    1    2    0    0  0.72512333314E+03  0.13934806561E+03 -0.15396097889E+04  0.17100535360E+04  0.93075573885E+02 0.  0.
         11    1    3    3    0    0  0.26897104544E+03  0.86190427880E+02 -0.51884158046E+03  0.59073750411E+03  0.00000000000E+00 0.  1.
        -11    1    3    3    0    0  0.45615228770E+03  0.53157637733E+02 -0.10207682084E+04  0.11193160319E+04  0.00000000000E+00 0. -1.
         22    1    1    2    0    0 -0.72512333314E+03 -0.13934806561E+03 -0.56182418996E+03  0.92782980771E+03  0.00000000000E+00 0.  1.
<mgrwt>
<rscale>  0 0.15944917E+04</rscale>
<asrwt>0</asrwt>
<pdfrwt beam="1">  1        2 0.36456287E+00 0.15944917E+04</pdfrwt>
<pdfrwt beam="2">  1       -2 0.41265335E-01 0.15944917E+04</pdfrwt>
<totfact> 0.22115179E+01</totfact>
</mgrwt>
</event>
<event>
 6    1  0.1885829E-005  0.2656231E+04  0.7818608E-02  0.8349348E-01
         -2   -1    0    0    0  501 -0.00000000000E+00  0.00000000000E+00  0.98278647468E+03  0.98278647468E+03  0.00000000000E+00 0.  1.
          2   -1    0    0  501    0  0.00000000000E+00 -0.00000000000E+00 -0.17947859753E+04  0.17947859753E+04  0.00000000000E+00 0. -1.
         23    2    1    2    0    0  0.10152363353E+04 -0.17619781247E+03  0.46717692665E+03  0.11350004370E+04  0.90670973680E+02 0.  0.
         13    1    3    3    0    0  0.55946276405E+03 -0.96824050178E+02  0.30672759293E+03  0.64533347760E+03  0.00000000000E+00 0.  1.
        -13    1    3    3    0    0  0.45577357129E+03 -0.79373762289E+02  0.16044933372E+03  0.48966695939E+03  0.00000000000E+00 0. -1.
         22    1    1    2    0    0 -0.10152363353E+04  0.17619781247E+03 -0.12791764272E+04  0.16425720129E+04  0.00000000000E+00 0. -1.
<mgrwt>
<rscale>  0 0.26562315E+04</rscale>
<asrwt>0</asrwt>
<pdfrwt beam="1">  1        2 0.27612092E+00 0.26562315E+04</pdfrwt>
<pdfrwt beam="2">  1       -2 0.15119792E+00 0.26562315E+04</pdfrwt>
<totfact> 0.22439169E+00</totfact>
</mgrwt>
</event>
<event>
 6    1  0.1885829E-005  0.1555001E+04  0.7818608E-02  0.8848680E-01
         -3   -1    0    0    0  501 -0.00000000000E+00  0.00000000000E+00  0.82852690149E+03  0.82852690149E+03  0.00000000000E+00 0.  1.
          3   -1    0    0  501    0  0.00000000000E+00 -0.00000000000E+00 -0.72961619091E+03  0.72961619091E+03  0.00000000000E+00 0. -1.
         23    2    1    2    0    0 -0.15135317721E+03  0.64537633547E+03 -0.35231789691E+03  0.75625428786E+03  0.91510921661E+02 0.  0.
         11    1    3    3    0    0 -0.10344768099E+03  0.27763591000E+03 -0.12724644529E+03  0.32245120416E+03  0.00000000000E+00 0. -1.
        -11    1    3    3    0    0 -0.47905496218E+02  0.36774042547E+03 -0.22507145161E+03  0.43380308370E+03  0.00000000000E+00 0.  1.
         22    1    1    2    0    0  0.15135317721E+03 -0.64537633547E+03  0.45122860749E+03  0.80188880454E+03  0.00000000000E+00 0.  1.
<mgrwt>
<rscale>  0 0.15550005E+04</rscale>
<asrwt>0</asrwt>
<pdfrwt beam="1">  1        3 0.11224864E+00 0.15550005E+04</pdfrwt>
<pdfrwt beam="2">  1       -3 0.12746568E+00 0.15550005E+04</pdfrwt>
<totfact> 0.81708295E-01</totfact>
</mgrwt>
</event>
<event>
 6    1  0.1885829E-005  0.5139036E+03  0.7818608E-02  0.1010212E+00
          2   -1    0    0  501    0  0.00000000000E+00  0.00000000000E+00  0.81640355972E+03  0.81640355972E+03  0.00000000000E+00 0. -1.
         -2   -1    0    0    0  501 -0.00000000000E+00 -0.00000000000E+00 -0.80872052026E+02  0.80872052026E+02  0.00000000000E+00 0.  1.
         23    2    1    2    0    0  0.97796707881E+02 -0.89541414785E+02  0.74674825057E+03  0.76420541841E+03  0.93782251848E+02 0.  0.
         13    1    3    3    0    0  0.60925928793E+01  0.14572104307E+02  0.18121944423E+03  0.18190643990E+03  0.00000000000E+00 0. -1.
        -13    1    3    3    0    0  0.91704115002E+02 -0.10411351909E+03  0.56552880634E+03  0.58229897851E+03  0.00000000000E+00 0.  1.
         22    1    1    2    0    0 -0.97796707881E+02  0.89541414785E+02 -0.11216742876E+02  0.13307019334E+03  0.00000000000E+00 0.  1.
<mgrwt>
<rscale>  0 0.51390361E+03</rscale>
<asrwt>0</asrwt>
<pdfrwt beam="1">  1        2 0.12560054E+00 0.51390361E+03</pdfrwt>
<pdfrwt beam="2">  1       -2 0.12441855E-01 0.51390361E+03</pdfrwt>
<totfact> 0.16122022E+03</totfact>
</mgrwt>
</event>
<event>
 6    1  0.1885829E-005  0.1459855E+04  0.7818608E-02  0.8911596E-01
          1   -1    0    0  501    0  0.00000000000E+00  0.00000000000E+00  0.34915212339E+03  0.34915212339E+03  0.00000000000E+00 0. -1.
         -1   -1    0    0    0  501 -0.00000000000E+00 -0.00000000000E+00 -0.15259666857E+04  0.15259666857E+04  0.00000000000E+00 0.  1.
         23    2    1    2    0    0 -0.24210514970E+03  0.20993969743E+03 -0.14299053684E+04  0.14667751594E+04  0.64112600109E+02 0.  0.
         11    1    3    3    0    0 -0.17889993641E+03  0.11498503241E+03 -0.91615569888E+03  0.94051475774E+03  0.00000000000E+00 0. -1.
        -11    1    3    3    0    0 -0.63205213293E+02  0.94954665024E+02 -0.51374966955E+03  0.52626040166E+03  0.00000000000E+00 0.  1.
         22    1    1    2    0    0  0.24210514970E+03 -0.20993969743E+03  0.25309080615E+03  0.40834364967E+03  0.00000000000E+00 0. -1.
<mgrwt>
<rscale>  0 0.14598555E+04</rscale>
<asrwt>0</asrwt>
<pdfrwt beam="1">  1        1 0.53715711E-01 0.14598555E+04</pdfrwt>
<pdfrwt beam="2">  1       -1 0.23476411E+00 0.14598555E+04</pdfrwt>
<totfact> 0.61227503E+00</totfact>
</mgrwt>
</event>
<event>
 6    1  0.1885829E-005  0.2893721E+04  0.7818608E-02  0.8274748E-01
         -2   -1    0    0    0  501 -0.00000000000E+00  0.00000000000E+00  0.94161093408E+03  0.94161093408E+03  0.00000000000E+00 0.  1.
          2   -1    0    0  501    0  0.00000000000E+00 -0.00000000000E+00 -0.22232169834E+04  0.22232169834E+04  0.00000000000E+00 0. -1.
         23    2    1    2    0    0  0.58542176550E+03 -0.12032442932E+04 -0.43672328371E+02  0.13419194255E+04  0.91241436220E+02 0.  0.
         13    1    3    3    0    0  0.39664944596E+03 -0.76309954876E+03 -0.65365025154E+02  0.86251045837E+03  0.00000000000E+00 0.  1.
        -13    1    3    3    0    0  0.18877231954E+03 -0.44014474444E+03  0.21692696783E+02  0.47940896715E+03  0.00000000000E+00 0. -1.
         22    1    1    2    0    0 -0.58542176550E+03  0.12032442932E+04 -0.12379337210E+04  0.18229084920E+04  0.00000000000E+00 0.  1.
<mgrwt>
<rscale>  0 0.28937211E+04</rscale>
<asrwt>0</asrwt>
<pdfrwt beam="1">  1        2 0.34203338E+00 0.28937211E+04</pdfrwt>
<pdfrwt beam="2">  1       -2 0.14486322E+00 0.28937211E+04</pdfrwt>
<totfact> 0.14212066E+00</totfact>
</mgrwt>
</event>
<event>
 6    1  0.1885829E-005  0.4035066E+04  0.7818608E-02  0.7997510E-01
          2   -1    0    0  501    0  0.00000000000E+00  0.00000000000E+00  0.14513379165E+04  0.14513379165E+04  0.00000000000E+00 0.  1.
         -2   -1    0    0    0  501 -0.00000000000E+00 -0.00000000000E+00 -0.28046111518E+04  0.28046111518E+04  0.00000000000E+00 0. -1.
         23    2    1    2    0    0  0.12134734238E+03 -0.19094404995E+04 -0.50814081964E+01  0.19153702079E+04  0.89045009894E+02 0.  0.
         13    1    3    3    0    0 -0.69480157551E+01 -0.50317806737E+03 -0.64197804039E+01  0.50326698281E+03  0.00000000000E+00 0. -1.
        -13    1    3    3    0    0  0.12829535813E+03 -0.14062624322E+04  0.13383722074E+01  0.14121032251E+04  0.00000000000E+00 0.  1.
         22    1    1    2    0    0 -0.12134734238E+03  0.19094404995E+04 -0.13481918272E+04  0.23405788604E+04  0.00000000000E+00 0.  1.
<mgrwt>
<rscale>  0 0.40350656E+04</rscale>
<asrwt>0</asrwt>
<pdfrwt beam="1">  1        2 0.22328276E+00 0.40350656E+04</pdfrwt>
<pdfrwt beam="2">  1       -2 0.43147863E+00 0.40350656E+04</pdfrwt>
<totfact> 0.48972609E-02</totfact>
</mgrwt>
</event>
<event>
 6    1  0.1885829E-005  0.1768353E+04  0.7818608E-02  0.8723312E-01
         -2   -1    0    0    0  501 -0.00000000000E+00  0.00000000000E+00  0.90387425241E+03  0.90387425241E+03  0.00000000000E+00 0.  1.
          2   -1    0    0  501    0  0.00000000000E+00 -0.00000000000E+00 -0.86490831415E+03  0.86490831415E+03  0.00000000000E+00 0. -1.
         23    2    1    2    0    0  0.52570120479E+02  0.70390616732E+03 -0.50963143357E+03  0.87479901732E+03  0.85449474350E+02 0.  0.
         13    1    3    3    0    0  0.31728626452E+02  0.16122553679E+03 -0.15707777728E+03  0.22731873562E+03  0.00000000000E+00 0. -1.
        -13    1    3    3    0    0  0.20841494026E+02  0.54268063053E+03 -0.35255365628E+03  0.64748028169E+03  0.00000000000E+00 0.  1.
         22    1    1    2    0    0 -0.52570120479E+02 -0.70390616732E+03  0.54859737182E+03  0.89398354924E+03  0.00000000000E+00 0.  1.
<mgrwt>
<rscale>  0 0.17683533E+04</rscale>
<asrwt>0</asrwt>
<pdfrwt beam="1">  1        2 0.13306282E+00 0.17683533E+04</pdfrwt>
<pdfrwt beam="2">  1       -2 0.13905758E+00 0.17683533E+04</pdfrwt>
<totfact> 0.10718564E+01</totfact>
</mgrwt>
</event>
<event>
 6    1  0.1885829E-005  0.3803928E+04  0.7818608E-02  0.8045312E-01
          2   -1    0    0  501    0  0.00000000000E+00  0.00000000000E+00  0.34321493445E+04  0.34321493445E+04  0.00000000000E+00 0. -1.
         -2   -1    0    0    0  501 -0.00000000000E+00 -0.00000000000E+00 -0.10539949243E+04  0.10539949243E+04  0.00000000000E+00 0.  1.
         23    2    1    2    0    0 -0.14278762252E+04  0.16162168016E+03 -0.27773014789E+03  0.14664298914E+04  0.91271623821E+02 0.  0.
         11    1    3    3    0    0 -0.13592354657E+04  0.15960991886E+03 -0.24489372433E+03  0.13903126675E+04  0.00000000000E+00 0.  1.
        -11    1    3    3    0    0 -0.68640759509E+02  0.20117613030E+01 -0.32836423554E+02  0.76117223815E+02  0.00000000000E+00 0. -1.
         22    1    1    2    0    0  0.14278762252E+04 -0.16162168016E+03  0.26558845682E+04  0.30197143775E+04  0.00000000000E+00 0. -1.
<mgrwt>
<rscale>  0 0.38039285E+04</rscale>
<asrwt>0</asrwt>
<pdfrwt beam="1">  1        2 0.52802297E+00 0.38039285E+04</pdfrwt>
<pdfrwt beam="2">  1       -2 0.16215307E+00 0.38039285E+04</pdfrwt>
<totfact> 0.17611967E-01</totfact>
</mgrwt>
</event>
<event>
 6    1  0.1885829E-005  0.3222564E+04  0.7818608E-02  0.8182883E-01
         -2   -1    0    0    0  501 -0.00000000000E+00  0.00000000000E+00  0.75897258996E+03  0.75897258996E+03  0.00000000000E+00 0. -1.
          2   -1    0    0  501    0  0.00000000000E+00 -0.00000000000E+00 -0.34207167924E+04  0.34207167924E+04  0.00000000000E+00 0.  1.
         23    2    1    2    0    0 -0.63119649041E+03 -0.78305312468E+03  0.29873528373E+03  0.10530266257E+04  0.89672176326E+02 0.  0.
         13    1    3    3    0    0 -0.25612305870E+03 -0.32244493874E+03  0.76633433631E+02  0.41885849981E+03  0.00000000000E+00 0. -1.
        -13    1    3    3    0    0 -0.37507343171E+03 -0.46060818594E+03  0.22210185010E+03  0.63416812594E+03  0.00000000000E+00 0.  1.
         22    1    1    2    0    0  0.63119649041E+03  0.78305312468E+03 -0.29604794862E+04  0.31266627566E+04  0.00000000000E+00 0.  1.
<mgrwt>
<rscale>  0 0.32225644E+04</rscale>
<asrwt>0</asrwt>
<pdfrwt beam="1">  1        2 0.52626413E+00 0.32225644E+04</pdfrwt>
<pdfrwt beam="2">  1       -2 0.11676501E+00 0.32225644E+04</pdfrwt>
<totfact> 0.44003535E-01</totfact>
</mgrwt>
</event>
<event>
 6    1  0.1885829E-005  0.3398010E+04  0.7818608E-02  0.8138395E-01
         -2   -1    0    0    0  501 -0.00000000000E+00  0.00000000000E+00  0.81371211271E+03  0.81371211271E+03  0.00000000000E+00 0.  1.
          2   -1    0    0  501    0  0.00000000000E+00 -0.00000000000E+00 -0.35474685051E+04  0.35474685051E+04  0.00000000000E+00 0. -1.
         23    2    1    2    0    0  0.14552184491E+04  0.91296863855E+02 -0.25161184678E+03  0.14824591312E+04  0.91546175914E+02 0.  0.
         13    1    3    3    0    0  0.11772323938E+04  0.87474709027E+02 -0.23720351854E+03  0.12040736867E+04  0.00000000000E+00 0. -1.
        -13    1    3    3    0    0  0.27798605532E+03  0.38221548281E+01 -0.14408328246E+02  0.27838544456E+03  0.00000000000E+00 0.  1.
         22    1    1    2    0    0 -0.14552184491E+04 -0.91296863855E+02 -0.24821445456E+04  0.28787214865E+04  0.00000000000E+00 0. -1.
<mgrwt>
<rscale>  0 0.33980101E+04</rscale>
<asrwt>0</asrwt>
<pdfrwt beam="1">  1        2 0.54576438E+00 0.33980101E+04</pdfrwt>
<pdfrwt beam="2">  1       -2 0.12518648E+00 0.33980101E+04</pdfrwt>
<totfact> 0.29743658E-01</totfact>
</mgrwt>
</event>
<event>
 6    1  0.1885829E-005  0.2368255E+04  0.7818608E-02  0.8451485E-01
          1   -1    0    0  501    0  0.00000000000E+00  0.00000000000E+00  0.97477697337E+03  0.97477697337E+03  0.00000000000E+00 0. -1.
         -1   -1    0    0    0  501 -0.00000000000E+00 -0.00000000000E+00 -0.14384393475E+04  0.14384393475E+04  0.00000000000E+00 0.  1.
         23    2    1    2    0    0 -0.25048399589E+03 -0.11134824471E+04 -0.54699485910E+03  0.12688694786E+04  0.90779874127E+02 0.  0.
         13    1    3    3    0    0 -0.12370053656E+03 -0.74516009659E+03 -0.36471039010E+03  0.83879619750E+03  0.00000000000E+00 0. -1.
        -13    1    3    3    0    0 -0.12678345932E+03 -0.36832235055E+03 -0.18228446900E+03  0.43007328109E+03  0.00000000000E+00 0.  1.
         22    1    1    2    0    0  0.25048399589E+03  0.11134824471E+04  0.83332485003E+02  0.11443468422E+04  0.00000000000E+00 0. -1.
<mgrwt>
<rscale>  0 0.23682547E+04</rscale>
<asrwt>0</asrwt>
<pdfrwt beam="1">  1        1 0.14996569E+00 0.23682547E+04</pdfrwt>
<pdfrwt beam="2">  1       -1 0.22129836E+00 0.23682547E+04</pdfrwt>
<totfact> 0.15351502E+00</totfact>
</mgrwt>
</event>
<event>
 6    1  0.1885829E-005  0.2816554E+04  0.7818608E-02  0.8298147E-01
         -2   -1    0    0    0  501 -0.00000000000E+00  0.00000000000E+00  0.19331372138E+04  0.19331372138E+04  0.00000000000E+00 0.  1.
          2   -1    0    0  501    0  0.00000000000E+00 -0.00000000000E+00 -0.10259199913E+04  0.10259199913E+04  0.00000000000E+00 0. -1.
         23    2    1    2    0    0 -0.21128639441E+03  0.13139074927E+04 -0.25097920282E+02  0.13341860209E+04  0.91801922123E+02 0.  0.
         13    1    3    3    0    0 -0.37843365895E+02  0.27243725137E+03 -0.41974452860E+02  0.27823736444E+03  0.00000000000E+00 0. -1.
        -13    1    3    3    0    0 -0.17344302851E+03  0.10414702413E+04  0.16876532578E+02  0.10559486564E+04  0.00000000000E+00 0.  1.
         22    1    1    2    0    0  0.21128639441E+03 -0.13139074927E+04  0.93231514278E+03  0.16248711842E+04  0.00000000000E+00 0.  1.
<mgrwt>
<rscale>  0 0.28165540E+04</rscale>
<asrwt>0</asrwt>
<pdfrwt beam="1">  1        2 0.15783385E+00 0.28165540E+04</pdfrwt>
<pdfrwt beam="2">  1       -2 0.29740572E+00 0.28165540E+04</pdfrwt>
<totfact> 0.69454051E-01</totfact>
</mgrwt>
</event>
<event>
 6    1  0.1885829E-005  0.2413114E+04  0.7818608E-02  0.8434610E-01
         -2   -1    0    0    0  501 -0.00000000000E+00  0.00000000000E+00  0.45057473481E+03  0.45057473481E+03  0.00000000000E+00 0. -1.
          2   -1    0    0  501    0  0.00000000000E+00 -0.00000000000E+00 -0.32309385629E+04  0.32309385629E+04  0.00000000000E+00 0.  1.
         23    2    1    2    0    0 -0.73473967174E+03 -0.19314743421E+03 -0.28189494851E+04  0.29208312553E+04  0.87353912379E+02 0.  0.
         13    1    3    3    0    0 -0.52719780712E+03 -0.15808320507E+03 -0.19019497956E+04  0.19799850638E+04  0.00000000000E+00 0.  1.
        -13    1    3    3    0    0 -0.20754186462E+03 -0.35064229142E+02 -0.91699968947E+03  0.94084619159E+03  0.00000000000E+00 0. -1.
         22    1    1    2    0    0  0.73473967174E+03  0.19314743421E+03  0.38585657069E+02  0.76068204232E+03  0.00000000000E+00 0. -1.
<mgrwt>
<rscale>  0 0.24131136E+04</rscale>
<asrwt>0</asrwt>
<pdfrwt beam="1">  1        2 0.49706749E+00 0.24131136E+04</pdfrwt>
<pdfrwt beam="2">  1       -2 0.69319187E-01 0.24131136E+04</pdfrwt>
<totfact> 0.21132097E+00</totfact>
</mgrwt>
</event>
<event>
 6    1  0.1885829E-005  0.2838886E+04  0.7818608E-02  0.8291296E-01
         -2   -1    0    0    0  501 -0.00000000000E+00  0.00000000000E+00  0.11780822247E+04  0.11780822247E+04  0.00000000000E+00 0.  1.
          2   -1    0    0  501    0  0.00000000000E+00 -0.00000000000E+00 -0.17102531721E+04  0.17102531721E+04  0.00000000000E+00 0. -1.
         23    2    1    2    0    0  0.10742725065E+04 -0.39656142407E+03 -0.11153776110E+04  0.16032469199E+04  0.12251975239E+03 0.  0.
         13    1    3    3    0    0  0.12209024478E+03 -0.18486660520E+02 -0.82850527219E+02  0.14870102336E+03  0.00000000000E+00 0. -1.
        -13    1    3    3    0    0  0.95218226171E+03 -0.37807476355E+03 -0.10325270838E+04  0.14545458965E+04  0.00000000000E+00 0.  1.
         22    1    1    2    0    0 -0.10742725065E+04  0.39656142407E+03  0.58320666348E+03  0.12850884769E+04  0.00000000000E+00 0.  1.
<mgrwt>
<rscale>  0 0.28388863E+04</rscale>
<asrwt>0</asrwt>
<pdfrwt beam="1">  1        2 0.26311587E+00 0.28388863E+04</pdfrwt>
<pdfrwt beam="2">  1       -2 0.18124342E+00 0.28388863E+04</pdfrwt>
<totfact> 0.14927440E+00</totfact>
</mgrwt>
</event>
<event>
 6    1  0.1885829E-005  0.2321948E+04  0.7818608E-02  0.8469317E-01
         -2   -1    0    0    0  501 -0.00000000000E+00  0.00000000000E+00  0.41763853063E+03  0.41763853063E+03  0.00000000000E+00 0.  1.
          2   -1    0    0  501    0  0.00000000000E+00 -0.00000000000E+00 -0.32273381797E+04  0.32273381797E+04  0.00000000000E+00 0. -1.
         23    2    1    2    0    0 -0.74574717981E+03  0.73057017192E+03 -0.21978587615E+04  0.24349267510E+04  0.91725215790E+02 0.  0.
         13    1    3    3    0    0 -0.26160963739E+03  0.26347858347E+03 -0.88539576348E+03  0.96009698693E+03  0.00000000000E+00 0. -1.
        -13    1    3    3    0    0 -0.48413754242E+03  0.46709158844E+03 -0.13124629980E+04  0.14748297641E+04  0.00000000000E+00 0.  1.
         22    1    1    2    0    0  0.74574717981E+03 -0.73057017192E+03 -0.61184088761E+03  0.12100499593E+04  0.00000000000E+00 0. -1.
<mgrwt>
<rscale>  0 0.23219481E+04</rscale>
<asrwt>0</asrwt>
<pdfrwt beam="1">  1        2 0.49651355E+00 0.23219481E+04</pdfrwt>
<pdfrwt beam="2">  1       -2 0.64252084E-01 0.23219481E+04</pdfrwt>
<totfact> 0.25240492E+00</totfact>
</mgrwt>
</event>
<event>
 6    1  0.1885829E-005  0.2370797E+04  0.7818608E-02  0.8450518E-01
          2   -1    0    0  501    0  0.00000000000E+00  0.00000000000E+00  0.16134512930E+04  0.16134512930E+04  0.00000000000E+00 0. -1.
         -2   -1    0    0    0  501 -0.00000000000E+00 -0.00000000000E+00 -0.87090891206E+03  0.87090891206E+03  0.00000000000E+00 0.  1.
         23    2    1    2    0    0  0.45441926074E+03 -0.17499393972E+01 -0.77342706833E+03  0.90174739773E+03  0.91972889919E+02 0.  0.
         13    1    3    3    0    0  0.20491645153E+03 -0.34255932311E+02 -0.28973049219E+03  0.35652205978E+03  0.00000000000E+00 0. -1.
        -13    1    3    3    0    0  0.24950280921E+03  0.32505992913E+02 -0.48369657614E+03  0.54522533796E+03  0.00000000000E+00 0.  1.
         22    1    1    2    0    0 -0.45441926074E+03  0.17499393972E+01  0.15159694492E+04  0.15826128073E+04  0.00000000000E+00 0. -1.
<mgrwt>
<rscale>  0 0.23707966E+04</rscale>
<asrwt>0</asrwt>
<pdfrwt beam="1">  1        2 0.24822328E+00 0.23707966E+04</pdfrwt>
<pdfrwt beam="2">  1       -2 0.13398599E+00 0.23707966E+04</pdfrwt>
<totfact> 0.39740206E+00</totfact>
</mgrwt>
</event>
<event>
 6    1  0.1885829E-005  0.7555502E+03  0.7818608E-02  0.9626683E-01
         -2   -1    0    0    0  501 -0.00000000000E+00  0.00000000000E+00  0.59320610908E+03  0.59320610908E+03  0.00000000000E+00 0.  1.
          2   -1    0    0  501    0  0.00000000000E+00 -0.00000000000E+00 -0.24058084383E+03  0.24058084383E+03  0.00000000000E+00 0. -1.
         23    2    1    2    0    0 -0.78780558081E+02 -0.10102213888E+03  0.56462041811E+03  0.58608997329E+03  0.91068058957E+02 0.  0.
         11    1    3    3    0    0  0.81527592509E+01 -0.35182307445E+02  0.61789333761E+02  0.71569434867E+02  0.00000000000E+00 0. -1.
        -11    1    3    3    0    0 -0.86933317332E+02 -0.65839831438E+02  0.50283108435E+03  0.51452053842E+03  0.00000000000E+00 0.  1.
         22    1    1    2    0    0  0.78780558081E+02  0.10102213888E+03 -0.21199515287E+03  0.24769697963E+03  0.00000000000E+00 0. -1.
<mgrwt>
<rscale>  0 0.75555020E+03</rscale>
<asrwt>0</asrwt>
<pdfrwt beam="1">  1        2 0.37012438E-01 0.75555020E+03</pdfrwt>
<pdfrwt beam="2">  1       -2 0.91262478E-01 0.75555020E+03</pdfrwt>
<totfact> 0.14501235E+02</totfact>
</mgrwt>
</event>
<event>
 6    1  0.1885829E-005  0.2562711E+04  0.7818608E-02  0.8380979E-01
          2   -1    0    0  501    0  0.00000000000E+00  0.00000000000E+00  0.19616778514E+04  0.19616778514E+04  0.00000000000E+00 0. -1.
         -2   -1    0    0    0  501 -0.00000000000E+00 -0.00000000000E+00 -0.83697311785E+03  0.83697311785E+03  0.00000000000E+00 0.  1.
         23    2    1    2    0    0 -0.59786335598E+03  0.79174442582E+03 -0.32030104134E+03  0.10458413624E+04  0.83015480849E+02 0.  0.
         13    1    3    3    0    0 -0.15968977297E+03  0.25187789235E+03 -0.12712958240E+03  0.32419936299E+03  0.00000000000E+00 0.  1.
        -13    1    3    3    0    0 -0.43817358301E+03  0.53986653347E+03 -0.19317145895E+03  0.72164199944E+03  0.00000000000E+00 0. -1.
         22    1    1    2    0    0  0.59786335598E+03 -0.79174442582E+03  0.14450057749E+04  0.17528096068E+04  0.00000000000E+00 0. -1.
<mgrwt>
<rscale>  0 0.25627108E+04</rscale>
<asrwt>0</asrwt>
<pdfrwt beam="1">  1        2 0.30179659E+00 0.25627108E+04</pdfrwt>
<pdfrwt beam="2">  1       -2 0.12876510E+00 0.25627108E+04</pdfrwt>
<totfact> 0.27703903E+00</totfact>
</mgrwt>
</event>
<event>
 6    1  0.1885829E-005  0.2961881E+04  0.7818608E-02  0.8254700E-01
          2   -1    0    0  501    0  0.00000000000E+00  0.00000000000E+00  0.18946801289E+04  0.18946801289E+04  0.00000000000E+00 0. -1.
         -2   -1    0    0    0  501 -0.00000000000E+00 -0.00000000000E+00 -0.11575490354E+04  0.11575490354E+04  0.00000000000E+00 0.  1.
         23    2    1    2    0    0 -0.14263441602E+04  0.23907800694E+02 -0.35417701374E+02  0.14299280557E+04  0.91709239456E+02 0.  0.
         11    1    3    3    0    0 -0.75226353507E+03 -0.26331074365E+02 -0.42763456992E+02  0.75393797154E+03  0.00000000000E+00 0. -1.
        -11    1    3    3    0    0 -0.67408062515E+03  0.50238875059E+02  0.73457556184E+01  0.67599008417E+03  0.00000000000E+00 0.  1.
         22    1    1    2    0    0  0.14263441602E+04 -0.23907800694E+02  0.77254879486E+03  0.16223011085E+04  0.00000000000E+00 0.  1.
<mgrwt>
<rscale>  0 0.29618813E+04</rscale>
<asrwt>0</asrwt>
<pdfrwt beam="1">  1        2 0.29148925E+00 0.29618813E+04</pdfrwt>
<pdfrwt beam="2">  1       -2 0.17808447E+00 0.29618813E+04</pdfrwt>
<totfact> 0.12275339E+00</totfact>
</mgrwt>
</event>
<event>
 6    1  0.1885829E-005  0.1630954E+04  0.7818608E-02  0.8801754E-01
          2   -1    0    0  501    0  0.00000000000E+00  0.00000000000E+00  0.28341892558E+04  0.28341892558E+04  0.00000000000E+00 0. -1.
         -2   -1    0    0    0  501 -0.00000000000E+00 -0.00000000000E+00 -0.23463591269E+03  0.23463591269E+03  0.00000000000E+00 0.  1.
         23    2    1    2    0    0  0.29313698206E+03  0.56943332361E+03  0.36302491106E+03  0.74240237208E+03  0.95867594791E+02 0.  0.
         13    1    3    3    0    0  0.20062015100E+03  0.29719967279E+03  0.17635718525E+03  0.39959723133E+03  0.00000000000E+00 0.  1.
        -13    1    3    3    0    0  0.92516831056E+02  0.27223365082E+03  0.18666772581E+03  0.34280514076E+03  0.00000000000E+00 0. -1.
         22    1    1    2    0    0 -0.29313698206E+03 -0.56943332361E+03  0.22365284321E+04  0.23264227964E+04  0.00000000000E+00 0.  1.
<mgrwt>
<rscale>  0 0.16309538E+04</rscale>
<asrwt>0</asrwt>
<pdfrwt beam="1">  1        2 0.43602909E+00 0.16309538E+04</pdfrwt>
<pdfrwt beam="2">  1       -2 0.36097835E-01 0.16309538E+04</pdfrwt>
<totfact> 0.15289503E+01</totfact>
</mgrwt>
</event>
<event>
 6    1  0.1885829E-005  0.1257515E+04  0.7818608E-02  0.9063952E-01
          2   -1    0    0  501    0  0.00000000000E+00  0.00000000000E+00  0.15234297935E+04  0.15234297935E+04  0.00000000000E+00 0. -1.
         -2   -1    0    0    0  501 -0.00000000000E+00 -0.00000000000E+00 -0.25950386458E+03  0.25950386458E+03  0.00000000000E+00 0.  1.
         23    2    1    2    0    0  0.22067571414E+03 -0.20148584082E+03 -0.14371598405E+03  0.34392355734E+03  0.91295204476E+02 0.  0.
         11    1    3    3    0    0  0.80182033640E+02 -0.13282250441E+03 -0.84858583158E+02  0.17683878345E+03  0.00000000000E+00 0. -1.
        -11    1    3    3    0    0  0.14049368050E+03 -0.68663336419E+02 -0.58857400893E+02  0.16708477390E+03  0.00000000000E+00 0.  1.
         22    1    1    2    0    0 -0.22067571414E+03  0.20148584082E+03  0.14076419130E+04  0.14390101008E+04  0.00000000000E+00 0. -1.
<mgrwt>
<rscale>  0 0.12575149E+04</rscale>
<asrwt>0</asrwt>
<pdfrwt beam="1">  1        2 0.23437381E+00 0.12575149E+04</pdfrwt>
<pdfrwt beam="2">  1       -2 0.39923672E-01 0.12575149E+04</pdfrwt>
<totfact> 0.71821527E+01</totfact>
</mgrwt>
</event>
<event>
 6    1  0.1885829E-005  0.3269583E+04  0.7818608E-02  0.8170678E-01
          2   -1    0    0  501    0  0.00000000000E+00  0.00000000000E+00  0.31912992693E+04  0.31912992693E+04  0.00000000000E+00 0. -1.
         -2   -1    0    0    0  501 -0.00000000000E+00 -0.00000000000E+00 -0.83744682213E+03  0.83744682213E+03  0.00000000000E+00 0.  1.
         23    2    1    2    0    0  0.94850590885E+03 -0.12600943589E+04  0.17014985556E+04  0.23219752069E+04  0.94711531978E+02 0.  0.
         11    1    3    3    0    0  0.72076830985E+03 -0.92814855749E+03  0.13209909119E+04  0.17680451608E+04  0.00000000000E+00 0. -1.
        -11    1    3    3    0    0  0.22773759899E+03 -0.33194580141E+03  0.38050764368E+03  0.55393004610E+03  0.00000000000E+00 0.  1.
         22    1    1    2    0    0 -0.94850590885E+03  0.12600943589E+04  0.65235389155E+03  0.17067708845E+04  0.00000000000E+00 0. -1.
<mgrwt>
<rscale>  0 0.32695831E+04</rscale>
<asrwt>0</asrwt>
<pdfrwt beam="1">  1        2 0.49096911E+00 0.32695831E+04</pdfrwt>
<pdfrwt beam="2">  1       -2 0.12883797E+00 0.32695831E+04</pdfrwt>
<totfact> 0.48825450E-01</totfact>
</mgrwt>
</event>
<event>
 6    1  0.1885829E-005  0.2532973E+04  0.7818608E-02  0.8391332E-01
          2   -1    0    0  501    0  0.00000000000E+00  0.00000000000E+00  0.17968352026E+04  0.17968352026E+04  0.00000000000E+00 0.  1.
         -2   -1    0    0    0  501 -0.00000000000E+00 -0.00000000000E+00 -0.89267419326E+03  0.89267419326E+03  0.00000000000E+00 0. -1.
         23    2    1    2    0    0 -0.73461736928E+03 -0.54526097433E+03  0.13800737312E+04  0.16582649397E+04  0.90922479658E+02 0.  0.
         11    1    3    3    0    0 -0.49587674957E+03 -0.35427088592E+03  0.99170314146E+03  0.11639917234E+04  0.00000000000E+00 0. -1.
        -11    1    3    3    0    0 -0.23874061971E+03 -0.19099008841E+03  0.38837058976E+03  0.49427321631E+03  0.00000000000E+00 0.  1.
         22    1    1    2    0    0  0.73461736928E+03  0.54526097433E+03 -0.47591272192E+03  0.10312444561E+04  0.00000000000E+00 0. -1.
<mgrwt>
<rscale>  0 0.25329733E+04</rscale>
<asrwt>0</asrwt>
<pdfrwt beam="1">  1        2 0.27643618E+00 0.25329733E+04</pdfrwt>
<pdfrwt beam="2">  1       -2 0.13733449E+00 0.25329733E+04</pdfrwt>
<totfact> 0.29095880E+00</totfact>
</mgrwt>
</event>
<event>
 6    1  0.1885829E-005  0.1306845E+04  0.7818608E-02  0.9024154E-01
         -2   -1    0    0    0  501 -0.00000000000E+00  0.00000000000E+00  0.26431910883E+03  0.26431910883E+03  0.00000000000E+00 0.  1.
          2   -1    0    0  501    0  0.00000000000E+00 -0.00000000000E+00 -0.16153244035E+04  0.16153244035E+04  0.00000000000E+00 0. -1.
         23    2    1    2    0    0  0.61023978806E+03 -0.88081791521E+02 -0.97582672517E+03  0.11579025893E+04  0.91376188854E+02 0.  0.
         11    1    3    3    0    0  0.21532312351E+03 -0.69911837524E+02 -0.31640208940E+03  0.38905268887E+03  0.00000000000E+00 0.  1.
        -11    1    3    3    0    0  0.39491666455E+03 -0.18169953998E+02 -0.65942463578E+03  0.76884990046E+03  0.00000000000E+00 0. -1.
         22    1    1    2    0    0 -0.61023978806E+03  0.88081791521E+02 -0.37517856951E+03  0.72174092301E+03  0.00000000000E+00 0.  1.
<mgrwt>
<rscale>  0 0.13068452E+04</rscale>
<asrwt>0</asrwt>
<pdfrwt beam="1">  1        2 0.24851145E+00 0.13068452E+04</pdfrwt>
<pdfrwt beam="2">  1       -2 0.40664479E-01 0.13068452E+04</pdfrwt>
<totfact> 0.61319700E+01</totfact>
</mgrwt>
</event>
<event>
 6    1  0.1885829E-005  0.2077517E+04  0.7818608E-02  0.8571212E-01
          2   -1    0    0  501    0  0.00000000000E+00  0.00000000000E+00  0.91970708603E+03  0.91970708603E+03  0.00000000000E+00 0. -1.
         -2   -1    0    0    0  501 -0.00000000000E+00 -0.00000000000E+00 -0.11732209051E+04  0.11732209051E+04  0.00000000000E+00 0.  1.
         23    2    1    2    0    0  0.13362439262E+03 -0.87439329080E+03 -0.67181857894E+03  0.11144608341E+04  0.90904578822E+02 0.  0.
         13    1    3    3    0    0  0.48128031470E+02 -0.53083858615E+03 -0.36538605743E+03  0.64622974470E+03  0.00000000000E+00 0.  1.
        -13    1    3    3    0    0  0.85496361150E+02 -0.34355470465E+03 -0.30643252151E+03  0.46823108942E+03  0.00000000000E+00 0. -1.
         22    1    1    2    0    0 -0.13362439262E+03  0.87439329080E+03  0.41830475985E+03  0.97846715705E+03  0.00000000000E+00 0. -1.
<mgrwt>
<rscale>  0 0.20775173E+04</rscale>
<asrwt>0</asrwt>
<pdfrwt beam="1">  1        2 0.14149340E+00 0.20775173E+04</pdfrwt>
<pdfrwt beam="2">  1       -2 0.18049552E+00 0.20775173E+04</pdfrwt>
<totfact> 0.47219212E+00</totfact>
</mgrwt>
</event>
<event>
 6    1  0.1885829E-005  0.1359408E+04  0.7818608E-02  0.8983737E-01
         -2   -1    0    0    0  501 -0.00000000000E+00  0.00000000000E+00  0.15681144794E+03  0.15681144794E+03  0.00000000000E+00 0.  1.
          2   -1    0    0  501    0  0.00000000000E+00 -0.00000000000E+00 -0.29461988204E+04  0.29461988204E+04  0.00000000000E+00 0. -1.
         23    2    1    2    0    0  0.45534963352E+03 -0.19321339022E+03 -0.34756229802E+03  0.61158810478E+03  0.92551369528E+02 0.  0.
         11    1    3    3    0    0  0.44529218730E+02  0.56366072997E+01 -0.16811297544E+02  0.47929556515E+02  0.00000000000E+00 0.  1.
        -11    1    3    3    0    0  0.41082041479E+03 -0.19884999752E+03 -0.33075100048E+03  0.56365854827E+03  0.00000000000E+00 0. -1.
         22    1    1    2    0    0 -0.45534963352E+03  0.19321339022E+03 -0.24418250745E+04  0.24914221636E+04  0.00000000000E+00 0. -1.
<mgrwt>
<rscale>  0 0.13594083E+04</rscale>
<asrwt>0</asrwt>
<pdfrwt beam="1">  1        2 0.45326136E+00 0.13594083E+04</pdfrwt>
<pdfrwt beam="2">  1       -2 0.24124838E-01 0.13594083E+04</pdfrwt>
<totfact> 0.28359796E+01</totfact>
</mgrwt>
</event>
<event>
 6    1  0.1885829E-005  0.3631045E+04  0.7818608E-02  0.8083417E-01
         -2   -1    0    0    0  501 -0.00000000000E+00  0.00000000000E+00  0.18736903214E+04  0.18736903214E+04  0.00000000000E+00 0.  1.
          2   -1    0    0  501    0  0.00000000000E+00 -0.00000000000E+00 -0.17591603257E+04  0.17591603257E+04  0.00000000000E+00 0. -1.
         23    2    1    2    0    0  0.11819081931E+04 -0.12815897757E+04  0.56048154864E+03  0.18333362355E+04  0.87194357316E+02 0.  0.
         11    1    3    3    0    0  0.10537613218E+04 -0.11028591014E+04  0.50071213931E+03  0.16054356940E+04  0.00000000000E+00 0.  1.
        -11    1    3    3    0    0  0.12814687124E+03 -0.17873067430E+03  0.59769409330E+02  0.22790054154E+03  0.00000000000E+00 0. -1.
         22    1    1    2    0    0 -0.11819081931E+04  0.12815897757E+04 -0.44595155296E+03  0.17995144116E+04  0.00000000000E+00 0. -1.
<mgrwt>
<rscale>  0 0.36310449E+04</rscale>
<asrwt>0</asrwt>
<pdfrwt beam="1">  1        2 0.27064005E+00 0.36310449E+04</pdfrwt>
<pdfrwt beam="2">  1       -2 0.28826005E+00 0.36310449E+04</pdfrwt>
<totfact> 0.27713358E-01</totfact>
</mgrwt>
</event>
<event>
 6    1  0.1885829E-005  0.9358259E+03  0.7818608E-02  0.9381873E-01
          2   -1    0    0  501    0  0.00000000000E+00  0.00000000000E+00  0.16685542616E+04  0.16685542616E+04  0.00000000000E+00 0. -1.
         -2   -1    0    0    0  501 -0.00000000000E+00 -0.00000000000E+00 -0.13121691373E+03  0.13121691373E+03  0.00000000000E+00 0.  1.
         23    2    1    2    0    0  0.26884544174E+03 -0.10397204664E+03  0.78490590844E+02  0.31271975775E+03  0.92438173995E+02 0.  0.
         13    1    3    3    0    0  0.12502748437E+03 -0.83860392831E+02  0.66251558232E+01  0.15069283335E+03  0.00000000000E+00 0.  1.
        -13    1    3    3    0    0  0.14381795736E+03 -0.20111653812E+02  0.71865435020E+02  0.16202692440E+03  0.00000000000E+00 0. -1.
         22    1    1    2    0    0 -0.26884544174E+03  0.10397204664E+03  0.14588467570E+04  0.14870514175E+04  0.00000000000E+00 0. -1.
<mgrwt>
<rscale>  0 0.93582593E+03</rscale>
<asrwt>0</asrwt>
<pdfrwt beam="1">  1        2 0.25670064E+00 0.93582593E+03</pdfrwt>
<pdfrwt beam="2">  1       -2 0.20187219E-01 0.93582593E+03</pdfrwt>
<totfact> 0.21519427E+02</totfact>
</mgrwt>
</event>
<event>
 6    1  0.1885829E-005  0.1209769E+04  0.7818608E-02  0.9104349E-01
         -2   -1    0    0    0  501 -0.00000000000E+00  0.00000000000E+00  0.16531772206E+03  0.16531772206E+03  0.00000000000E+00 0.  1.
          2   -1    0    0  501    0  0.00000000000E+00 -0.00000000000E+00 -0.22132237805E+04  0.22132237805E+04  0.00000000000E+00 0. -1.
         23    2    1    2    0    0 -0.30966542159E+03 -0.62744912237E+02 -0.20360430262E+04  0.20623606542E+04  0.89613983027E+02 0.  0.
         11    1    3    3    0    0 -0.25989301792E+03 -0.19751647637E+02 -0.15267319672E+04  0.15488205216E+04  0.00000000000E+00 0. -1.
        -11    1    3    3    0    0 -0.49772403669E+02 -0.42993264599E+02 -0.50931105899E+03  0.51354013259E+03  0.00000000000E+00 0.  1.
         22    1    1    2    0    0  0.30966542159E+03  0.62744912237E+02 -0.11863032212E+02  0.31618084837E+03  0.00000000000E+00 0.  1.
<mgrwt>
<rscale>  0 0.12097688E+04</rscale>
<asrwt>0</asrwt>
<pdfrwt beam="1">  1        2 0.34049595E+00 0.12097688E+04</pdfrwt>
<pdfrwt beam="2">  1       -2 0.25433497E-01 0.12097688E+04</pdfrwt>
<totfact> 0.69810043E+01</totfact>
</mgrwt>
</event>
<event>
 6    1  0.1885829E-005  0.1487237E+04  0.7818608E-02  0.8892985E-01
          2   -1    0    0  501    0  0.00000000000E+00  0.00000000000E+00  0.13672126354E+04  0.13672126354E+04  0.00000000000E+00 0. -1.
         -2   -1    0    0    0  501 -0.00000000000E+00 -0.00000000000E+00 -0.40444944463E+03  0.40444944463E+03  0.00000000000E+00 0.  1.
         23    2    1    2    0    0 -0.56890110690E+03  0.35466724845E+03  0.10803714134E+03  0.68538681744E+03  0.92982466371E+02 0.  0.
         13    1    3    3    0    0 -0.32098710136E+03  0.19653653505E+03  0.13897935833E+02  0.37663308600E+03  0.00000000000E+00 0.  1.
        -13    1    3    3    0    0 -0.24791400554E+03  0.15813071339E+03  0.94139205508E+02  0.30875373144E+03  0.00000000000E+00 0. -1.
         22    1    1    2    0    0  0.56890110690E+03 -0.35466724845E+03  0.85472604943E+03  0.10862752626E+04  0.00000000000E+00 0. -1.
<mgrwt>
<rscale>  0 0.14872369E+04</rscale>
<asrwt>0</asrwt>
<pdfrwt beam="1">  1        2 0.21034040E+00 0.14872369E+04</pdfrwt>
<pdfrwt beam="2">  1       -2 0.62222992E-01 0.14872369E+04</pdfrwt>
<totfact> 0.35033902E+01</totfact>
</mgrwt>
</event>
<event>
 6    1  0.1885829E-005  0.1073533E+04  0.7818608E-02  0.9231379E-01
          2   -1    0    0  501    0  0.00000000000E+00  0.00000000000E+00  0.17852001861E+04  0.17852001861E+04  0.00000000000E+00 0. -1.
         -2   -1    0    0    0  501 -0.00000000000E+00 -0.00000000000E+00 -0.16139284251E+03  0.16139284251E+03  0.00000000000E+00 0.  1.
         23    2    1    2    0    0 -0.25028718541E+03 -0.26489184682E+03  0.11410132617E+03  0.39352393011E+03  0.95029496714E+02 0.  0.
         13    1    3    3    0    0 -0.78370645502E+02 -0.59018782343E+02 -0.87808187185E+01  0.98500139710E+02  0.00000000000E+00 0. -1.
        -13    1    3    3    0    0 -0.17191653990E+03 -0.20587306448E+03  0.12288214488E+03  0.29502379040E+03  0.00000000000E+00 0.  1.
         22    1    1    2    0    0  0.25028718541E+03  0.26489184682E+03  0.15097060174E+04  0.15530690985E+04  0.00000000000E+00 0. -1.
<mgrwt>
<rscale>  0 0.10735335E+04</rscale>
<asrwt>0</asrwt>
<pdfrwt beam="1">  1        2 0.27464617E+00 0.10735335E+04</pdfrwt>
<pdfrwt beam="2">  1       -2 0.24829669E-01 0.10735335E+04</pdfrwt>
<totfact> 0.12708842E+02</totfact>
</mgrwt>
</event>
<event>
 6    1  0.1885829E-005  0.3030028E+04  0.7818608E-02  0.8235208E-01
          2   -1    0    0  501    0  0.00000000000E+00  0.00000000000E+00  0.30091054944E+04  0.30091054944E+04  0.00000000000E+00 0. -1.
         -2   -1    0    0    0  501 -0.00000000000E+00 -0.00000000000E+00 -0.76277396050E+03  0.76277396050E+03  0.00000000000E+00 0.  1.
         23    2    1    2    0    0 -0.24819228765E+03 -0.13975535534E+04  0.17782519831E+04  0.22772712079E+04  0.95019432397E+02 0.  0.
         11    1    3    3    0    0 -0.81337503901E+02 -0.31147153794E+03  0.35547285766E+03  0.47957404123E+03  0.00000000000E+00 0.  1.
        -11    1    3    3    0    0 -0.16685478375E+03 -0.10860820154E+04  0.14227791255E+04  0.17976971666E+04  0.00000000000E+00 0. -1.
         22    1    1    2    0    0  0.24819228765E+03  0.13975535534E+04  0.46807955074E+03  0.14946082470E+04  0.00000000000E+00 0.  1.
<mgrwt>
<rscale>  0 0.30300279E+04</rscale>
<asrwt>0</asrwt>
<pdfrwt beam="1">  1        2 0.46293930E+00 0.30300279E+04</pdfrwt>
<pdfrwt beam="2">  1       -2 0.11734984E+00 0.30300279E+04</pdfrwt>
<totfact> 0.82289241E-01</totfact>
</mgrwt>
</event>
<event>
 6    1  0.1885829E-005  0.9314800E+03  0.7818608E-02  0.9387063E-01
         -2   -1    0    0    0  501 -0.00000000000E+00  0.00000000000E+00  0.37626101689E+03  0.37626101689E+03  0.00000000000E+00 0.  1.
          2   -1    0    0  501    0  0.00000000000E+00 -0.00000000000E+00 -0.57649812059E+03  0.57649812059E+03  0.00000000000E+00 0. -1.
         23    2    1    2    0    0 -0.32194521169E+03 -0.19933689680E+03  0.16908504015E+03  0.42381418411E+03  0.87434513170E+02 0.  0.
         11    1    3    3    0    0 -0.26928494950E+03 -0.18998512274E+03  0.16892422092E+03  0.37032974942E+03  0.00000000000E+00 0. -1.
        -11    1    3    3    0    0 -0.52660262184E+02 -0.93517740647E+01  0.16081923432E+00  0.53484434692E+02  0.00000000000E+00 0.  1.
         22    1    1    2    0    0  0.32194521169E+03  0.19933689680E+03 -0.36932214385E+03  0.52894495337E+03  0.00000000000E+00 0.  1.
<mgrwt>
<rscale>  0 0.93148005E+03</rscale>
<asrwt>0</asrwt>
<pdfrwt beam="1">  1        2 0.88692019E-01 0.93148005E+03</pdfrwt>
<pdfrwt beam="2">  1       -2 0.57886310E-01 0.93148005E+03</pdfrwt>
<totfact> 0.14572886E+02</totfact>
</mgrwt>
</event>
<event>
 6    1  0.1885829E-005  0.9778232E+03  0.7818608E-02  0.9333208E-01
          2   -1    0    0  501    0  0.00000000000E+00  0.00000000000E+00  0.47070675437E+03  0.47070675437E+03  0.00000000000E+00 0. -1.
         -2   -1    0    0    0  501 -0.00000000000E+00 -0.00000000000E+00 -0.50782056438E+03  0.50782056438E+03  0.00000000000E+00 0.  1.
         23    2    1    2    0    0 -0.33127390551E+03  0.19281812610E+02  0.33471181824E+03  0.48016150271E+03  0.91699938085E+02 0.  0.
         13    1    3    3    0    0 -0.16208350178E+03  0.25620972273E+02  0.10506526227E+03  0.19484918554E+03  0.00000000000E+00 0. -1.
        -13    1    3    3    0    0 -0.16919040373E+03 -0.63391596632E+01  0.22964655597E+03  0.28531231717E+03  0.00000000000E+00 0.  1.
         22    1    1    2    0    0  0.33127390551E+03 -0.19281812610E+02 -0.37182562825E+03  0.49836581604E+03  0.00000000000E+00 0.  1.
<mgrwt>
<rscale>  0 0.97782323E+03</rscale>
<asrwt>0</asrwt>
<pdfrwt beam="1">  1        2 0.72416424E-01 0.97782323E+03</pdfrwt>
<pdfrwt beam="2">  1       -2 0.78126241E-01 0.97782323E+03</pdfrwt>
<totfact> 0.96309722E+01</totfact>
</mgrwt>
</event>
<event>
 6    1  0.1885829E-005  0.2097730E+04  0.7818608E-02  0.8562244E-01
         -1   -1    0    0    0  501 -0.00000000000E+00  0.00000000000E+00  0.11767684906E+04  0.11767684906E+04  0.00000000000E+00 0.  1.
          1   -1    0    0  501    0  0.00000000000E+00 -0.00000000000E+00 -0.93486296396E+03  0.93486296396E+03  0.00000000000E+00 0. -1.
         23    2    1    2    0    0  0.39710204724E+03 -0.75445382629E+03 -0.49012223017E+03  0.98790762341E+03  0.94080072032E+02 0.  0.
         11    1    3    3    0    0  0.25204665253E+03 -0.44520473354E+03 -0.24344001057E+03  0.56656668501E+03  0.00000000000E+00 0.  1.
        -11    1    3    3    0    0  0.14505539471E+03 -0.30924909276E+03 -0.24668221961E+03  0.42134093841E+03  0.00000000000E+00 0. -1.
         22    1    1    2    0    0 -0.39710204724E+03  0.75445382629E+03  0.73202775680E+03  0.11237238311E+04  0.00000000000E+00 0.  1.
<mgrwt>
<rscale>  0 0.20977295E+04</rscale>
<asrwt>0</asrwt>
<pdfrwt beam="1">  1        1 0.14382507E+00 0.20977295E+04</pdfrwt>
<pdfrwt beam="2">  1       -1 0.18104130E+00 0.20977295E+04</pdfrwt>
<totfact> 0.32073385E+00</totfact>
</mgrwt>
</event>
<event>
 6    1  0.1885829E-005  0.4186981E+03  0.7818608E-02  0.1037491E+00
          2   -1    0    0  501    0  0.00000000000E+00  0.00000000000E+00  0.21677090990E+04  0.21677090990E+04  0.00000000000E+00 0. -1.
         -2   -1    0    0    0  501 -0.00000000000E+00 -0.00000000000E+00 -0.20218125615E+02  0.20218125615E+02  0.00000000000E+00 0.  1.
         23    2    1    2    0    0 -0.80749822580E+02  0.17500570106E+03  0.13836154362E+04  0.14001116589E+04  0.93666711748E+02 0.  0.
         13    1    3    3    0    0 -0.98388837189E+02  0.11852432181E+03  0.10594746256E+04  0.10706142445E+04  0.00000000000E+00 0. -1.
        -13    1    3    3    0    0  0.17639014609E+02  0.56481379245E+02  0.32414081056E+03  0.32949741442E+03  0.00000000000E+00 0.  1.
         22    1    1    2    0    0  0.80749822580E+02 -0.17500570106E+03  0.76387553717E+03  0.78781556568E+03  0.00000000000E+00 0.  1.
<mgrwt>
<rscale>  0 0.41869805E+03</rscale>
<asrwt>0</asrwt>
<pdfrwt beam="1">  1        2 0.33349352E+00 0.41869805E+03</pdfrwt>
<pdfrwt beam="2">  1       -2 0.31104826E-02 0.41869805E+03</pdfrwt>
<totfact> 0.24092991E+03</totfact>
</mgrwt>
</event>
<event>
 6    1  0.1885829E-005  0.3008518E+04  0.7818608E-02  0.8241303E-01
         -2   -1    0    0    0  501 -0.00000000000E+00  0.00000000000E+00  0.15261827034E+04  0.15261827034E+04  0.00000000000E+00 0. -1.
          2   -1    0    0  501    0  0.00000000000E+00 -0.00000000000E+00 -0.14826506368E+04  0.14826506368E+04  0.00000000000E+00 0.  1.
         23    2    1    2    0    0  0.66663925059E+03  0.21514843447E+03  0.13515758743E+04  0.15250289926E+04  0.90880939649E+02 0.  0.
         13    1    3    3    0    0  0.33704984981E+03  0.13423122791E+03  0.78099915936E+03  0.86115057379E+03  0.00000000000E+00 0. -1.
        -13    1    3    3    0    0  0.32958940078E+03  0.80917206558E+02  0.57057671491E+03  0.66387841885E+03  0.00000000000E+00 0.  1.
         22    1    1    2    0    0 -0.66663925059E+03 -0.21514843447E+03 -0.13080438077E+04  0.14838043476E+04  0.00000000000E+00 0.  1.
<mgrwt>
<rscale>  0 0.30085184E+04</rscale>
<asrwt>0</asrwt>
<pdfrwt beam="1">  1        2 0.22810010E+00 0.30085184E+04</pdfrwt>
<pdfrwt beam="2">  1       -2 0.23479734E+00 0.30085184E+04</pdfrwt>
<totfact> 0.88634551E-01</totfact>
</mgrwt>
</event>
<event>
 6    1  0.4071344E-005  0.3603276E+04  0.7818608E-02  0.8089742E-01
          2   -1    0    0  501    0  0.00000000000E+00  0.00000000000E+00  0.30799131634E+04  0.30799131634E+04  0.00000000000E+00 0. -1.
         -2   -1    0    0    0  501 -0.00000000000E+00 -0.00000000000E+00 -0.10538932956E+04  0.10538932956E+04  0.00000000000E+00 0.  1.
         23    2    1    2    0    0  0.11925308437E+04 -0.92817168717E+03 -0.10927930259E+03  0.15178678050E+04  0.91368558467E+02 0.  0.
         11    1    3    3    0    0  0.71469094087E+03 -0.57246785640E+03 -0.10906128140E+03  0.92216969733E+03  0.00000000000E+00 0.  1.
        -11    1    3    3    0    0  0.47783990288E+03 -0.35570383077E+03 -0.21802118681E+00  0.59569810772E+03  0.00000000000E+00 0. -1.
         22    1    1    2    0    0 -0.11925308437E+04  0.92817168717E+03  0.21352991704E+04  0.26159386539E+04  0.00000000000E+00 0. -1.
<mgrwt>
<rscale>  0 0.36032762E+04</rscale>
<asrwt>0</asrwt>
<pdfrwt beam="1">  1        2 0.47383279E+00 0.36032762E+04</pdfrwt>
<pdfrwt beam="2">  1       -2 0.16213743E+00 0.36032762E+04</pdfrwt>
<totfact> 0.30653723E-01</totfact>
</mgrwt>
</event>
<event>
 6    1  0.2001699E-005  0.1958380E+04  0.7818608E-02  0.8626331E-01
          1   -1    0    0  501    0  0.00000000000E+00  0.00000000000E+00  0.10847347952E+04  0.10847347952E+04  0.00000000000E+00 0. -1.
         -1   -1    0    0    0  501 -0.00000000000E+00 -0.00000000000E+00 -0.88391442606E+03  0.88391442606E+03  0.00000000000E+00 0.  1.
         23    2    1    2    0    0  0.19138141965E+03  0.54013872243E+03  0.89634397747E+03  0.10674667886E+04  0.87613535432E+02 0.  0.
         13    1    3    3    0    0  0.10267084024E+03  0.36887466118E+03  0.65268837470E+03  0.75671126037E+03  0.00000000000E+00 0.  1.
        -13    1    3    3    0    0  0.88710579411E+02  0.17126406126E+03  0.24365560277E+03  0.31075552825E+03  0.00000000000E+00 0. -1.
         22    1    1    2    0    0 -0.19138141965E+03 -0.54013872243E+03 -0.69552360830E+03  0.90118243268E+03  0.00000000000E+00 0. -1.
<mgrwt>
<rscale>  0 0.19583797E+04</rscale>
<asrwt>0</asrwt>
<pdfrwt beam="1">  1        1 0.16688228E+00 0.19583797E+04</pdfrwt>
<pdfrwt beam="2">  1       -1 0.13598684E+00 0.19583797E+04</pdfrwt>
<totfact> 0.54806082E+00</totfact>
</mgrwt>
</event>
<event>
 6    1  0.1885829E-005  0.1710336E+04  0.7818608E-02  0.8755491E-01
          2   -1    0    0  501    0  0.00000000000E+00  0.00000000000E+00  0.26212515185E+04  0.26212515185E+04  0.00000000000E+00 0. -1.
         -2   -1    0    0    0  501 -0.00000000000E+00 -0.00000000000E+00 -0.27899355116E+03  0.27899355116E+03  0.00000000000E+00 0.  1.
         23    2    1    2    0    0  0.66028909331E+03  0.34746291393E+03  0.18745357567E+04  0.20196337878E+04  0.91236892209E+02 0.  0.
         13    1    3    3    0    0  0.36500895856E+03  0.19046369305E+03  0.91107018513E+03  0.99977839566E+03  0.00000000000E+00 0.  1.
        -13    1    3    3    0    0  0.29528013475E+03  0.15699922087E+03  0.96346557159E+03  0.10198553922E+04  0.00000000000E+00 0. -1.
         22    1    1    2    0    0 -0.66028909331E+03 -0.34746291393E+03  0.46772221058E+03  0.88061128176E+03  0.00000000000E+00 0.  1.
<mgrwt>
<rscale>  0 0.17103360E+04</rscale>
<asrwt>0</asrwt>
<pdfrwt beam="1">  1        2 0.40326945E+00 0.17103360E+04</pdfrwt>
<pdfrwt beam="2">  1       -2 0.42922087E-01 0.17103360E+04</pdfrwt>
<totfact> 0.14499256E+01</totfact>
</mgrwt>
</event>
<event>
 6    1  0.1885829E-005  0.3207408E+04  0.7818608E-02  0.8186863E-01
          2   -1    0    0  501    0  0.00000000000E+00  0.00000000000E+00  0.27270966755E+04  0.27270966755E+04  0.00000000000E+00 0. -1.
         -2   -1    0    0    0  501 -0.00000000000E+00 -0.00000000000E+00 -0.94307864298E+03  0.94307864298E+03  0.00000000000E+00 0.  1.
         23    2    1    2    0    0  0.13435099687E+02  0.29358980480E+03  0.26952222078E+04  0.27127472405E+04  0.91648054328E+02 0.  0.
         13    1    3    3    0    0  0.33967017982E+02  0.16279344124E+03  0.11652235169E+04  0.11770307164E+04  0.00000000000E+00 0. -1.
        -13    1    3    3    0    0 -0.20531918295E+02  0.13079636356E+03  0.15299986909E+04  0.15357165241E+04  0.00000000000E+00 0.  1.
         22    1    1    2    0    0 -0.13435099687E+02 -0.29358980480E+03 -0.91120417532E+03  0.95742807798E+03  0.00000000000E+00 0.  1.
<mgrwt>
<rscale>  0 0.32074081E+04</rscale>
<asrwt>0</asrwt>
<pdfrwt beam="1">  1        2 0.41955333E+00 0.32074081E+04</pdfrwt>
<pdfrwt beam="2">  1       -2 0.14508902E+00 0.32074081E+04</pdfrwt>
<totfact> 0.70405664E-01</totfact>
</mgrwt>
</event>
<event>
 6    1  0.1885829E-005  0.4200922E+04  0.7818608E-02  0.7965197E-01
          2   -1    0    0  501    0  0.00000000000E+00  0.00000000000E+00  0.23006070896E+04  0.23006070896E+04  0.00000000000E+00 0. -1.
         -2   -1    0    0    0  501 -0.00000000000E+00 -0.00000000000E+00 -0.19177274770E+04  0.19177274770E+04  0.00000000000E+00 0.  1.
         23    2    1    2    0    0 -0.47394316729E+03 -0.37064567165E+03  0.22112813690E+04  0.22934830600E+04  0.91098373810E+02 0.  0.
         13    1    3    3    0    0 -0.23590194336E+03 -0.21617236617E+03  0.13141311554E+04  0.13525239046E+04  0.00000000000E+00 0. -1.
        -13    1    3    3    0    0 -0.23804122393E+03 -0.15447330548E+03  0.89715021357E+03  0.94095915539E+03  0.00000000000E+00 0.  1.
         22    1    1    2    0    0  0.47394316729E+03  0.37064567165E+03 -0.18284017565E+04  0.19248515067E+04  0.00000000000E+00 0.  1.
<mgrwt>
<rscale>  0 0.42009225E+04</rscale>
<asrwt>0</asrwt>
<pdfrwt beam="1">  1        2 0.35393955E+00 0.42009225E+04</pdfrwt>
<pdfrwt beam="2">  1       -2 0.29503500E+00 0.42009225E+04</pdfrwt>
<totfact> 0.11986123E-01</totfact>
</mgrwt>
</event>
<event>
 6    1  0.1885829E-005  0.9997857E+03  0.7818608E-02  0.9308780E-01
         -2   -1    0    0    0  501 -0.00000000000E+00  0.00000000000E+00  0.14679731459E+03  0.14679731459E+03  0.00000000000E+00 0.  1.
          2   -1    0    0  501    0  0.00000000000E+00 -0.00000000000E+00 -0.17022984343E+04  0.17022984343E+04  0.00000000000E+00 0. -1.
         23    2    1    2    0    0 -0.49251184591E+03  0.55655408883E+02 -0.80354775635E+03  0.94848523176E+03  0.90938414478E+02 0.  0.
         11    1    3    3    0    0 -0.45042401488E+03  0.71379624070E+02 -0.75724949398E+03  0.88397038414E+03  0.00000000000E+00 0. -1.
        -11    1    3    3    0    0 -0.42087831027E+02 -0.15724215187E+02 -0.46298262372E+02  0.64514847613E+02  0.00000000000E+00 0.  1.
         22    1    1    2    0    0  0.49251184591E+03 -0.55655408883E+02 -0.75195336335E+03  0.90061051712E+03  0.00000000000E+00 0.  1.
<mgrwt>
<rscale>  0 0.99978565E+03</rscale>
<asrwt>0</asrwt>
<pdfrwt beam="1">  1        2 0.26189205E+00 0.99978565E+03</pdfrwt>
<pdfrwt beam="2">  1       -2 0.22584203E-01 0.99978565E+03</pdfrwt>
<totfact> 0.16828288E+02</totfact>
</mgrwt>
</event>
<event>
 6    1  0.1885829E-005  0.1808075E+04  0.7818608E-02  0.8702017E-01
          2   -1    0    0  501    0  0.00000000000E+00  0.00000000000E+00  0.18785350886E+04  0.18785350886E+04  0.00000000000E+00 0. -1.
         -2   -1    0    0    0  501 -0.00000000000E+00 -0.00000000000E+00 -0.43506453827E+03  0.43506453827E+03  0.00000000000E+00 0.  1.
         23    2    1    2    0    0 -0.75659178695E+03 -0.29870515919E+03  0.12216594773E+04  0.14704768266E+04  0.90522455600E+02 0.  0.
         13    1    3    3    0    0 -0.12018345856E+03 -0.79005846364E+02  0.24859052580E+03  0.28719895019E+03  0.00000000000E+00 0. -1.
        -13    1    3    3    0    0 -0.63640832840E+03 -0.21969931282E+03  0.97306895145E+03  0.11832778764E+04  0.00000000000E+00 0.  1.
         22    1    1    2    0    0  0.75659178695E+03  0.29870515919E+03  0.22181107308E+03  0.84312280028E+03  0.00000000000E+00 0.  1.
<mgrwt>
<rscale>  0 0.18080752E+04</rscale>
<asrwt>0</asrwt>
<pdfrwt beam="1">  1        2 0.28900539E+00 0.18080752E+04</pdfrwt>
<pdfrwt beam="2">  1       -2 0.66933007E-01 0.18080752E+04</pdfrwt>
<totfact> 0.15088469E+01</totfact>
</mgrwt>
</event>
<event>
 6    1  0.1885829E-005  0.1869571E+04  0.7818608E-02  0.8670153E-01
         -1   -1    0    0    0  501 -0.00000000000E+00  0.00000000000E+00  0.57834009348E+03  0.57834009348E+03  0.00000000000E+00 0.  1.
          1   -1    0    0  501    0  0.00000000000E+00 -0.00000000000E+00 -0.15109171389E+04  0.15109171389E+04  0.00000000000E+00 0. -1.
         23    2    1    2    0    0 -0.71063938680E+03 -0.45823423130E+03 -0.27720889595E+02  0.85080997408E+03  0.90123334806E+02 0.  0.
         11    1    3    3    0    0 -0.49733147827E+03 -0.27430728065E+03 -0.18207351232E+01  0.56796689919E+03  0.00000000000E+00 0.  1.
        -11    1    3    3    0    0 -0.21330790853E+03 -0.18392695064E+03 -0.25900154471E+02  0.28284307490E+03  0.00000000000E+00 0. -1.
         22    1    1    2    0    0  0.71063938680E+03  0.45823423130E+03 -0.90485615578E+03  0.12384472582E+04  0.00000000000E+00 0.  1.
<mgrwt>
<rscale>  0 0.18695710E+04</rscale>
<asrwt>0</asrwt>
<pdfrwt beam="1">  1        1 0.23244879E+00 0.18695710E+04</pdfrwt>
<pdfrwt beam="2">  1       -1 0.88975400E-01 0.18695710E+04</pdfrwt>
<totfact> 0.74702316E+00</totfact>
</mgrwt>
</event>
<event>
 6    1  0.1885829E-005  0.1772861E+04  0.7818608E-02  0.8720866E-01
          2   -1    0    0  501    0  0.00000000000E+00  0.00000000000E+00  0.31210149510E+04  0.31210149510E+04  0.00000000000E+00 0.  1.
         -2   -1    0    0    0  501 -0.00000000000E+00 -0.00000000000E+00 -0.25176406107E+03  0.25176406107E+03  0.00000000000E+00 0. -1.
         23    2    1    2    0    0 -0.11940604829E+02 -0.88163838109E+03  0.15591546248E+04  0.17936080153E+04  0.92939526070E+02 0.  0.
         11    1    3    3    0    0  0.25919375574E+02 -0.62653765305E+03  0.11530943501E+04  0.13125729789E+04  0.00000000000E+00 0. -1.
        -11    1    3    3    0    0 -0.37859980403E+02 -0.25510072805E+03  0.40606027471E+03  0.48103503642E+03  0.00000000000E+00 0.  1.
         22    1    1    2    0    0  0.11940604829E+02  0.88163838109E+03  0.13100962651E+04  0.15791709968E+04  0.00000000000E+00 0.  1.
<mgrwt>
<rscale>  0 0.17728614E+04</rscale>
<asrwt>0</asrwt>
<pdfrwt beam="1">  1        2 0.48015612E+00 0.17728614E+04</pdfrwt>
<pdfrwt beam="2">  1       -2 0.38732935E-01 0.17728614E+04</pdfrwt>
<totfact> 0.87374886E+00</totfact>
</mgrwt>
</event>
<event>
 6    1  0.1885829E-005  0.2206395E+04  0.7818608E-02  0.8515771E-01
         -1   -1    0    0    0  501 -0.00000000000E+00  0.00000000000E+00  0.12271415169E+04  0.12271415169E+04  0.00000000000E+00 0.  1.
          1   -1    0    0  501    0  0.00000000000E+00 -0.00000000000E+00 -0.99177167980E+03  0.99177167980E+03  0.00000000000E+00 0. -1.
         23    2    1    2    0    0  0.74100524004E+03 -0.81151058267E+03  0.18936102583E+03  0.11190245649E+04  0.93381942784E+02 0.  0.
         13    1    3    3    0    0  0.59997738060E+03 -0.69250993642E+03  0.13159379187E+03  0.92566721630E+03  0.00000000000E+00 0.  1.
        -13    1    3    3    0    0  0.14102785944E+03 -0.11900064625E+03  0.57767233962E+02  0.19335734863E+03  0.00000000000E+00 0. -1.
         22    1    1    2    0    0 -0.74100524004E+03  0.81151058267E+03  0.46008811259E+02  0.10998886318E+04  0.00000000000E+00 0. -1.
<mgrwt>
<rscale>  0 0.22063945E+04</rscale>
<asrwt>0</asrwt>
<pdfrwt beam="1">  1        1 0.15258026E+00 0.22063945E+04</pdfrwt>
<pdfrwt beam="2">  1       -1 0.18879100E+00 0.22063945E+04</pdfrwt>
<totfact> 0.25216075E+00</totfact>
</mgrwt>
</event>
<event>
 6    1  0.1885829E-005  0.3733438E+04  0.7818608E-02  0.8060592E-01
         -2   -1    0    0    0  501 -0.00000000000E+00  0.00000000000E+00  0.29176819889E+04  0.29176819889E+04  0.00000000000E+00 0.  1.
          2   -1    0    0  501    0  0.00000000000E+00 -0.00000000000E+00 -0.11943175806E+04  0.11943175806E+04  0.00000000000E+00 0. -1.
         23    2    1    2    0    0 -0.58461313712E+03 -0.60979161024E+03 -0.96984490346E+03  0.12894130385E+04  0.91479610717E+02 0.  0.
         13    1    3    3    0    0 -0.16128378436E+03 -0.13699230518E+03 -0.19406197373E+03  0.28712262263E+03  0.00000000000E+00 0.  1.
        -13    1    3    3    0    0 -0.42332935277E+03 -0.47279930506E+03 -0.77578292973E+03  0.10022904159E+04  0.00000000000E+00 0. -1.
         22    1    1    2    0    0  0.58461313712E+03  0.60979161024E+03  0.26932093118E+04  0.28225865310E+04  0.00000000000E+00 0.  1.
<mgrwt>
<rscale>  0 0.37334375E+04</rscale>
<asrwt>0</asrwt>
<pdfrwt beam="1">  1        2 0.18374117E+00 0.37334375E+04</pdfrwt>
<pdfrwt beam="2">  1       -2 0.44887415E+00 0.37334375E+04</pdfrwt>
<totfact> 0.54305909E-02</totfact>
</mgrwt>
</event>
<event>
 6    1  0.1885829E-005  0.6837486E+03  0.7818608E-02  0.9745435E-01
         -2   -1    0    0    0  501 -0.00000000000E+00  0.00000000000E+00  0.13375448037E+03  0.13375448037E+03  0.00000000000E+00 0.  1.
          2   -1    0    0  501    0  0.00000000000E+00 -0.00000000000E+00 -0.87382529184E+03  0.87382529184E+03  0.00000000000E+00 0. -1.
         23    2    1    2    0    0 -0.12452951969E+03 -0.23834443644E+03 -0.67305650379E+03  0.73043975510E+03  0.90672525510E+02 0.  0.
         13    1    3    3    0    0  0.33816944842E+01 -0.73830933475E+02 -0.21084640834E+03  0.22342482070E+03  0.00000000000E+00 0. -1.
        -13    1    3    3    0    0 -0.12791121417E+03 -0.16451350296E+03 -0.46221009545E+03  0.50701493440E+03  0.00000000000E+00 0.  1.
         22    1    1    2    0    0  0.12452951969E+03  0.23834443644E+03 -0.67014307676E+02  0.27714001712E+03  0.00000000000E+00 0.  1.
<mgrwt>
<rscale>  0 0.68374863E+03</rscale>
<asrwt>0</asrwt>
<pdfrwt beam="1">  1        2 0.13443466E+00 0.68374863E+03</pdfrwt>
<pdfrwt beam="2">  1       -2 0.20577612E-01 0.68374863E+03</pdfrwt>
<totfact> 0.62403545E+02</totfact>
</mgrwt>
</event>
<event>
 6    1  0.1885829E-005  0.2427862E+04  0.7818608E-02  0.8429146E-01
         -2   -1    0    0    0  501 -0.00000000000E+00  0.00000000000E+00  0.78284856055E+03  0.78284856055E+03  0.00000000000E+00 0.  1.
          2   -1    0    0  501    0  0.00000000000E+00 -0.00000000000E+00 -0.18823925360E+04  0.18823925360E+04  0.00000000000E+00 0. -1.
         23    2    1    2    0    0  0.99746279329E+02  0.78062135041E+03  0.46165193214E+03  0.91691284508E+03  0.91036509547E+02 0.  0.
         13    1    3    3    0    0  0.10609157352E+03  0.48899864944E+03  0.28302317727E+03  0.57487148129E+03  0.00000000000E+00 0.  1.
        -13    1    3    3    0    0 -0.63452941891E+01  0.29162270097E+03  0.17862875487E+03  0.34204136379E+03  0.00000000000E+00 0. -1.
         22    1    1    2    0    0 -0.99746279329E+02 -0.78062135041E+03 -0.15611959076E+04  0.17483282514E+04  0.00000000000E+00 0. -1.
<mgrwt>
<rscale>  0 0.24278618E+04</rscale>
<asrwt>0</asrwt>
<pdfrwt beam="1">  1        2 0.28959885E+00 0.24278618E+04</pdfrwt>
<pdfrwt beam="2">  1       -2 0.12043824E+00 0.24278618E+04</pdfrwt>
<totfact> 0.36666722E+00</totfact>
</mgrwt>
</event>
<event>
 6    1  0.1885829E-005  0.6449588E+03  0.7818608E-02  0.9816285E-01
          2   -1    0    0  501    0  0.00000000000E+00  0.00000000000E+00  0.87386007168E+03  0.87386007168E+03  0.00000000000E+00 0. -1.
         -2   -1    0    0    0  501 -0.00000000000E+00 -0.00000000000E+00 -0.11900412775E+03  0.11900412775E+03  0.00000000000E+00 0.  1.
         23    2    1    2    0    0  0.13110597445E+03 -0.16017379274E+03  0.17358458933E+02  0.22687009972E+03  0.91237632768E+02 0.  0.
         11    1    3    3    0    0  0.12854658415E+03 -0.92244627325E+02  0.13046026359E+02  0.15875608452E+03  0.00000000000E+00 0. -1.
        -11    1    3    3    0    0  0.25593903003E+01 -0.67929165411E+02  0.43124325741E+01  0.68114015202E+02  0.00000000000E+00 0.  1.
         22    1    1    2    0    0 -0.13110597445E+03  0.16017379274E+03  0.73749748500E+03  0.76599409971E+03  0.00000000000E+00 0. -1.
<mgrwt>
<rscale>  0 0.64495878E+03</rscale>
<asrwt>0</asrwt>
<pdfrwt beam="1">  1        2 0.13444001E+00 0.64495878E+03</pdfrwt>
<pdfrwt beam="2">  1       -2 0.18308328E-01 0.64495878E+03</pdfrwt>
<totfact> 0.76557271E+02</totfact>
</mgrwt>
</event>
<event>
 6    1  0.1885829E-005  0.2114594E+04  0.7818608E-02  0.8554842E-01
          2   -1    0    0  501    0  0.00000000000E+00  0.00000000000E+00  0.82811795680E+03  0.82811795680E+03  0.00000000000E+00 0. -1.
         -2   -1    0    0    0  501 -0.00000000000E+00 -0.00000000000E+00 -0.13499010984E+04  0.13499010984E+04  0.00000000000E+00 0.  1.
         23    2    1    2    0    0  0.20938051857E+03 -0.73214852395E+03 -0.10139113461E+04  0.12713372850E+04  0.91654850460E+02 0.  0.
         11    1    3    3    0    0  0.70441871168E+02 -0.32716788780E+03 -0.51127648194E+03  0.61106834725E+03  0.00000000000E+00 0.  1.
        -11    1    3    3    0    0  0.13893864740E+03 -0.40498063614E+03 -0.50263486420E+03  0.66026893771E+03  0.00000000000E+00 0. -1.
         22    1    1    2    0    0 -0.20938051857E+03  0.73214852395E+03  0.49212820458E+03  0.90668177020E+03  0.00000000000E+00 0. -1.
<mgrwt>
<rscale>  0 0.21145944E+04</rscale>
<asrwt>0</asrwt>
<pdfrwt beam="1">  1        2 0.12740276E+00 0.21145944E+04</pdfrwt>
<pdfrwt beam="2">  1       -2 0.20767709E+00 0.21145944E+04</pdfrwt>
<totfact> 0.35861589E+00</totfact>
</mgrwt>
</event>
<event>
 6    1  0.1885829E-005  0.1585099E+04  0.7818608E-02  0.8829755E-01
         -2   -1    0    0    0  501 -0.00000000000E+00  0.00000000000E+00  0.28845380619E+03  0.28845380619E+03  0.00000000000E+00 0.  1.
          2   -1    0    0  501    0  0.00000000000E+00 -0.00000000000E+00 -0.21775924939E+04  0.21775924939E+04  0.00000000000E+00 0. -1.
         23    2    1    2    0    0  0.30282225790E+03 -0.30928515374E+03 -0.19755974309E+04  0.20246465488E+04  0.94073440764E+02 0.  0.
         13    1    3    3    0    0  0.11900505323E+03 -0.99919211065E+02 -0.91311035863E+03  0.92623786279E+03  0.00000000000E+00 0. -1.
        -13    1    3    3    0    0  0.18381720467E+03 -0.20936594268E+03 -0.10624870723E+04  0.10984086860E+04  0.00000000000E+00 0.  1.
         22    1    1    2    0    0 -0.30282225790E+03  0.30928515374E+03  0.86458743171E+02  0.44139975133E+03  0.00000000000E+00 0.  1.
<mgrwt>
<rscale>  0 0.15850992E+04</rscale>
<asrwt>0</asrwt>
<pdfrwt beam="1">  1        2 0.33501422E+00 0.15850992E+04</pdfrwt>
<pdfrwt beam="2">  1       -2 0.44377510E-01 0.15850992E+04</pdfrwt>
<totfact> 0.24593287E+01</totfact>
</mgrwt>
</event>
<event>
 6    1  0.1885829E-005  0.1273622E+04  0.7818608E-02  0.9050749E-01
         -1   -1    0    0    0  501 -0.00000000000E+00  0.00000000000E+00  0.23802690478E+03  0.23802690478E+03  0.00000000000E+00 0.  1.
          1   -1    0    0  501    0  0.00000000000E+00 -0.00000000000E+00 -0.17037077843E+04  0.17037077843E+04  0.00000000000E+00 0. -1.
         23    2    1    2    0    0 -0.31282443676E+03 -0.54745609416E+03 -0.63965643793E+03  0.90256016987E+03  0.88809900284E+02 0.  0.
         13    1    3    3    0    0 -0.17994364384E+03 -0.39339616448E+03 -0.41497052080E+03  0.59945040689E+03  0.00000000000E+00 0. -1.
        -13    1    3    3    0    0 -0.13288079292E+03 -0.15405992969E+03 -0.22468591713E+03  0.30310976299E+03  0.00000000000E+00 0.  1.
         22    1    1    2    0    0  0.31282443676E+03  0.54745609416E+03 -0.82602444163E+03  0.10391745192E+04  0.00000000000E+00 0. -1.
<mgrwt>
<rscale>  0 0.12736221E+04</rscale>
<asrwt>0</asrwt>
<pdfrwt beam="1">  1        1 0.26210889E+00 0.12736221E+04</pdfrwt>
<pdfrwt beam="2">  1       -1 0.36619524E-01 0.12736221E+04</pdfrwt>
<totfact> 0.33371653E+01</totfact>
</mgrwt>
</event>
<event>
 6    1  0.1885829E-005  0.7713039E+03  0.7818608E-02  0.9602508E-01
          2   -1    0    0  501    0  0.00000000000E+00  0.00000000000E+00  0.40482007852E+03  0.40482007852E+03  0.00000000000E+00 0. -1.
         -2   -1    0    0    0  501 -0.00000000000E+00 -0.00000000000E+00 -0.36739139858E+03  0.36739139858E+03  0.00000000000E+00 0.  1.
         23    2    1    2    0    0  0.11077960890E+03 -0.29652126071E+03  0.22992514508E+03  0.40173628374E+03  0.91266037128E+02 0.  0.
         13    1    3    3    0    0  0.95623242611E+02 -0.16951510191E+03  0.97707641161E+02  0.21777501566E+03  0.00000000000E+00 0. -1.
        -13    1    3    3    0    0  0.15156366287E+02 -0.12700615880E+03  0.13221750392E+03  0.18396126808E+03  0.00000000000E+00 0.  1.
         22    1    1    2    0    0 -0.11077960890E+03  0.29652126071E+03 -0.19249646514E+03  0.37047519335E+03  0.00000000000E+00 0.  1.
<mgrwt>
<rscale>  0 0.77130387E+03</rscale>
<asrwt>0</asrwt>
<pdfrwt beam="1">  1        2 0.62280013E-01 0.77130387E+03</pdfrwt>
<pdfrwt beam="2">  1       -2 0.56521753E-01 0.77130387E+03</pdfrwt>
<totfact> 0.23230274E+02</totfact>
</mgrwt>
</event>
<event>
 6    1  0.1885829E-005  0.2335292E+04  0.7818608E-02  0.8464135E-01
          2   -1    0    0  501    0  0.00000000000E+00  0.00000000000E+00  0.40158873424E+04  0.40158873424E+04  0.00000000000E+00 0. -1.
         -2   -1    0    0    0  501 -0.00000000000E+00 -0.00000000000E+00 -0.33950076821E+03  0.33950076821E+03  0.00000000000E+00 0.  1.
         23    2    1    2    0    0 -0.95177091757E+03  0.57715847765E+03  0.11940943524E+04  0.16349553395E+04  0.90762612450E+02 0.  0.
         11    1    3    3    0    0 -0.75450733982E+03  0.41949154884E+03  0.89465362522E+03  0.12432455890E+04  0.00000000000E+00 0.  1.
        -11    1    3    3    0    0 -0.19726357775E+03  0.15766692881E+03  0.29944072722E+03  0.39170975054E+03  0.00000000000E+00 0. -1.
         22    1    1    2    0    0  0.95177091757E+03 -0.57715847765E+03  0.24822922217E+04  0.27204327711E+04  0.00000000000E+00 0.  1.
<mgrwt>
<rscale>  0 0.23352917E+04</rscale>
<asrwt>0</asrwt>
<pdfrwt beam="1">  1        2 0.61782879E+00 0.23352917E+04</pdfrwt>
<pdfrwt beam="2">  1       -2 0.52230890E-01 0.23352917E+04</pdfrwt>
<totfact> 0.10444932E+00</totfact>
</mgrwt>
</event>
<event>
 6    1  0.1885829E-005  0.2744427E+04  0.7818608E-02  0.8320732E-01
          1   -1    0    0  501    0  0.00000000000E+00  0.00000000000E+00  0.16295785252E+04  0.16295785252E+04  0.00000000000E+00 0. -1.
         -1   -1    0    0    0  501 -0.00000000000E+00 -0.00000000000E+00 -0.11554948174E+04  0.11554948174E+04  0.00000000000E+00 0.  1.
         23    2    1    2    0    0 -0.51333802920E+03  0.11411074496E+04  0.80621058428E+03  0.14904883104E+04  0.77056820128E+02 0.  0.
         11    1    3    3    0    0 -0.10885394244E+03  0.32243952959E+03  0.22981100851E+03  0.41064526134E+03  0.00000000000E+00 0. -1.
        -11    1    3    3    0    0 -0.40448408676E+03  0.81866791997E+03  0.57639957577E+03  0.10798430490E+04  0.00000000000E+00 0.  1.
         22    1    1    2    0    0  0.51333802920E+03 -0.11411074496E+04 -0.33212687649E+03  0.12945850323E+04  0.00000000000E+00 0.  1.
<mgrwt>
<rscale>  0 0.27444267E+04</rscale>
<asrwt>0</asrwt>
<pdfrwt beam="1">  1        1 0.25070439E+00 0.27444267E+04</pdfrwt>
<pdfrwt beam="2">  1       -1 0.17776843E+00 0.27444267E+04</pdfrwt>
<totfact> 0.10004212E+00</totfact>
</mgrwt>
</event>
<event>
 6    1  0.1885829E-005  0.4069819E+04  0.7818608E-02  0.7990608E-01
         -2   -1    0    0    0  501 -0.00000000000E+00  0.00000000000E+00  0.11708223358E+04  0.11708223358E+04  0.00000000000E+00 0.  1.
          2   -1    0    0  501    0  0.00000000000E+00 -0.00000000000E+00 -0.35367073994E+04  0.35367073994E+04  0.00000000000E+00 0. -1.
         23    2    1    2    0    0  0.46989446434E+03  0.94309283516E+03 -0.31958575072E+04  0.33662321692E+04  0.88254787254E+02 0.  0.
         13    1    3    3    0    0  0.19859556591E+03  0.36188192056E+03 -0.11265906107E+04  0.11998354585E+04  0.00000000000E+00 0.  1.
        -13    1    3    3    0    0  0.27129889843E+03  0.58121091460E+03 -0.20692668965E+04  0.21663967108E+04  0.00000000000E+00 0. -1.
         22    1    1    2    0    0 -0.46989446434E+03 -0.94309283516E+03  0.82997244360E+03  0.13412975660E+04  0.00000000000E+00 0.  1.
<mgrwt>
<rscale>  0 0.40698187E+04</rscale>
<asrwt>0</asrwt>
<pdfrwt beam="1">  1        2 0.54410883E+00 0.40698187E+04</pdfrwt>
<pdfrwt beam="2">  1       -2 0.18012651E+00 0.40698187E+04</pdfrwt>
<totfact> 0.10852961E-01</totfact>
</mgrwt>
</event>
<event>
 6    1  0.1885829E-005  0.3479559E+04  0.7818608E-02  0.8118651E-01
         -1   -1    0    0    0  501 -0.00000000000E+00  0.00000000000E+00  0.58271449727E+03  0.58271449727E+03  0.00000000000E+00 0.  1.
          1   -1    0    0  501    0  0.00000000000E+00 -0.00000000000E+00 -0.51943652455E+04  0.51943652455E+04  0.00000000000E+00 0. -1.
         23    2    1    2    0    0  0.84191896290E+03 -0.15153887423E+04 -0.20882716431E+04  0.27155976363E+04  0.91441163560E+02 0.  0.
         13    1    3    3    0    0  0.52225525961E+03 -0.92073535629E+03 -0.12062413826E+04  0.16048434272E+04  0.00000000000E+00 0. -1.
        -13    1    3    3    0    0  0.31966370329E+03 -0.59465338598E+03 -0.88203026049E+03  0.11107542091E+04  0.00000000000E+00 0.  1.
         22    1    1    2    0    0 -0.84191896290E+03  0.15153887423E+04 -0.25233791051E+04  0.30614821064E+04  0.00000000000E+00 0.  1.
<mgrwt>
<rscale>  0 0.34795586E+04</rscale>
<asrwt>0</asrwt>
<pdfrwt beam="1">  1        1 0.79913312E+00 0.34795586E+04</pdfrwt>
<pdfrwt beam="2">  1       -1 0.89648384E-01 0.34795586E+04</pdfrwt>
<totfact> 0.46613708E-03</totfact>
</mgrwt>
</event>
<event>
 6    1  0.1885829E-005  0.4016572E+04  0.7818608E-02  0.8001212E-01
         -2   -1    0    0    0  501 -0.00000000000E+00  0.00000000000E+00  0.24883127406E+04  0.24883127406E+04  0.00000000000E+00 0.  1.
          2   -1    0    0  501    0  0.00000000000E+00 -0.00000000000E+00 -0.16208628186E+04  0.16208628186E+04  0.00000000000E+00 0. -1.
         23    2    1    2    0    0  0.88640135671E+03  0.76139351344E+03  0.21036429580E+04  0.24081168683E+04  0.91025870394E+02 0.  0.
         13    1    3    3    0    0  0.17472131614E+03  0.12836163236E+03  0.45758673575E+03  0.50634955091E+03  0.00000000000E+00 0. -1.
        -13    1    3    3    0    0  0.71168004057E+03  0.63303188108E+03  0.16460562223E+04  0.19017673174E+04  0.00000000000E+00 0.  1.
         22    1    1    2    0    0 -0.88640135671E+03 -0.76139351344E+03 -0.12361930360E+04  0.17010586909E+04  0.00000000000E+00 0. -1.
<mgrwt>
<rscale>  0 0.40165725E+04</rscale>
<asrwt>0</asrwt>
<pdfrwt beam="1">  1        2 0.24936351E+00 0.40165725E+04</pdfrwt>
<pdfrwt beam="2">  1       -2 0.38281734E+00 0.40165725E+04</pdfrwt>
<totfact> 0.82082170E-02</totfact>
</mgrwt>
</event>
<event>
 6    1  0.1885829E-005  0.1409035E+04  0.7818608E-02  0.8947304E-01
          2   -1    0    0  501    0  0.00000000000E+00  0.00000000000E+00  0.79500246260E+03  0.79500246260E+03  0.00000000000E+00 0. -1.
         -2   -1    0    0    0  501 -0.00000000000E+00 -0.00000000000E+00 -0.62433125868E+03  0.62433125868E+03  0.00000000000E+00 0.  1.
         23    2    1    2    0    0  0.30969956274E+02  0.22043860731E+03  0.75587063515E+03  0.79322614897E+03  0.91186558988E+02 0.  0.
         13    1    3    3    0    0  0.37468439380E+02  0.44191114698E+02  0.27489786330E+03  0.28093695701E+03  0.00000000000E+00 0.  1.
        -13    1    3    3    0    0 -0.64984831061E+01  0.17624749261E+03  0.48097277186E+03  0.51228919196E+03  0.00000000000E+00 0. -1.
         22    1    1    2    0    0 -0.30969956274E+02 -0.22043860731E+03 -0.58519943123E+03  0.62610757231E+03  0.00000000000E+00 0.  1.
<mgrwt>
<rscale>  0 0.14090350E+04</rscale>
<asrwt>0</asrwt>
<pdfrwt beam="1">  1        2 0.12230807E+00 0.14090350E+04</pdfrwt>
<pdfrwt beam="2">  1       -2 0.96050963E-01 0.14090350E+04</pdfrwt>
<totfact> 0.30695722E+01</totfact>
</mgrwt>
</event>
<event>
 6    1  0.1885829E-005  0.4164144E+04  0.7818608E-02  0.7972228E-01
         -1   -1    0    0    0  501 -0.00000000000E+00  0.00000000000E+00  0.13296656093E+04  0.13296656093E+04  0.00000000000E+00 0.  1.
          1   -1    0    0  501    0  0.00000000000E+00 -0.00000000000E+00 -0.32602368481E+04  0.32602368481E+04  0.00000000000E+00 0. -1.
         23    2    1    2    0    0  0.13632235938E+04  0.10102101641E+03  0.76382724053E+03  0.15685837093E+04  0.91863961656E+02 0.  0.
         13    1    3    3    0    0  0.57475085975E+03  0.49315755703E+02  0.27120767018E+03  0.63743563981E+03  0.00000000000E+00 0. -1.
        -13    1    3    3    0    0  0.78847273400E+03  0.51705260708E+02  0.49261957035E+03  0.93114806951E+03  0.00000000000E+00 0.  1.
         22    1    1    2    0    0 -0.13632235938E+04 -0.10102101641E+03 -0.26943984793E+04  0.30213187481E+04  0.00000000000E+00 0. -1.
<mgrwt>
<rscale>  0 0.41641445E+04</rscale>
<asrwt>0</asrwt>
<pdfrwt beam="1">  1        1 0.50157490E+00 0.41641445E+04</pdfrwt>
<pdfrwt beam="2">  1       -1 0.20456394E+00 0.41641445E+04</pdfrwt>
<totfact> 0.41358293E-02</totfact>
</mgrwt>
</event>
<event>
 6    1  0.1885829E-005  0.2325944E+04  0.7818608E-02  0.8467762E-01
          2   -1    0    0  501    0  0.00000000000E+00  0.00000000000E+00  0.23814891590E+04  0.23814891590E+04  0.00000000000E+00 0. -1.
         -2   -1    0    0    0  501 -0.00000000000E+00 -0.00000000000E+00 -0.56792336924E+03  0.56792336924E+03  0.00000000000E+00 0.  1.
         23    2    1    2    0    0 -0.10201566314E+04 -0.18726762987E+03  0.24651662193E+03  0.10702021057E+04  0.93666345799E+02 0.  0.
         13    1    3    3    0    0 -0.69545017391E+03 -0.12342976745E+03  0.21219752557E+03  0.73750501133E+03  0.00000000000E+00 0. -1.
        -13    1    3    3    0    0 -0.32470645750E+03 -0.63837862420E+02  0.34319096363E+02  0.33269709436E+03  0.00000000000E+00 0.  1.
         22    1    1    2    0    0  0.10201566314E+04  0.18726762987E+03  0.15670491679E+04  0.18792104226E+04  0.00000000000E+00 0.  1.
<mgrwt>
<rscale>  0 0.23259435E+04</rscale>
<asrwt>0</asrwt>
<pdfrwt beam="1">  1        2 0.36638294E+00 0.23259435E+04</pdfrwt>
<pdfrwt beam="2">  1       -2 0.87372827E-01 0.23259435E+04</pdfrwt>
<totfact> 0.41692749E+00</totfact>
</mgrwt>
</event>
<event>
 6    1  0.1885829E-005  0.9458910E+03  0.7818608E-02  0.9369966E-01
         -2   -1    0    0    0  501 -0.00000000000E+00  0.00000000000E+00  0.25826337785E+03  0.25826337785E+03  0.00000000000E+00 0.  1.
          2   -1    0    0  501    0  0.00000000000E+00 -0.00000000000E+00 -0.86608265211E+03  0.86608265211E+03  0.00000000000E+00 0. -1.
         23    2    1    2    0    0  0.11157152231E+03 -0.94780656816E+02 -0.83584330347E+03  0.85337271874E+03  0.90439989079E+02 0.  0.
         13    1    3    3    0    0  0.86339595709E+02 -0.94750824339E+02 -0.48602251634E+03  0.50264314468E+03  0.00000000000E+00 0. -1.
        -13    1    3    3    0    0  0.25231926603E+02 -0.29832477048E-01 -0.34982078713E+03  0.35072957406E+03  0.00000000000E+00 0.  1.
         22    1    1    2    0    0 -0.11157152231E+03  0.94780656816E+02  0.22802402921E+03  0.27097331122E+03  0.00000000000E+00 0.  1.
<mgrwt>
<rscale>  0 0.94589097E+03</rscale>
<asrwt>0</asrwt>
<pdfrwt beam="1">  1        2 0.13324349E+00 0.94589097E+03</pdfrwt>
<pdfrwt beam="2">  1       -2 0.39732827E-01 0.94589097E+03</pdfrwt>
<totfact> 0.18538943E+02</totfact>
</mgrwt>
</event>
<event>
 6    1  0.1885829E-005  0.6869017E+03  0.7818608E-02  0.9739898E-01
         -4   -1    0    0    0  501 -0.00000000000E+00  0.00000000000E+00  0.71221395534E+03  0.71221395534E+03  0.00000000000E+00 0.  1.
          4   -1    0    0  501    0  0.00000000000E+00 -0.00000000000E+00 -0.16562228077E+03  0.16562228077E+03  0.00000000000E+00 0. -1.
         23    2    1    2    0    0  0.12087581556E+03  0.16377854001E+03 -0.66393210663E+02  0.23193775920E+03  0.89177871498E+02 0.  0.
         11    1    3    3    0    0  0.16142954985E+02  0.20229669864E+02 -0.46389879609E+02  0.53121139564E+02  0.00000000000E+00 0. -1.
        -11    1    3    3    0    0  0.10473286057E+03  0.14354887015E+03 -0.20003331054E+02  0.17881661964E+03  0.00000000000E+00 0.  1.
         22    1    1    2    0    0 -0.12087581556E+03 -0.16377854001E+03  0.61298488523E+03  0.64589847691E+03  0.00000000000E+00 0.  1.
<mgrwt>
<rscale>  0 0.68690174E+03</rscale>
<asrwt>0</asrwt>
<pdfrwt beam="1">  1        4 0.25480351E-01 0.68690174E+03</pdfrwt>
<pdfrwt beam="2">  1       -4 0.10957138E+00 0.68690174E+03</pdfrwt>
<totfact> 0.19328732E+01</totfact>
</mgrwt>
</event>
<event>
 6    1  0.1885829E-005  0.3949996E+04  0.7818608E-02  0.8014711E-01
          2   -1    0    0  501    0  0.00000000000E+00  0.00000000000E+00  0.35250830860E+04  0.35250830860E+04  0.00000000000E+00 0. -1.
         -2   -1    0    0    0  501 -0.00000000000E+00 -0.00000000000E+00 -0.11065321420E+04  0.11065321420E+04  0.00000000000E+00 0.  1.
         23    2    1    2    0    0  0.86740028790E+03  0.50920221775E+03  0.32014426321E+04  0.33570213502E+04  0.93205476032E+02 0.  0.
         11    1    3    3    0    0  0.47295618999E+03  0.22853550677E+03  0.17302255697E+04  0.18082025765E+04  0.00000000000E+00 0.  1.
        -11    1    3    3    0    0  0.39444409791E+03  0.28066671098E+03  0.14712170624E+04  0.15488187737E+04  0.00000000000E+00 0. -1.
         22    1    1    2    0    0 -0.86740028790E+03 -0.50920221775E+03 -0.78289168818E+03  0.12745938778E+04  0.00000000000E+00 0.  1.
<mgrwt>
<rscale>  0 0.39499963E+04</rscale>
<asrwt>0</asrwt>
<pdfrwt beam="1">  1        2 0.54232047E+00 0.39499963E+04</pdfrwt>
<pdfrwt beam="2">  1       -2 0.17023572E+00 0.39499963E+04</pdfrwt>
<totfact> 0.13102712E-01</totfact>
</mgrwt>
</event>
<event>
 6    1  0.1885829E-005  0.6279060E+04  0.7818608E-02  0.7656733E-01
         -2   -1    0    0    0  501 -0.00000000000E+00  0.00000000000E+00  0.31331232186E+04  0.31331232186E+04  0.00000000000E+00 0. -1.
          2   -1    0    0  501    0  0.00000000000E+00 -0.00000000000E+00 -0.31459501571E+04  0.31459501571E+04  0.00000000000E+00 0.  1.
         23    2    1    2    0    0  0.80340743565E+03  0.25130642372E+04  0.16939391081E+04  0.31367803108E+04  0.94898093273E+02 0.  0.
         11    1    3    3    0    0  0.44779159539E+03  0.15205405665E+04  0.10514138671E+04  0.19021125222E+04  0.00000000000E+00 0.  1.
        -11    1    3    3    0    0  0.35561584026E+03  0.99252367073E+03  0.64252524107E+03  0.12346677886E+04  0.00000000000E+00 0. -1.
         22    1    1    2    0    0 -0.80340743565E+03 -0.25130642372E+04 -0.17067660466E+04  0.31422930649E+04  0.00000000000E+00 0.  1.
<mgrwt>
<rscale>  0 0.62790603E+04</rscale>
<asrwt>0</asrwt>
<pdfrwt beam="1">  1        2 0.48399233E+00 0.62790603E+04</pdfrwt>
<pdfrwt beam="2">  1       -2 0.48201896E+00 0.62790603E+04</pdfrwt>
<totfact> 0.20025910E-03</totfact>
</mgrwt>
</event>
<event>
 6    1  0.1885829E-005  0.1292176E+04  0.7818608E-02  0.9035793E-01
         -2   -1    0    0    0  501 -0.00000000000E+00  0.00000000000E+00  0.28056773006E+03  0.28056773006E+03  0.00000000000E+00 0.  1.
          2   -1    0    0  501    0  0.00000000000E+00 -0.00000000000E+00 -0.14878033592E+04  0.14878033592E+04  0.00000000000E+00 0. -1.
         23    2    1    2    0    0  0.28050728217E+03 -0.37157625959E+03  0.33481859726E+00  0.47416104514E+03  0.89862854258E+02 0.  0.
         13    1    3    3    0    0  0.19010365770E+03 -0.22864011276E+03 -0.40721412386E+02  0.30012320014E+03  0.00000000000E+00 0. -1.
        -13    1    3    3    0    0  0.90403624477E+02 -0.14293614683E+03  0.41056230984E+02  0.17403784500E+03  0.00000000000E+00 0.  1.
         22    1    1    2    0    0 -0.28050728217E+03  0.37157625959E+03 -0.12075704477E+04  0.12942100441E+04  0.00000000000E+00 0. -1.
<mgrwt>
<rscale>  0 0.12921759E+04</rscale>
<asrwt>0</asrwt>
<pdfrwt beam="1">  1        2 0.22889282E+00 0.12921759E+04</pdfrwt>
<pdfrwt beam="2">  1       -2 0.43164267E-01 0.12921759E+04</pdfrwt>
<totfact> 0.64341137E+01</totfact>
</mgrwt>
</event>
<event>
 6    1  0.1885829E-005  0.2155469E+04  0.7818608E-02  0.8537195E-01
         -2   -1    0    0    0  501 -0.00000000000E+00  0.00000000000E+00  0.15564739106E+04  0.15564739106E+04  0.00000000000E+00 0. -1.
          2   -1    0    0  501    0  0.00000000000E+00 -0.00000000000E+00 -0.74624528807E+03  0.74624528807E+03  0.00000000000E+00 0.  1.
         23    2    1    2    0    0 -0.41890644435E+03 -0.27981213717E+01 -0.65334620919E+03  0.78037175914E+03  0.81414831540E+02 0.  0.
         13    1    3    3    0    0 -0.24840179993E+03 -0.37906246843E+02 -0.41657262095E+03  0.48649058191E+03  0.00000000000E+00 0. -1.
        -13    1    3    3    0    0 -0.17050464441E+03  0.35108125471E+02 -0.23677358824E+03  0.29388117723E+03  0.00000000000E+00 0.  1.
         22    1    1    2    0    0  0.41890644435E+03  0.27981213717E+01  0.14635748317E+04  0.15223474396E+04  0.00000000000E+00 0. -1.
<mgrwt>
<rscale>  0 0.21554687E+04</rscale>
<asrwt>0</asrwt>
<pdfrwt beam="1">  1        2 0.11480697E+00 0.21554687E+04</pdfrwt>
<pdfrwt beam="2">  1       -2 0.23945752E+00 0.21554687E+04</pdfrwt>
<totfact> 0.25841399E+00</totfact>
</mgrwt>
</event>
<event>
 6    1  0.1885829E-005  0.1206240E+04  0.7818608E-02  0.9107413E-01
         -2   -1    0    0    0  501 -0.00000000000E+00  0.00000000000E+00  0.19416204778E+03  0.19416204778E+03  0.00000000000E+00 0.  1.
          2   -1    0    0  501    0  0.00000000000E+00 -0.00000000000E+00 -0.18734529119E+04  0.18734529119E+04  0.00000000000E+00 0. -1.
         23    2    1    2    0    0 -0.17712849333E+02 -0.39805320121E+03 -0.76242660656E+02  0.41579062318E+03  0.91152635689E+02 0.  0.
         13    1    3    3    0    0  0.16708384151E+02 -0.32242283787E+03 -0.79969755612E+02  0.33261211388E+03  0.00000000000E+00 0. -1.
        -13    1    3    3    0    0 -0.34421233485E+02 -0.75630363337E+02  0.37270949557E+01  0.83178509303E+02  0.00000000000E+00 0.  1.
         22    1    1    2    0    0  0.17712849333E+02  0.39805320121E+03 -0.16030482035E+04  0.16518243365E+04  0.00000000000E+00 0. -1.
<mgrwt>
<rscale>  0 0.12062395E+04</rscale>
<asrwt>0</asrwt>
<pdfrwt beam="1">  1        2 0.28822352E+00 0.12062395E+04</pdfrwt>
<pdfrwt beam="2">  1       -2 0.29871085E-01 0.12062395E+04</pdfrwt>
<totfact> 0.80141670E+01</totfact>
</mgrwt>
</event>
<event>
 6    1  0.2580921E-005  0.3489938E+04  0.7818608E-02  0.8116179E-01
          2   -1    0    0  501    0  0.00000000000E+00  0.00000000000E+00  0.32687353765E+04  0.32687353765E+04  0.00000000000E+00 0. -1.
         -2   -1    0    0    0  501 -0.00000000000E+00 -0.00000000000E+00 -0.93152765634E+03  0.93152765634E+03  0.00000000000E+00 0.  1.
         23    2    1    2    0    0  0.10728824324E+04  0.13679551361E+04  0.13323497161E+04  0.21922496921E+04  0.91787683426E+02 0.  0.
         11    1    3    3    0    0  0.62192929076E+03  0.77910963179E+03  0.70756066721E+03  0.12224769768E+04  0.00000000000E+00 0.  1.
        -11    1    3    3    0    0  0.45095314162E+03  0.58884550427E+03  0.62478904884E+03  0.96977271532E+03  0.00000000000E+00 0. -1.
         22    1    1    2    0    0 -0.10728824324E+04 -0.13679551361E+04  0.10048580041E+04  0.20080133407E+04  0.00000000000E+00 0. -1.
<mgrwt>
<rscale>  0 0.34899383E+04</rscale>
<asrwt>0</asrwt>
<pdfrwt beam="1">  1        2 0.50288236E+00 0.34899383E+04</pdfrwt>
<pdfrwt beam="2">  1       -2 0.14331195E+00 0.34899383E+04</pdfrwt>
<totfact> 0.32433014E-01</totfact>
</mgrwt>
</event>
<event>
 6    1  0.1885829E-005  0.4012779E+04  0.7818608E-02  0.8001974E-01
          2   -1    0    0  501    0  0.00000000000E+00  0.00000000000E+00  0.13254316647E+04  0.13254316647E+04  0.00000000000E+00 0. -1.
         -2   -1    0    0    0  501 -0.00000000000E+00 -0.00000000000E+00 -0.30371986974E+04  0.30371986974E+04  0.00000000000E+00 0.  1.
         23    2    1    2    0    0 -0.91942220906E+03  0.11179514494E+04  0.65237078527E+03  0.15905733165E+04  0.95828971856E+02 0.  0.
         11    1    3    3    0    0 -0.27637497179E+03  0.27464793989E+03  0.15698416329E+03  0.42006980782E+03  0.00000000000E+00 0. -1.
        -11    1    3    3    0    0 -0.64304723727E+03  0.84330350952E+03  0.49538662197E+03  0.11705035086E+04  0.00000000000E+00 0.  1.
         22    1    1    2    0    0  0.91942220906E+03 -0.11179514494E+04 -0.23641378180E+04  0.27720570456E+04  0.00000000000E+00 0.  1.
<mgrwt>
<rscale>  0 0.40127792E+04</rscale>
<asrwt>0</asrwt>
<pdfrwt beam="1">  1        2 0.20391257E+00 0.40127792E+04</pdfrwt>
<pdfrwt beam="2">  1       -2 0.46726133E+00 0.40127792E+04</pdfrwt>
<totfact> 0.33656072E-02</totfact>
</mgrwt>
</event>
<event>
 6    1  0.1885829E-005  0.1173360E+04  0.7818608E-02  0.9136499E-01
          2   -1    0    0  501    0  0.00000000000E+00  0.00000000000E+00  0.33889250173E+04  0.33889250173E+04  0.00000000000E+00 0. -1.
         -2   -1    0    0    0  501 -0.00000000000E+00 -0.00000000000E+00 -0.10156418643E+03  0.10156418643E+03  0.00000000000E+00 0.  1.
         23    2    1    2    0    0  0.38795954054E+03 -0.40549291316E+03  0.11817184877E+04  0.13113456139E+04  0.90728315526E+02 0.  0.
         13    1    3    3    0    0  0.39014292937E+03 -0.38743832502E+03  0.11336893373E+04  0.12599886803E+04  0.00000000000E+00 0.  1.
        -13    1    3    3    0    0 -0.21833888342E+01 -0.18054588140E+02  0.48029150375E+02  0.51356933567E+02  0.00000000000E+00 0. -1.
         22    1    1    2    0    0 -0.38795954054E+03  0.40549291316E+03  0.21056423432E+04  0.21791435898E+04  0.00000000000E+00 0.  1.
<mgrwt>
<rscale>  0 0.11733600E+04</rscale>
<asrwt>0</asrwt>
<pdfrwt beam="1">  1        2 0.52137299E+00 0.11733600E+04</pdfrwt>
<pdfrwt beam="2">  1       -2 0.15625262E-01 0.11733600E+04</pdfrwt>
<totfact> 0.32191162E+01</totfact>
</mgrwt>
</event>
<event>
 6    1  0.1885829E-005  0.4838027E+04  0.7818608E-02  0.7853991E-01
         -2   -1    0    0    0  501 -0.00000000000E+00  0.00000000000E+00  0.14933693955E+04  0.14933693955E+04  0.00000000000E+00 0.  1.
          2   -1    0    0  501    0  0.00000000000E+00 -0.00000000000E+00 -0.39184048302E+04  0.39184048302E+04  0.00000000000E+00 0. -1.
         23    2    1    2    0    0  0.18529121747E+03 -0.19539188620E+04  0.36716327227E+03  0.19987835468E+04  0.90526480444E+02 0.  0.
         11    1    3    3    0    0  0.16205503771E+03 -0.16749535325E+04  0.28244683846E+03  0.17063139769E+04  0.00000000000E+00 0. -1.
        -11    1    3    3    0    0  0.23236179763E+02 -0.27896532954E+03  0.84716433806E+02  0.29246956986E+03  0.00000000000E+00 0.  1.
         22    1    1    2    0    0 -0.18529121747E+03  0.19539188620E+04 -0.27921987070E+04  0.34129906789E+04  0.00000000000E+00 0. -1.
<mgrwt>
<rscale>  0 0.48380268E+04</rscale>
<asrwt>0</asrwt>
<pdfrwt beam="1">  1        2 0.60283151E+00 0.48380268E+04</pdfrwt>
<pdfrwt beam="2">  1       -2 0.22974914E+00 0.48380268E+04</pdfrwt>
<totfact> 0.25058064E-02</totfact>
</mgrwt>
</event>
<event>
 6    1  0.1885829E-005  0.5947776E+04  0.7818608E-02  0.7696911E-01
         -2   -1    0    0    0  501 -0.00000000000E+00  0.00000000000E+00  0.36621874282E+04  0.36621874282E+04  0.00000000000E+00 0.  1.
          2   -1    0    0  501    0  0.00000000000E+00 -0.00000000000E+00 -0.24149528044E+04  0.24149528044E+04  0.00000000000E+00 0. -1.
         23    2    1    2    0    0 -0.25302990273E+04  0.13618037492E+04 -0.15646372802E+03  0.28791265238E+04  0.89252581141E+02 0.  0.
         11    1    3    3    0    0 -0.82216591020E+03  0.47197233220E+03 -0.18609062929E+02  0.94818825318E+03  0.00000000000E+00 0. -1.
        -11    1    3    3    0    0 -0.17081331171E+04  0.88983141701E+03 -0.13785466509E+03  0.19309382706E+04  0.00000000000E+00 0.  1.
         22    1    1    2    0    0  0.25302990273E+04 -0.13618037492E+04  0.14036983518E+04  0.31980137088E+04  0.00000000000E+00 0.  1.
<mgrwt>
<rscale>  0 0.59477760E+04</rscale>
<asrwt>0</asrwt>
<pdfrwt beam="1">  1        2 0.37153120E+00 0.59477760E+04</pdfrwt>
<pdfrwt beam="2">  1       -2 0.56341345E+00 0.59477760E+04</pdfrwt>
<totfact> 0.19655153E-03</totfact>
</mgrwt>
</event>
<event>
 6    1  0.1885829E-005  0.2343948E+04  0.7818608E-02  0.8460792E-01
         -3   -1    0    0    0  501 -0.00000000000E+00  0.00000000000E+00  0.12701841613E+04  0.12701841613E+04  0.00000000000E+00 0.  1.
          3   -1    0    0  501    0  0.00000000000E+00 -0.00000000000E+00 -0.10813572305E+04  0.10813572305E+04  0.00000000000E+00 0. -1.
         23    2    1    2    0    0 -0.52782317628E+03  0.35381781833E+03 -0.89121777473E+03  0.10984328890E+04  0.92202687549E+02 0.  0.
         13    1    3    3    0    0 -0.33832620931E+03  0.19321513177E+03 -0.60331881505E+03  0.71818542428E+03  0.00000000000E+00 0.  1.
        -13    1    3    3    0    0 -0.18949696696E+03  0.16060268656E+03 -0.28789895968E+03  0.38024746469E+03  0.00000000000E+00 0. -1.
         22    1    1    2    0    0  0.52782317628E+03 -0.35381781833E+03  0.10800447055E+04  0.12531085028E+04  0.00000000000E+00 0.  1.
<mgrwt>
<rscale>  0 0.23439478E+04</rscale>
<asrwt>0</asrwt>
<pdfrwt beam="1">  1        3 0.16636265E+00 0.23439478E+04</pdfrwt>
<pdfrwt beam="2">  1       -3 0.19541295E+00 0.23439478E+04</pdfrwt>
<totfact> 0.90817276E-02</totfact>
</mgrwt>
</event>
<event>
 6    1  0.1885829E-005  0.5244913E+04  0.7818608E-02  0.7791799E-01
          2   -1    0    0  501    0  0.00000000000E+00  0.00000000000E+00  0.35626715952E+04  0.35626715952E+04  0.00000000000E+00 0.  1.
         -2   -1    0    0    0  501 -0.00000000000E+00 -0.00000000000E+00 -0.19303714106E+04  0.19303714106E+04  0.00000000000E+00 0. -1.
         23    2    1    2    0    0 -0.37963093834E+03 -0.16352059279E+04 -0.12927069019E+04  0.21205536385E+04  0.87398647854E+02 0.  0.
         13    1    3    3    0    0 -0.16604557617E+03 -0.69052053709E+03 -0.60117076565E+03  0.93048161453E+03  0.00000000000E+00 0. -1.
        -13    1    3    3    0    0 -0.21358536217E+03 -0.94468539084E+03 -0.69153613622E+03  0.11900720240E+04  0.00000000000E+00 0.  1.
         22    1    1    2    0    0  0.37963093834E+03  0.16352059279E+04  0.29250070865E+04  0.33724893672E+04  0.00000000000E+00 0.  1.
<mgrwt>
<rscale>  0 0.52449135E+04</rscale>
<asrwt>0</asrwt>
<pdfrwt beam="1">  1        2 0.54810332E+00 0.52449135E+04</pdfrwt>
<pdfrwt beam="2">  1       -2 0.29698022E+00 0.52449135E+04</pdfrwt>
<totfact> 0.17346868E-02</totfact>
</mgrwt>
</event>
<event>
 6    1  0.1885829E-005  0.4117635E+04  0.7818608E-02  0.7981227E-01
          2   -1    0    0  501    0  0.00000000000E+00  0.00000000000E+00  0.35067847044E+04  0.35067847044E+04  0.00000000000E+00 0. -1.
         -2   -1    0    0    0  501 -0.00000000000E+00 -0.00000000000E+00 -0.12087227375E+04  0.12087227375E+04  0.00000000000E+00 0.  1.
         23    2    1    2    0    0  0.60027558983E+03  0.35238159327E+02 -0.11041737912E+04  0.12605428016E+04  0.90531110558E+02 0.  0.
         13    1    3    3    0    0  0.13881095170E+03  0.31168058659E+02 -0.32828381902E+03  0.35778512269E+03  0.00000000000E+00 0. -1.
        -13    1    3    3    0    0  0.46146463813E+03  0.40701006683E+01 -0.77588997215E+03  0.90275767892E+03  0.00000000000E+00 0.  1.
         22    1    1    2    0    0 -0.60027558983E+03 -0.35238159327E+02  0.34022357582E+04  0.34549646403E+04  0.00000000000E+00 0. -1.
<mgrwt>
<rscale>  0 0.41176354E+04</rscale>
<asrwt>0</asrwt>
<pdfrwt beam="1">  1        2 0.53950533E+00 0.41176354E+04</pdfrwt>
<pdfrwt beam="2">  1       -2 0.18595735E+00 0.41176354E+04</pdfrwt>
<totfact> 0.10352458E-01</totfact>
</mgrwt>
</event>
<event>
 6    1  0.1885829E-005  0.3788143E+04  0.7818608E-02  0.8048704E-01
          1   -1    0    0  501    0  0.00000000000E+00  0.00000000000E+00  0.27857881998E+04  0.27857881998E+04  0.00000000000E+00 0. -1.
         -1   -1    0    0    0  501 -0.00000000000E+00 -0.00000000000E+00 -0.12877886215E+04  0.12877886215E+04  0.00000000000E+00 0.  1.
         23    2    1    2    0    0  0.13031256630E+04  0.12399032654E+04  0.13841521587E+04  0.22712289538E+04  0.84303980604E+02 0.  0.
         11    1    3    3    0    0  0.49805344550E+03  0.43904874746E+03  0.47070195589E+03  0.81386815179E+03  0.00000000000E+00 0.  1.
        -11    1    3    3    0    0  0.80507221745E+03  0.80085451792E+03  0.91345020276E+03  0.14573608020E+04  0.00000000000E+00 0. -1.
         22    1    1    2    0    0 -0.13031256630E+04 -0.12399032654E+04  0.11384741964E+03  0.18023478676E+04  0.00000000000E+00 0.  1.
<mgrwt>
<rscale>  0 0.37881427E+04</rscale>
<asrwt>0</asrwt>
<pdfrwt beam="1">  1        1 0.42858280E+00 0.37881427E+04</pdfrwt>
<pdfrwt beam="2">  1       -1 0.19812133E+00 0.37881427E+04</pdfrwt>
<totfact> 0.10532895E-01</totfact>
</mgrwt>
</event>
<event>
 6    1  0.1885829E-005  0.2079897E+04  0.7818608E-02  0.8570151E-01
         -2   -1    0    0    0  501 -0.00000000000E+00  0.00000000000E+00  0.60930653719E+03  0.60930653719E+03  0.00000000000E+00 0.  1.
          2   -1    0    0  501    0  0.00000000000E+00 -0.00000000000E+00 -0.17749571929E+04  0.17749571929E+04  0.00000000000E+00 0. -1.
         23    2    1    2    0    0  0.31402604551E+03  0.98884772062E+03 -0.53839865573E+03  0.11718787899E+04  0.83633808001E+02 0.  0.
         13    1    3    3    0    0  0.43306108172E+02  0.14671259876E+03 -0.11389151009E+03  0.19071256306E+03  0.00000000000E+00 0.  1.
        -13    1    3    3    0    0  0.27071993733E+03  0.84213512186E+03 -0.42450714564E+03  0.98116622681E+03  0.00000000000E+00 0. -1.
         22    1    1    2    0    0 -0.31402604551E+03 -0.98884772062E+03 -0.62725200001E+03  0.12123849403E+04  0.00000000000E+00 0. -1.
<mgrwt>
<rscale>  0 0.20798971E+04</rscale>
<asrwt>0</asrwt>
<pdfrwt beam="1">  1        2 0.27307034E+00 0.20798971E+04</pdfrwt>
<pdfrwt beam="2">  1       -2 0.93739467E-01 0.20798971E+04</pdfrwt>
<totfact> 0.79076902E+00</totfact>
</mgrwt>
</event>
<event>
 6    1  0.1885829E-005  0.3260897E+04  0.7818608E-02  0.8172917E-01
         -2   -1    0    0    0  501 -0.00000000000E+00  0.00000000000E+00  0.15757983759E+04  0.15757983759E+04  0.00000000000E+00 0.  1.
          2   -1    0    0  501    0  0.00000000000E+00 -0.00000000000E+00 -0.16869935247E+04  0.16869935247E+04  0.00000000000E+00 0. -1.
         23    2    1    2    0    0  0.14703127322E+04 -0.67536198567E+03 -0.24670286608E+03  0.16391245444E+04  0.89070904061E+02 0.  0.
         13    1    3    3    0    0  0.21123505115E+03 -0.13225832989E+03 -0.40133624993E+02  0.25243458660E+03  0.00000000000E+00 0.  1.
        -13    1    3    3    0    0  0.12590776810E+04 -0.54310365578E+03 -0.20656924108E+03  0.13866899578E+04  0.00000000000E+00 0. -1.
         22    1    1    2    0    0 -0.14703127322E+04  0.67536198567E+03  0.13550771735E+03  0.16236673562E+04  0.00000000000E+00 0. -1.
<mgrwt>
<rscale>  0 0.32608966E+04</rscale>
<asrwt>0</asrwt>
<pdfrwt beam="1">  1        2 0.25953747E+00 0.32608966E+04</pdfrwt>
<pdfrwt beam="2">  1       -2 0.24243052E+00 0.32608966E+04</pdfrwt>
<totfact> 0.59786975E-01</totfact>
</mgrwt>
</event>
<event>
 6    1  0.1885829E-005  0.2421640E+03  0.7818608E-02  0.1118360E+00
         -2   -1    0    0    0  501 -0.00000000000E+00  0.00000000000E+00  0.88614660621E+03  0.88614660621E+03  0.00000000000E+00 0.  1.
          2   -1    0    0  501    0  0.00000000000E+00 -0.00000000000E+00 -0.16544499894E+02  0.16544499894E+02  0.00000000000E+00 0. -1.
         23    2    1    2    0    0  0.46980837002E+01  0.97224424730E+02  0.35336125091E+03  0.37735380346E+03  0.89761119590E+02 0.  0.
         11    1    3    3    0    0 -0.29819263609E+02  0.88330600034E+02  0.21247286884E+03  0.23202629889E+03  0.00000000000E+00 0. -1.
        -11    1    3    3    0    0  0.34517347309E+02  0.88938246964E+01  0.14088838207E+03  0.14532750457E+03  0.00000000000E+00 0.  1.
         22    1    1    2    0    0 -0.46980837002E+01 -0.97224424730E+02  0.51624085541E+03  0.52533730264E+03  0.00000000000E+00 0.  1.
<mgrwt>
<rscale>  0 0.24216401E+03</rscale>
<asrwt>0</asrwt>
<pdfrwt beam="1">  1        2 0.25453084E-02 0.24216401E+03</pdfrwt>
<pdfrwt beam="2">  1       -2 0.13633021E+00 0.24216401E+03</pdfrwt>
<totfact> 0.15803970E+03</totfact>
</mgrwt>
</event>
<event>
 6    1  0.1885829E-005  0.4358238E+04  0.7818608E-02  0.7935936E-01
         -2   -1    0    0    0  501 -0.00000000000E+00  0.00000000000E+00  0.11237120063E+04  0.11237120063E+04  0.00000000000E+00 0.  1.
          2   -1    0    0  501    0  0.00000000000E+00 -0.00000000000E+00 -0.42257805265E+04  0.42257805265E+04  0.00000000000E+00 0. -1.
         23    2    1    2    0    0 -0.52208402636E+03  0.20919843534E+04 -0.19305594771E+04  0.28956376667E+04  0.93205885803E+02 0.  0.
         13    1    3    3    0    0 -0.41712717174E+03  0.15334803550E+04 -0.13897408449E+04  0.21111458246E+04  0.00000000000E+00 0.  1.
        -13    1    3    3    0    0 -0.10495685462E+03  0.55850399833E+03 -0.54081863216E+03  0.78449184214E+03  0.00000000000E+00 0. -1.
         22    1    1    2    0    0  0.52208402636E+03 -0.20919843534E+04 -0.11715090431E+04  0.24538548660E+04  0.00000000000E+00 0.  1.
<mgrwt>
<rscale>  0 0.43582383E+04</rscale>
<asrwt>0</asrwt>
<pdfrwt beam="1">  1        2 0.65012008E+00 0.43582383E+04</pdfrwt>
<pdfrwt beam="2">  1       -2 0.17287877E+00 0.43582383E+04</pdfrwt>
<totfact> 0.34218185E-02</totfact>
</mgrwt>
</event>
<event>
 6    1  0.1885829E-005  0.1716163E+04  0.7818608E-02  0.8752199E-01
          1   -1    0    0  501    0  0.00000000000E+00  0.00000000000E+00  0.88874684327E+03  0.88874684327E+03  0.00000000000E+00 0. -1.
         -1   -1    0    0    0  501 -0.00000000000E+00 -0.00000000000E+00 -0.82847454884E+03  0.82847454884E+03  0.00000000000E+00 0.  1.
         23    2    1    2    0    0 -0.31055061471E+03  0.74194643543E+02  0.82418617634E+03  0.88926550657E+03  0.97794470546E+02 0.  0.
         13    1    3    3    0    0 -0.29035015942E+03  0.94442953515E+02  0.75507705552E+03  0.81447163628E+03  0.00000000000E+00 0. -1.
        -13    1    3    3    0    0 -0.20200455292E+02 -0.20248309972E+02  0.69109120829E+02  0.74793870287E+02  0.00000000000E+00 0.  1.
         22    1    1    2    0    0  0.31055061471E+03 -0.74194643543E+02 -0.76391388191E+03  0.82795588554E+03  0.00000000000E+00 0.  1.
<mgrwt>
<rscale>  0 0.17161633E+04</rscale>
<asrwt>0</asrwt>
<pdfrwt beam="1">  1        1 0.13673028E+00 0.17161633E+04</pdfrwt>
<pdfrwt beam="2">  1       -1 0.12745762E+00 0.17161633E+04</pdfrwt>
<totfact> 0.94181529E+00</totfact>
</mgrwt>
</event>
<event>
 6    1  0.2537505E-005  0.3464071E+04  0.7818608E-02  0.8122358E-01
         -2   -1    0    0    0  501 -0.00000000000E+00  0.00000000000E+00  0.15023513389E+04  0.15023513389E+04  0.00000000000E+00 0.  1.
          2   -1    0    0  501    0  0.00000000000E+00 -0.00000000000E+00 -0.19968344013E+04  0.19968344013E+04  0.00000000000E+00 0. -1.
         23    2    1    2    0    0 -0.59360576464E+03 -0.11560741733E+04  0.90820928379E+03  0.15870086783E+04  0.69836551448E+02 0.  0.
         11    1    3    3    0    0 -0.39646830469E+03 -0.74937250652E+03  0.63056782375E+03  0.10565803569E+04  0.00000000000E+00 0.  1.
        -11    1    3    3    0    0 -0.19713745995E+03 -0.40670166674E+03  0.27764146004E+03  0.53042832143E+03  0.00000000000E+00 0. -1.
         22    1    1    2    0    0  0.59360576464E+03  0.11560741733E+04 -0.14026923462E+04  0.19121770619E+04  0.00000000000E+00 0. -1.
<mgrwt>
<rscale>  0 0.34640709E+04</rscale>
<asrwt>0</asrwt>
<pdfrwt beam="1">  1        2 0.30720529E+00 0.34640709E+04</pdfrwt>
<pdfrwt beam="2">  1       -2 0.23113098E+00 0.34640709E+04</pdfrwt>
<totfact> 0.46507157E-01</totfact>
</mgrwt>
</event>
<event>
 6    1  0.1885829E-005  0.1357044E+04  0.7818608E-02  0.8985513E-01
          2   -1    0    0  501    0  0.00000000000E+00  0.00000000000E+00  0.91912272893E+03  0.91912272893E+03  0.00000000000E+00 0. -1.
         -2   -1    0    0    0  501 -0.00000000000E+00 -0.00000000000E+00 -0.50090360187E+03  0.50090360187E+03  0.00000000000E+00 0.  1.
         23    2    1    2    0    0  0.51955642057E+03 -0.26473257563E+02 -0.24092352938E+03  0.58031879299E+03  0.89922449727E+02 0.  0.
         13    1    3    3    0    0  0.43352633889E+03  0.10671299720E+02 -0.20835358436E+03  0.48111347857E+03  0.00000000000E+00 0. -1.
        -13    1    3    3    0    0  0.86030081683E+02 -0.37144557283E+02 -0.32569945020E+02  0.99205314418E+02  0.00000000000E+00 0.  1.
         22    1    1    2    0    0 -0.51955642057E+03  0.26473257563E+02  0.65914265644E+03  0.83970753782E+03  0.00000000000E+00 0. -1.
<mgrwt>
<rscale>  0 0.13570437E+04</rscale>
<asrwt>0</asrwt>
<pdfrwt beam="1">  1        2 0.14140350E+00 0.13570437E+04</pdfrwt>
<pdfrwt beam="2">  1       -2 0.77062093E-01 0.13570437E+04</pdfrwt>
<totfact> 0.41787660E+01</totfact>
</mgrwt>
</event>
<event>
 6    1  0.1885829E-005  0.3048510E+04  0.7818608E-02  0.8230013E-01
          2   -1    0    0  501    0  0.00000000000E+00  0.00000000000E+00  0.12378909570E+04  0.12378909570E+04  0.00000000000E+00 0. -1.
         -2   -1    0    0    0  501 -0.00000000000E+00 -0.00000000000E+00 -0.18768645954E+04  0.18768645954E+04  0.00000000000E+00 0.  1.
         23    2    1    2    0    0 -0.89602553368E+03  0.48900409008E+03 -0.14744865743E+04  0.17956389453E+04  0.90674180093E+02 0.  0.
         11    1    3    3    0    0 -0.35058263763E+03  0.17140884564E+03 -0.63536224234E+03  0.74563688024E+03  0.00000000000E+00 0.  1.
        -11    1    3    3    0    0 -0.54544289605E+03  0.31759524444E+03 -0.83912433197E+03  0.10500020651E+04  0.00000000000E+00 0. -1.
         22    1    1    2    0    0  0.89602553368E+03 -0.48900409008E+03  0.83551293594E+03  0.13191166071E+04  0.00000000000E+00 0. -1.
<mgrwt>
<rscale>  0 0.30485103E+04</rscale>
<asrwt>0</asrwt>
<pdfrwt beam="1">  1        2 0.19044476E+00 0.30485103E+04</pdfrwt>
<pdfrwt beam="2">  1       -2 0.28874840E+00 0.30485103E+04</pdfrwt>
<totfact> 0.57091427E-01</totfact>
</mgrwt>
</event>
<event>
 6    1  0.1885829E-005  0.2981544E+04  0.7818608E-02  0.8249021E-01
          2   -1    0    0  501    0  0.00000000000E+00  0.00000000000E+00  0.13260340356E+04  0.13260340356E+04  0.00000000000E+00 0.  1.
         -2   -1    0    0    0  501 -0.00000000000E+00 -0.00000000000E+00 -0.16759764664E+04  0.16759764664E+04  0.00000000000E+00 0. -1.
         23    2    1    2    0    0  0.12729956330E+04 -0.41615012860E+03 -0.83122103491E+03  0.15788703451E+04  0.90577849205E+02 0.  0.
         13    1    3    3    0    0  0.11008532922E+04 -0.39153989806E+03 -0.71905920909E+03  0.13719430050E+04  0.00000000000E+00 0. -1.
        -13    1    3    3    0    0  0.17214234081E+03 -0.24610230538E+02 -0.11216182583E+03  0.20692734019E+03  0.00000000000E+00 0.  1.
         22    1    1    2    0    0 -0.12729956330E+04  0.41615012860E+03  0.48127860413E+03  0.14231401568E+04  0.00000000000E+00 0.  1.
<mgrwt>
<rscale>  0 0.29815445E+04</rscale>
<asrwt>0</asrwt>
<pdfrwt beam="1">  1        2 0.20400524E+00 0.29815445E+04</pdfrwt>
<pdfrwt beam="2">  1       -2 0.25784253E+00 0.29815445E+04</pdfrwt>
<totfact> 0.78719113E-01</totfact>
</mgrwt>
</event>
<event>
 6    1  0.1885829E-005  0.2419384E+04  0.7818608E-02  0.8432282E-01
          2   -1    0    0  501    0  0.00000000000E+00  0.00000000000E+00  0.32405618121E+04  0.32405618121E+04  0.00000000000E+00 0. -1.
         -2   -1    0    0    0  501 -0.00000000000E+00 -0.00000000000E+00 -0.45157448003E+03  0.45157448003E+03  0.00000000000E+00 0.  1.
         23    2    1    2    0    0  0.11044782298E+04 -0.47644289721E+03  0.12194243556E+04  0.17146636801E+04  0.78776787336E+02 0.  0.
         11    1    3    3    0    0  0.45376627620E+03 -0.15406148997E+03  0.49135015962E+03  0.68634084497E+03  0.00000000000E+00 0. -1.
        -11    1    3    3    0    0  0.65071195361E+03 -0.32238140724E+03  0.72807419602E+03  0.10283228351E+04  0.00000000000E+00 0.  1.
         22    1    1    2    0    0 -0.11044782298E+04  0.47644289721E+03  0.15695629764E+04  0.19774726121E+04  0.00000000000E+00 0. -1.
<mgrwt>
<rscale>  0 0.24193842E+04</rscale>
<asrwt>0</asrwt>
<pdfrwt beam="1">  1        2 0.49854796E+00 0.24193842E+04</pdfrwt>
<pdfrwt beam="2">  1       -2 0.69472999E-01 0.24193842E+04</pdfrwt>
<totfact> 0.20714918E+00</totfact>
</mgrwt>
</event>
<event>
 6    1  0.1885829E-005  0.3903873E+04  0.7818608E-02  0.8024224E-01
         -2   -1    0    0    0  501 -0.00000000000E+00  0.00000000000E+00  0.22635105087E+04  0.22635105087E+04  0.00000000000E+00 0.  1.
          2   -1    0    0  501    0  0.00000000000E+00 -0.00000000000E+00 -0.16832504986E+04  0.16832504986E+04  0.00000000000E+00 0. -1.
         23    2    1    2    0    0  0.25875837868E+03  0.18386282875E+04 -0.31484929318E+03  0.18855161060E+04  0.92363578805E+02 0.  0.
         11    1    3    3    0    0  0.17400554223E+03  0.10211473676E+04 -0.21073406711E+03  0.10570850118E+04  0.00000000000E+00 0. -1.
        -11    1    3    3    0    0  0.84752836445E+02  0.81748091987E+03 -0.10411522607E+03  0.82843109426E+03  0.00000000000E+00 0.  1.
         22    1    1    2    0    0 -0.25875837868E+03 -0.18386282875E+04  0.89510930335E+03  0.20612449013E+04  0.00000000000E+00 0.  1.
<mgrwt>
<rscale>  0 0.39038725E+04</rscale>
<asrwt>0</asrwt>
<pdfrwt beam="1">  1        2 0.25896161E+00 0.39038725E+04</pdfrwt>
<pdfrwt beam="2">  1       -2 0.34823239E+00 0.39038725E+04</pdfrwt>
<totfact> 0.12712050E-01</totfact>
</mgrwt>
</event>
<event>
 6    1  0.1916628E-005  0.1043418E+04  0.7818608E-02  0.9262166E-01
          2   -1    0    0  501    0  0.00000000000E+00  0.00000000000E+00  0.84270152809E+03  0.84270152809E+03  0.00000000000E+00 0. -1.
         -2   -1    0    0    0  501 -0.00000000000E+00 -0.00000000000E+00 -0.32298562124E+03  0.32298562124E+03  0.00000000000E+00 0.  1.
         23    2    1    2    0    0 -0.41984128938E+03  0.22441991900E+03  0.48913595719E+03  0.68864821839E+03  0.91385861948E+02 0.  0.
         11    1    3    3    0    0 -0.24789154616E+03  0.11894581839E+03  0.21902331659E+03  0.35152459313E+03  0.00000000000E+00 0.  1.
        -11    1    3    3    0    0 -0.17194974323E+03  0.10547410061E+03  0.27011264060E+03  0.33712362526E+03  0.00000000000E+00 0. -1.
         22    1    1    2    0    0  0.41984128938E+03 -0.22441991900E+03  0.30579949662E+02  0.47703893094E+03  0.00000000000E+00 0.  1.
<mgrwt>
<rscale>  0 0.10434184E+04</rscale>
<asrwt>0</asrwt>
<pdfrwt beam="1">  1        2 0.12964639E+00 0.10434184E+04</pdfrwt>
<pdfrwt beam="2">  1       -2 0.49690096E-01 0.10434184E+04</pdfrwt>
<totfact> 0.12259024E+02</totfact>
</mgrwt>
</event>
<event>
 6    1  0.1885829E-005  0.2810048E+04  0.7818608E-02  0.8300156E-01
         -1   -1    0    0    0  501 -0.00000000000E+00  0.00000000000E+00  0.10548510814E+04  0.10548510814E+04  0.00000000000E+00 0.  1.
          1   -1    0    0  501    0  0.00000000000E+00 -0.00000000000E+00 -0.18714411675E+04  0.18714411675E+04  0.00000000000E+00 0. -1.
         23    2    1    2    0    0 -0.43043686104E+03 -0.27613383568E+02  0.98215569508E+03  0.10765558418E+04  0.91127826421E+02 0.  0.
         13    1    3    3    0    0 -0.22452974952E+03 -0.33218026853E+02  0.61528513022E+03  0.65581463631E+03  0.00000000000E+00 0. -1.
        -13    1    3    3    0    0 -0.20590711152E+03  0.56046432846E+01  0.36687056486E+03  0.42074120545E+03  0.00000000000E+00 0.  1.
         22    1    1    2    0    0  0.43043686104E+03  0.27613383568E+02 -0.17987457812E+04  0.18497364071E+04  0.00000000000E+00 0. -1.
<mgrwt>
<rscale>  0 0.28100475E+04</rscale>
<asrwt>0</asrwt>
<pdfrwt beam="1">  1        1 0.28791402E+00 0.28100475E+04</pdfrwt>
<pdfrwt beam="2">  1       -1 0.16228478E+00 0.28100475E+04</pdfrwt>
<totfact> 0.88501633E-01</totfact>
</mgrwt>
</event>
<event>
 6    1  0.1885829E-005  0.2378077E+04  0.7818608E-02  0.8447757E-01
         -2   -1    0    0    0  501 -0.00000000000E+00  0.00000000000E+00  0.48560030772E+03  0.48560030772E+03  0.00000000000E+00 0. -1.
          2   -1    0    0  501    0  0.00000000000E+00 -0.00000000000E+00 -0.29114732490E+04  0.29114732490E+04  0.00000000000E+00 0.  1.
         23    2    1    2    0    0  0.55129870408E+02 -0.10008148696E+04 -0.30558164432E+03  0.10518006750E+04  0.90745868951E+02 0.  0.
         13    1    3    3    0    0  0.37324460116E+02 -0.36751638832E+03 -0.70688865576E+02  0.37610946109E+03  0.00000000000E+00 0.  1.
        -13    1    3    3    0    0  0.17805410291E+02 -0.63329848129E+03 -0.23489277874E+03  0.67569121390E+03  0.00000000000E+00 0. -1.
         22    1    1    2    0    0 -0.55129870408E+02  0.10008148696E+04 -0.21202912970E+04  0.23452728817E+04  0.00000000000E+00 0.  1.
<mgrwt>
<rscale>  0 0.23780768E+04</rscale>
<asrwt>0</asrwt>
<pdfrwt beam="1">  1        2 0.44791896E+00 0.23780768E+04</pdfrwt>
<pdfrwt beam="2">  1       -2 0.74707739E-01 0.23780768E+04</pdfrwt>
<totfact> 0.28690760E+00</totfact>
</mgrwt>
</event>
<event>
 6    1  0.1885829E-005  0.2456636E+04  0.7818608E-02  0.8418599E-01
          2   -1    0    0  501    0  0.00000000000E+00  0.00000000000E+00  0.16338208656E+04  0.16338208656E+04  0.00000000000E+00 0. -1.
         -2   -1    0    0    0  501 -0.00000000000E+00 -0.00000000000E+00 -0.92345778857E+03  0.92345778857E+03  0.00000000000E+00 0.  1.
         23    2    1    2    0    0 -0.42351258427E+03 -0.23468022622E+03  0.15289060105E+04  0.16062527599E+04  0.89758689098E+02 0.  0.
         13    1    3    3    0    0 -0.14924158220E+03 -0.10860693475E+03  0.46319890295E+03  0.49861983497E+03  0.00000000000E+00 0. -1.
        -13    1    3    3    0    0 -0.27427100207E+03 -0.12607329147E+03  0.10657071075E+04  0.11076329249E+04  0.00000000000E+00 0.  1.
         22    1    1    2    0    0  0.42351258427E+03  0.23468022622E+03 -0.81854293345E+03  0.95102589424E+03  0.00000000000E+00 0.  1.
<mgrwt>
<rscale>  0 0.24566356E+04</rscale>
<asrwt>0</asrwt>
<pdfrwt beam="1">  1        2 0.25135706E+00 0.24566356E+04</pdfrwt>
<pdfrwt beam="2">  1       -2 0.14207043E+00 0.24566356E+04</pdfrwt>
<totfact> 0.33039126E+00</totfact>
</mgrwt>
</event>
<event>
 6    1  0.1885829E-005  0.1507654E+04  0.7818608E-02  0.8879379E-01
         -2   -1    0    0    0  501 -0.00000000000E+00  0.00000000000E+00  0.53669607593E+03  0.53669607593E+03  0.00000000000E+00 0.  1.
          2   -1    0    0  501    0  0.00000000000E+00 -0.00000000000E+00 -0.10588018463E+04  0.10588018463E+04  0.00000000000E+00 0. -1.
         23    2    1    2    0    0 -0.11447414996E+03 -0.74223765698E+03 -0.24543199158E+03  0.79514209490E+03  0.89403680791E+02 0.  0.
         11    1    3    3    0    0 -0.10346081723E+03 -0.39350398512E+03 -0.14696426651E+03  0.43260608252E+03  0.00000000000E+00 0.  1.
        -11    1    3    3    0    0 -0.11013332734E+02 -0.34873367186E+03 -0.98467725075E+02  0.36253601237E+03  0.00000000000E+00 0. -1.
         22    1    1    2    0    0  0.11447414996E+03  0.74223765698E+03 -0.27667377874E+03  0.80035582729E+03  0.00000000000E+00 0. -1.
<mgrwt>
<rscale>  0 0.15076535E+04</rscale>
<asrwt>0</asrwt>
<pdfrwt beam="1">  1        2 0.16289259E+00 0.15076535E+04</pdfrwt>
<pdfrwt beam="2">  1       -2 0.82568627E-01 0.15076535E+04</pdfrwt>
<totfact> 0.28730481E+01</totfact>
</mgrwt>
</event>
<event>
 6    1  0.1885829E-005  0.1098115E+04  0.7818608E-02  0.9207032E-01
         -2   -1    0    0    0  501 -0.00000000000E+00  0.00000000000E+00  0.85598727333E+03  0.85598727333E+03  0.00000000000E+00 0.  1.
          2   -1    0    0  501    0  0.00000000000E+00 -0.00000000000E+00 -0.35218266560E+03  0.35218266560E+03  0.00000000000E+00 0. -1.
         23    2    1    2    0    0 -0.28273236613E+03 -0.21653802383E+03  0.70782225601E+03  0.79774393167E+03  0.92502582686E+02 0.  0.
         13    1    3    3    0    0 -0.47705489724E+02 -0.57368745748E+00  0.11387897229E+03  0.12346887542E+03  0.00000000000E+00 0.  1.
        -13    1    3    3    0    0 -0.23502687640E+03 -0.21596433637E+03  0.59394328371E+03  0.67427505625E+03  0.00000000000E+00 0. -1.
         22    1    1    2    0    0  0.28273236613E+03  0.21653802383E+03 -0.20401764829E+03  0.41042600726E+03  0.00000000000E+00 0. -1.
<mgrwt>
<rscale>  0 0.10981145E+04</rscale>
<asrwt>0</asrwt>
<pdfrwt beam="1">  1        2 0.54181949E-01 0.10981145E+04</pdfrwt>
<pdfrwt beam="2">  1       -2 0.13169035E+00 0.10981145E+04</pdfrwt>
<totfact> 0.38270029E+01</totfact>
</mgrwt>
</event>
<event>
 6    1  0.2301140E-005  0.3598481E+04  0.7818608E-02  0.8090840E-01
         -1   -1    0    0    0  501 -0.00000000000E+00  0.00000000000E+00  0.13853792233E+04  0.13853792233E+04  0.00000000000E+00 0.  1.
          1   -1    0    0  501    0  0.00000000000E+00 -0.00000000000E+00 -0.23367370367E+04  0.23367370367E+04  0.00000000000E+00 0. -1.
         23    2    1    2    0    0 -0.16421273969E+04 -0.56617172013E+03  0.46762692372E+01  0.17394075139E+04  0.91563243430E+02 0.  0.
         11    1    3    3    0    0 -0.77262678403E+03 -0.22334363978E+03  0.22859729449E+02  0.80458504588E+03  0.00000000000E+00 0.  1.
        -11    1    3    3    0    0 -0.86950061290E+03 -0.34282808035E+03 -0.18183460212E+02  0.93482246803E+03  0.00000000000E+00 0. -1.
         22    1    1    2    0    0  0.16421273969E+04  0.56617172013E+03 -0.95603408263E+03  0.19827087460E+04  0.00000000000E+00 0.  1.
<mgrwt>
<rscale>  0 0.35984813E+04</rscale>
<asrwt>0</asrwt>
<pdfrwt beam="1">  1        1 0.35949800E+00 0.35984813E+04</pdfrwt>
<pdfrwt beam="2">  1       -1 0.21313527E+00 0.35984813E+04</pdfrwt>
<totfact> 0.17395807E-01</totfact>
</mgrwt>
</event>
<event>
 6    1  0.1885829E-005  0.3480712E+04  0.7818608E-02  0.8118376E-01
          2   -1    0    0  501    0  0.00000000000E+00  0.00000000000E+00  0.31469365067E+04  0.31469365067E+04  0.00000000000E+00 0. -1.
         -2   -1    0    0    0  501 -0.00000000000E+00 -0.00000000000E+00 -0.96247209963E+03  0.96247209963E+03  0.00000000000E+00 0.  1.
         23    2    1    2    0    0 -0.88949809685E+03  0.11521170223E+04 -0.30510327990E+02  0.14589947567E+04  0.95678224630E+02 0.  0.
         11    1    3    3    0    0 -0.41638569074E+03  0.50720317662E+03 -0.57137377440E+02  0.65870842239E+03  0.00000000000E+00 0. -1.
        -11    1    3    3    0    0 -0.47311240612E+03  0.64491384565E+03  0.26627049449E+02  0.80028633432E+03  0.00000000000E+00 0.  1.
         22    1    1    2    0    0  0.88949809685E+03 -0.11521170223E+04  0.22149747350E+04  0.26504138496E+04  0.00000000000E+00 0. -1.
<mgrwt>
<rscale>  0 0.34807118E+04</rscale>
<asrwt>0</asrwt>
<pdfrwt beam="1">  1        2 0.48414407E+00 0.34807118E+04</pdfrwt>
<pdfrwt beam="2">  1       -2 0.14807263E+00 0.34807118E+04</pdfrwt>
<totfact> 0.35789692E-01</totfact>
</mgrwt>
</event>
<event>
 6    1  0.1885829E-005  0.3723256E+04  0.7818608E-02  0.8062827E-01
          2   -1    0    0  501    0  0.00000000000E+00  0.00000000000E+00  0.16741156826E+04  0.16741156826E+04  0.00000000000E+00 0. -1.
         -2   -1    0    0    0  501 -0.00000000000E+00 -0.00000000000E+00 -0.20701431925E+04  0.20701431925E+04  0.00000000000E+00 0.  1.
         23    2    1    2    0    0  0.18192749700E+04  0.37381504824E+03 -0.30794076550E+03  0.18848884491E+04  0.92075205842E+02 0.  0.
         13    1    3    3    0    0  0.11793580907E+04  0.25906164005E+03 -0.15876778015E+03  0.12178693064E+04  0.00000000000E+00 0.  1.
        -13    1    3    3    0    0  0.63991687927E+03  0.11475340819E+03 -0.14917298535E+03  0.66701914262E+03  0.00000000000E+00 0. -1.
         22    1    1    2    0    0 -0.18192749700E+04 -0.37381504824E+03 -0.88086744364E+02  0.18593704261E+04  0.00000000000E+00 0.  1.
<mgrwt>
<rscale>  0 0.37232562E+04</rscale>
<asrwt>0</asrwt>
<pdfrwt beam="1">  1        2 0.25755626E+00 0.37232562E+04</pdfrwt>
<pdfrwt beam="2">  1       -2 0.31848357E+00 0.37232562E+04</pdfrwt>
<totfact> 0.20010265E-01</totfact>
</mgrwt>
</event>
<event>
 6    1  0.1885829E-005  0.4260075E+04  0.7818608E-02  0.7954042E-01
          2   -1    0    0  501    0  0.00000000000E+00  0.00000000000E+00  0.25933034203E+04  0.25933034203E+04  0.00000000000E+00 0. -1.
         -2   -1    0    0    0  501 -0.00000000000E+00 -0.00000000000E+00 -0.17495291610E+04  0.17495291610E+04  0.00000000000E+00 0.  1.
         23    2    1    2    0    0 -0.20649634999E+04 -0.51683156853E+03  0.46519058454E+03  0.21807699724E+04  0.90367397511E+02 0.  0.
         11    1    3    3    0    0 -0.64090977355E+03 -0.13480956526E+03  0.17747960802E+03  0.67855579578E+03  0.00000000000E+00 0. -1.
        -11    1    3    3    0    0 -0.14240537263E+04 -0.38202200327E+03  0.28771097652E+03  0.15022141766E+04  0.00000000000E+00 0.  1.
         22    1    1    2    0    0  0.20649634999E+04  0.51683156853E+03  0.37858367476E+03  0.21620626089E+04  0.00000000000E+00 0. -1.
<mgrwt>
<rscale>  0 0.42600751E+04</rscale>
<asrwt>0</asrwt>
<pdfrwt beam="1">  1        2 0.39896976E+00 0.42600751E+04</pdfrwt>
<pdfrwt beam="2">  1       -2 0.26915833E+00 0.42600751E+04</pdfrwt>
<totfact> 0.11634458E-01</totfact>
</mgrwt>
</event>
<event>
 6    1  0.1885829E-005  0.1351552E+04  0.7818608E-02  0.8989654E-01
          2   -1    0    0  501    0  0.00000000000E+00  0.00000000000E+00  0.39253393256E+03  0.39253393256E+03  0.00000000000E+00 0.  1.
         -2   -1    0    0    0  501 -0.00000000000E+00 -0.00000000000E+00 -0.11633978219E+04  0.11633978219E+04  0.00000000000E+00 0. -1.
         23    2    1    2    0    0 -0.17231703143E+03  0.55862815021E+03 -0.76973023641E+03  0.97132944969E+03  0.96112920337E+02 0.  0.
         13    1    3    3    0    0 -0.84552166870E+02  0.16877032111E+03 -0.19573173209E+03  0.27192535953E+03  0.00000000000E+00 0. -1.
        -13    1    3    3    0    0 -0.87764864560E+02  0.38985782910E+03 -0.57399850432E+03  0.69940409015E+03  0.00000000000E+00 0.  1.
         22    1    1    2    0    0  0.17231703143E+03 -0.55862815021E+03 -0.11336528839E+01  0.58460230473E+03  0.00000000000E+00 0.  1.
<mgrwt>
<rscale>  0 0.13515519E+04</rscale>
<asrwt>0</asrwt>
<pdfrwt beam="1">  1        2 0.60389834E-01 0.13515519E+04</pdfrwt>
<pdfrwt beam="2">  1       -2 0.17898429E+00 0.13515519E+04</pdfrwt>
<totfact> 0.14603065E+01</totfact>
</mgrwt>
</event>
<event>
 6    1  0.1885829E-005  0.2164070E+04  0.7818608E-02  0.8533533E-01
          4   -1    0    0  501    0  0.00000000000E+00  0.00000000000E+00  0.80421327564E+03  0.80421327564E+03  0.00000000000E+00 0. -1.
         -4   -1    0    0    0  501 -0.00000000000E+00 -0.00000000000E+00 -0.14558325692E+04  0.14558325692E+04  0.00000000000E+00 0.  1.
         23    2    1    2    0    0  0.77299695939E+03  0.50587652271E+03  0.25829007202E+03  0.96336916617E+03  0.89056350492E+02 0.  0.
         13    1    3    3    0    0  0.51048614869E+03  0.28348840714E+03  0.17036158913E+03  0.60826380464E+03  0.00000000000E+00 0. -1.
        -13    1    3    3    0    0  0.26251081070E+03  0.22238811557E+03  0.87928482889E+02  0.35510536153E+03  0.00000000000E+00 0.  1.
         22    1    1    2    0    0 -0.77299695939E+03 -0.50587652271E+03 -0.90990936556E+03  0.12966766787E+04  0.00000000000E+00 0.  1.
<mgrwt>
<rscale>  0 0.21640701E+04</rscale>
<asrwt>0</asrwt>
<pdfrwt beam="1">  1        4 0.12372512E+00 0.21640701E+04</pdfrwt>
<pdfrwt beam="2">  1       -4 0.22397424E+00 0.21640701E+04</pdfrwt>
<totfact> 0.82685935E-02</totfact>
</mgrwt>
</event>
<event>
 6    1  0.1885829E-005  0.2304111E+04  0.7818608E-02  0.8476302E-01
          2   -1    0    0  501    0  0.00000000000E+00  0.00000000000E+00  0.15465107241E+04  0.15465107241E+04  0.00000000000E+00 0. -1.
         -2   -1    0    0    0  501 -0.00000000000E+00 -0.00000000000E+00 -0.85821039631E+03  0.85821039631E+03  0.00000000000E+00 0.  1.
         23    2    1    2    0    0 -0.96480223960E+03 -0.49013173961E+03  0.75157435252E+03  0.13207118557E+04  0.91341747403E+02 0.  0.
         13    1    3    3    0    0 -0.70880661745E+03 -0.36863579489E+03  0.50558571996E+03  0.94547135886E+03  0.00000000000E+00 0. -1.
        -13    1    3    3    0    0 -0.25599562216E+03 -0.12149594472E+03  0.24598863256E+03  0.37524049688E+03  0.00000000000E+00 0.  1.
         22    1    1    2    0    0  0.96480223960E+03  0.49013173961E+03 -0.63274024714E+02  0.10840092647E+04  0.00000000000E+00 0.  1.
<mgrwt>
<rscale>  0 0.23041107E+04</rscale>
<asrwt>0</asrwt>
<pdfrwt beam="1">  1        2 0.23792473E+00 0.23041107E+04</pdfrwt>
<pdfrwt beam="2">  1       -2 0.13203237E+00 0.23041107E+04</pdfrwt>
<totfact> 0.45227532E+00</totfact>
</mgrwt>
</event>
<event>
 6    1  0.1885829E-005  0.1542292E+04  0.7818608E-02  0.8856806E-01
         -2   -1    0    0    0  501 -0.00000000000E+00  0.00000000000E+00  0.30412085646E+03  0.30412085646E+03  0.00000000000E+00 0.  1.
          2   -1    0    0  501    0  0.00000000000E+00 -0.00000000000E+00 -0.19553621050E+04  0.19553621050E+04  0.00000000000E+00 0. -1.
         23    2    1    2    0    0 -0.49296439214E+03  0.53849170178E+03 -0.11747585911E+04  0.13876900230E+04  0.11242174024E+03 0.  0.
         11    1    3    3    0    0 -0.23772798979E+03  0.31763323587E+03 -0.70952044761E+03  0.81291127144E+03  0.00000000000E+00 0.  1.
        -11    1    3    3    0    0 -0.25523640235E+03  0.22085846591E+03 -0.46523814348E+03  0.57477875152E+03  0.00000000000E+00 0. -1.
         22    1    1    2    0    0  0.49296439214E+03 -0.53849170178E+03 -0.47648265749E+03  0.87179293854E+03  0.00000000000E+00 0.  1.
<mgrwt>
<rscale>  0 0.15422923E+04</rscale>
<asrwt>0</asrwt>
<pdfrwt beam="1">  1        2 0.30082493E+00 0.15422923E+04</pdfrwt>
<pdfrwt beam="2">  1       -2 0.46787825E-01 0.15422923E+04</pdfrwt>
<totfact> 0.29511048E+01</totfact>
</mgrwt>
</event>
<event>
 6    1  0.1885829E-005  0.2466212E+04  0.7818608E-02  0.8415122E-01
         -2   -1    0    0    0  501 -0.00000000000E+00  0.00000000000E+00  0.64116628235E+03  0.64116628235E+03  0.00000000000E+00 0.  1.
          2   -1    0    0  501    0  0.00000000000E+00 -0.00000000000E+00 -0.23715388381E+04  0.23715388381E+04  0.00000000000E+00 0. -1.
         23    2    1    2    0    0  0.80825015177E+03  0.19531906875E+03 -0.19758290123E+04  0.21457179703E+04  0.93741536225E+02 0.  0.
         13    1    3    3    0    0  0.34011966663E+03  0.10036143631E+03 -0.73351059455E+03  0.81473406572E+03  0.00000000000E+00 0. -1.
        -13    1    3    3    0    0  0.46813048514E+03  0.94957632438E+02 -0.12423184177E+04  0.13309839045E+04  0.00000000000E+00 0.  1.
         22    1    1    2    0    0 -0.80825015177E+03 -0.19531906875E+03  0.24545645658E+03  0.86698715016E+03  0.00000000000E+00 0.  1.
<mgrwt>
<rscale>  0 0.24662123E+04</rscale>
<asrwt>0</asrwt>
<pdfrwt beam="1">  1        2 0.36485212E+00 0.24662123E+04</pdfrwt>
<pdfrwt beam="2">  1       -2 0.98640968E-01 0.24662123E+04</pdfrwt>
<totfact> 0.31489830E+00</totfact>
</mgrwt>
</event>
<event>
 6    1  0.1885829E-005  0.4933974E+04  0.7818608E-02  0.7838774E-01
         -2   -1    0    0    0  501 -0.00000000000E+00  0.00000000000E+00  0.24288684727E+04  0.24288684727E+04  0.00000000000E+00 0.  1.
          2   -1    0    0  501    0  0.00000000000E+00 -0.00000000000E+00 -0.25057034529E+04  0.25057034529E+04  0.00000000000E+00 0. -1.
         23    2    1    2    0    0 -0.14515057465E+04 -0.10557906926E+04  0.16530140870E+04  0.24417942151E+04  0.91326330086E+02 0.  0.
         11    1    3    3    0    0 -0.66318930048E+03 -0.53834214742E+03  0.79341863080E+03  0.11658239317E+04  0.00000000000E+00 0. -1.
        -11    1    3    3    0    0 -0.78831644598E+03 -0.51744854518E+03  0.85959545619E+03  0.12759702834E+04  0.00000000000E+00 0.  1.
         22    1    1    2    0    0  0.14515057465E+04  0.10557906926E+04 -0.17298490672E+04  0.24927777105E+04  0.00000000000E+00 0. -1.
<mgrwt>
<rscale>  0 0.49339737E+04</rscale>
<asrwt>0</asrwt>
<pdfrwt beam="1">  1        2 0.38549284E+00 0.49339737E+04</pdfrwt>
<pdfrwt beam="2">  1       -2 0.37367207E+00 0.49339737E+04</pdfrwt>
<totfact> 0.27810782E-02</totfact>
</mgrwt>
</event>
<event>
 6    1  0.1885829E-005  0.6946351E+03  0.7818608E-02  0.9726451E-01
          2   -1    0    0  501    0  0.00000000000E+00  0.00000000000E+00  0.67908822659E+03  0.67908822659E+03  0.00000000000E+00 0. -1.
         -2   -1    0    0    0  501 -0.00000000000E+00 -0.00000000000E+00 -0.17763446295E+03  0.17763446295E+03  0.00000000000E+00 0.  1.
         23    2    1    2    0    0  0.24466351238E+03  0.10636989016E+03 -0.75065506059E+01  0.28207898314E+03  0.91309455177E+02 0.  0.
         11    1    3    3    0    0  0.17358134189E+03  0.52860300898E+02  0.32818301343E+02  0.18439559259E+03  0.00000000000E+00 0. -1.
        -11    1    3    3    0    0  0.71082170485E+02  0.53509589265E+02 -0.40324851949E+02  0.97683390548E+02  0.00000000000E+00 0.  1.
         22    1    1    2    0    0 -0.24466351238E+03 -0.10636989016E+03  0.50896031424E+03  0.57464370639E+03  0.00000000000E+00 0. -1.
<mgrwt>
<rscale>  0 0.69463508E+03</rscale>
<asrwt>0</asrwt>
<pdfrwt beam="1">  1        2 0.10447511E+00 0.69463508E+03</pdfrwt>
<pdfrwt beam="2">  1       -2 0.27328379E-01 0.69463508E+03</pdfrwt>
<totfact> 0.52182104E+02</totfact>
</mgrwt>
</event>
<event>
 6    1  0.1885829E-005  0.2808174E+04  0.7818608E-02  0.8300735E-01
          2   -1    0    0  501    0  0.00000000000E+00  0.00000000000E+00  0.96564843984E+03  0.96564843984E+03  0.00000000000E+00 0. -1.
         -2   -1    0    0    0  501 -0.00000000000E+00 -0.00000000000E+00 -0.20415928111E+04  0.20415928111E+04  0.00000000000E+00 0.  1.
         23    2    1    2    0    0  0.10010041998E+04  0.91509264497E+03 -0.15550078604E+03  0.13681499324E+04  0.90828333510E+02 0.  0.
         13    1    3    3    0    0  0.17678269816E+03  0.18667117908E+03 -0.60251005806E+02  0.26406142310E+03  0.00000000000E+00 0. -1.
        -13    1    3    3    0    0  0.82422150164E+03  0.72842146589E+03 -0.95249780229E+02  0.11040885093E+04  0.00000000000E+00 0.  1.
         22    1    1    2    0    0 -0.10010041998E+04 -0.91509264497E+03 -0.92044358524E+03  0.16390913185E+04  0.00000000000E+00 0.  1.
<mgrwt>
<rscale>  0 0.28081744E+04</rscale>
<asrwt>0</asrwt>
<pdfrwt beam="1">  1        2 0.14856130E+00 0.28081744E+04</pdfrwt>
<pdfrwt beam="2">  1       -2 0.31409120E+00 0.28081744E+04</pdfrwt>
<totfact> 0.60040620E-01</totfact>
</mgrwt>
</event>
<event>
 6    1  0.1885829E-005  0.9396085E+03  0.7818608E-02  0.9377380E-01
          2   -1    0    0  501    0  0.00000000000E+00  0.00000000000E+00  0.15505950037E+04  0.15505950037E+04  0.00000000000E+00 0. -1.
         -2   -1    0    0    0  501 -0.00000000000E+00 -0.00000000000E+00 -0.14234280176E+03  0.14234280176E+03  0.00000000000E+00 0.  1.
         23    2    1    2    0    0 -0.27742763038E+02 -0.38212500794E+03  0.11872230908E+04  0.12506222501E+04  0.88137179175E+02 0.  0.
         11    1    3    3    0    0 -0.17201362290E+01 -0.20977263220E+03  0.51307076433E+03  0.55430057307E+03  0.00000000000E+00 0.  1.
        -11    1    3    3    0    0 -0.26022626809E+02 -0.17235237573E+03  0.67415232651E+03  0.69632167700E+03  0.00000000000E+00 0. -1.
         22    1    1    2    0    0  0.27742763038E+02  0.38212500794E+03  0.22102911113E+03  0.44231555541E+03  0.00000000000E+00 0.  1.
<mgrwt>
<rscale>  0 0.93960851E+03</rscale>
<asrwt>0</asrwt>
<pdfrwt beam="1">  1        2 0.23855307E+00 0.93960851E+03</pdfrwt>
<pdfrwt beam="2">  1       -2 0.21898894E-01 0.93960851E+03</pdfrwt>
<totfact> 0.21661321E+02</totfact>
</mgrwt>
</event>
<event>
 6    1  0.1885829E-005  0.2649801E+04  0.7818608E-02  0.8351479E-01
          2   -1    0    0  501    0  0.00000000000E+00  0.00000000000E+00  0.21009717855E+04  0.21009717855E+04  0.00000000000E+00 0. -1.
         -2   -1    0    0    0  501 -0.00000000000E+00 -0.00000000000E+00 -0.83549944334E+03  0.83549944334E+03  0.00000000000E+00 0.  1.
         23    2    1    2    0    0  0.20595040771E+03  0.61150142553E+02  0.20805248878E+04  0.20935800362E+04  0.91316203789E+02 0.  0.
         11    1    3    3    0    0  0.11601916913E+03 -0.11052625737E+02  0.92464448367E+03  0.93196031532E+03  0.00000000000E+00 0. -1.
        -11    1    3    3    0    0  0.89931238583E+02  0.72202768290E+02  0.11558804041E+04  0.11616197209E+04  0.00000000000E+00 0.  1.
         22    1    1    2    0    0 -0.20595040771E+03 -0.61150142553E+02 -0.81505254564E+03  0.84289119258E+03  0.00000000000E+00 0.  1.
<mgrwt>
<rscale>  0 0.26498006E+04</rscale>
<asrwt>0</asrwt>
<pdfrwt beam="1">  1        2 0.32322643E+00 0.26498006E+04</pdfrwt>
<pdfrwt beam="2">  1       -2 0.12853838E+00 0.26498006E+04</pdfrwt>
<totfact> 0.23103703E+00</totfact>
</mgrwt>
</event>
<event>
 6    1  0.1885829E-005  0.1537306E+04  0.7818608E-02  0.8860017E-01
          2   -1    0    0  501    0  0.00000000000E+00  0.00000000000E+00  0.20832394448E+04  0.20832394448E+04  0.00000000000E+00 0.  1.
         -2   -1    0    0    0  501 -0.00000000000E+00 -0.00000000000E+00 -0.28361005343E+03  0.28361005343E+03  0.00000000000E+00 0. -1.
         23    2    1    2    0    0 -0.62452974587E+03  0.93027355021E+01  0.22044447213E+03  0.66863015034E+03  0.91359555009E+02 0.  0.
         11    1    3    3    0    0 -0.11988743925E+03  0.29125025947E+01  0.82084947761E+02  0.14532521946E+03  0.00000000000E+00 0.  1.
        -11    1    3    3    0    0 -0.50464230661E+03  0.63902329074E+01  0.13835952437E+03  0.52330493088E+03  0.00000000000E+00 0. -1.
         22    1    1    2    0    0  0.62452974587E+03 -0.93027355021E+01  0.15791849192E+04  0.16982193478E+04  0.00000000000E+00 0.  1.
<mgrwt>
<rscale>  0 0.15373063E+04</rscale>
<asrwt>0</asrwt>
<pdfrwt beam="1">  1        2 0.32049837E+00 0.15373063E+04</pdfrwt>
<pdfrwt beam="2">  1       -2 0.43632317E-01 0.15373063E+04</pdfrwt>
<totfact> 0.28829312E+01</totfact>
</mgrwt>
</event>
<event>
 6    1  0.1885829E-005  0.2760338E+04  0.7818608E-02  0.8315689E-01
         -2   -1    0    0    0  501 -0.00000000000E+00  0.00000000000E+00  0.58077382745E+03  0.58077382745E+03  0.00000000000E+00 0.  1.
          2   -1    0    0  501    0  0.00000000000E+00 -0.00000000000E+00 -0.32798763840E+04  0.32798763840E+04  0.00000000000E+00 0. -1.
         23    2    1    2    0    0  0.48130409669E+03 -0.11912587311E+04 -0.20502915651E+04  0.24213077572E+04  0.91020630928E+02 0.  0.
         11    1    3    3    0    0  0.44909096612E+03 -0.10661979233E+04 -0.18822818395E+04  0.22093993824E+04  0.00000000000E+00 0. -1.
        -11    1    3    3    0    0  0.32213130565E+02 -0.12506080781E+03 -0.16800972563E+03  0.21190837486E+03  0.00000000000E+00 0.  1.
         22    1    1    2    0    0 -0.48130409669E+03  0.11912587311E+04 -0.64881099143E+03  0.14393424542E+04  0.00000000000E+00 0.  1.
<mgrwt>
<rscale>  0 0.27603379E+04</rscale>
<asrwt>0</asrwt>
<pdfrwt beam="1">  1        2 0.50459636E+00 0.27603379E+04</pdfrwt>
<pdfrwt beam="2">  1       -2 0.89349820E-01 0.27603379E+04</pdfrwt>
<totfact> 0.10774479E+00</totfact>
</mgrwt>
</event>
<event>
 6    1  0.1885829E-005  0.5420939E+04  0.7818608E-02  0.7766663E-01
          2   -1    0    0  501    0  0.00000000000E+00  0.00000000000E+00  0.24998594162E+04  0.24998594162E+04  0.00000000000E+00 0. -1.
         -2   -1    0    0    0  501 -0.00000000000E+00 -0.00000000000E+00 -0.29388236853E+04  0.29388236853E+04  0.00000000000E+00 0.  1.
         23    2    1    2    0    0  0.25100704727E+04  0.81046900758E+03  0.40309005532E+03  0.26698621836E+04  0.91480581370E+02 0.  0.
         11    1    3    3    0    0  0.87175670688E+03  0.23590497269E+03  0.13956509762E+03  0.91383222125E+03  0.00000000000E+00 0.  1.
        -11    1    3    3    0    0  0.16383137658E+04  0.57456403489E+03  0.26352495770E+03  0.17560299624E+04  0.00000000000E+00 0. -1.
         22    1    1    2    0    0 -0.25100704727E+04 -0.81046900758E+03 -0.84205432447E+03  0.27688209179E+04  0.00000000000E+00 0.  1.
<mgrwt>
<rscale>  0 0.54209394E+04</rscale>
<asrwt>0</asrwt>
<pdfrwt beam="1">  1        2 0.38459376E+00 0.54209394E+04</pdfrwt>
<pdfrwt beam="2">  1       -2 0.45212672E+00 0.54209394E+04</pdfrwt>
<totfact> 0.82713638E-03</totfact>
</mgrwt>
</event>
<event>
 6    1  0.1885829E-005  0.2211175E+04  0.7818608E-02  0.8513791E-01
         -2   -1    0    0    0  501 -0.00000000000E+00  0.00000000000E+00  0.60276914245E+03  0.60276914245E+03  0.00000000000E+00 0.  1.
          2   -1    0    0  501    0  0.00000000000E+00 -0.00000000000E+00 -0.20278473193E+04  0.20278473193E+04  0.00000000000E+00 0. -1.
         23    2    1    2    0    0 -0.21959745388E+03  0.34494581130E+03 -0.19333658782E+04  0.19782614650E+04  0.91674152866E+02 0.  0.
         11    1    3    3    0    0 -0.13407310816E+03  0.28196659183E+03 -0.14885402122E+04  0.15209315305E+04  0.00000000000E+00 0. -1.
        -11    1    3    3    0    0 -0.85524345719E+02  0.62979219470E+02 -0.44482566603E+03  0.45732993447E+03  0.00000000000E+00 0.  1.
         22    1    1    2    0    0  0.21959745388E+03 -0.34494581130E+03  0.50828770135E+03  0.65235499679E+03  0.00000000000E+00 0.  1.
<mgrwt>
<rscale>  0 0.22111751E+04</rscale>
<asrwt>0</asrwt>
<pdfrwt beam="1">  1        2 0.31197651E+00 0.22111751E+04</pdfrwt>
<pdfrwt beam="2">  1       -2 0.92733713E-01 0.22111751E+04</pdfrwt>
<totfact> 0.58043059E+00</totfact>
</mgrwt>
</event>
<event>
 6    1  0.1885829E-005  0.1870572E+04  0.7818608E-02  0.8669645E-01
          1   -1    0    0  501    0  0.00000000000E+00  0.00000000000E+00  0.19803288724E+04  0.19803288724E+04  0.00000000000E+00 0. -1.
         -1   -1    0    0    0  501 -0.00000000000E+00 -0.00000000000E+00 -0.44172435304E+03  0.44172435304E+03  0.00000000000E+00 0.  1.
         23    2    1    2    0    0  0.59567749798E+03 -0.33155368408E+03 -0.53810145035E+02  0.68984538848E+03  0.90728172389E+02 0.  0.
         13    1    3    3    0    0  0.26768369461E+03 -0.10371231089E+03 -0.43487223909E+02  0.29034796785E+03  0.00000000000E+00 0.  1.
        -13    1    3    3    0    0  0.32799380337E+03 -0.22784137319E+03 -0.10322921126E+02  0.39949742063E+03  0.00000000000E+00 0. -1.
         22    1    1    2    0    0 -0.59567749798E+03  0.33155368408E+03  0.15924146644E+04  0.17322078369E+04  0.00000000000E+00 0. -1.
<mgrwt>
<rscale>  0 0.18705716E+04</rscale>
<asrwt>0</asrwt>
<pdfrwt beam="1">  1        1 0.30466598E+00 0.18705716E+04</pdfrwt>
<pdfrwt beam="2">  1       -1 0.67957594E-01 0.18705716E+04</pdfrwt>
<totfact> 0.63192576E+00</totfact>
</mgrwt>
</event>
<event>
 6    1  0.1885829E-005  0.1381630E+04  0.7818608E-02  0.8967224E-01
          2   -1    0    0  501    0  0.00000000000E+00  0.00000000000E+00  0.38954417010E+04  0.38954417010E+04  0.00000000000E+00 0. -1.
         -2   -1    0    0    0  501 -0.00000000000E+00 -0.00000000000E+00 -0.12250867976E+03  0.12250867976E+03  0.00000000000E+00 0.  1.
         23    2    1    2    0    0  0.10075920812E+03 -0.66548323147E+03  0.14799327713E+04  0.16282076131E+04  0.88536288503E+02 0.  0.
         13    1    3    3    0    0  0.92270495237E+02 -0.34062461188E+03  0.72632809999E+03  0.80752181354E+03  0.00000000000E+00 0. -1.
        -13    1    3    3    0    0  0.84887128824E+01 -0.32485861959E+03  0.75360467128E+03  0.82068579952E+03  0.00000000000E+00 0.  1.
         22    1    1    2    0    0 -0.10075920812E+03  0.66548323147E+03  0.22930002500E+04  0.23897427677E+04  0.00000000000E+00 0.  1.
<mgrwt>
<rscale>  0 0.13816301E+04</rscale>
<asrwt>0</asrwt>
<pdfrwt beam="1">  1        2 0.59929863E+00 0.13816301E+04</pdfrwt>
<pdfrwt beam="2">  1       -2 0.18847492E-01 0.13816301E+04</pdfrwt>
<totfact> 0.98377626E+00</totfact>
</mgrwt>
</event>
<event>
 6    1  0.1885829E-005  0.2790690E+04  0.7818608E-02  0.8306165E-01
          2   -1    0    0  501    0  0.00000000000E+00  0.00000000000E+00  0.91673053974E+03  0.91673053974E+03  0.00000000000E+00 0. -1.
         -2   -1    0    0    0  501 -0.00000000000E+00 -0.00000000000E+00 -0.21238384914E+04  0.21238384914E+04  0.00000000000E+00 0.  1.
         23    2    1    2    0    0 -0.30840782208E+03  0.61865600889E+03 -0.19229298962E+04  0.20454551189E+04  0.91523852959E+02 0.  0.
         11    1    3    3    0    0 -0.75225611659E+02  0.23465017434E+03 -0.74922188997E+03  0.78870338998E+03  0.00000000000E+00 0. -1.
        -11    1    3    3    0    0 -0.23318221042E+03  0.38400583455E+03 -0.11737080062E+04  0.12567517289E+04  0.00000000000E+00 0.  1.
         22    1    1    2    0    0  0.30840782208E+03 -0.61865600889E+03  0.71582194454E+03  0.99511391225E+03  0.00000000000E+00 0. -1.
<mgrwt>
<rscale>  0 0.27906900E+04</rscale>
<asrwt>0</asrwt>
<pdfrwt beam="1">  1        2 0.14103547E+00 0.27906900E+04</pdfrwt>
<pdfrwt beam="2">  1       -2 0.32674438E+00 0.27906900E+04</pdfrwt>
<totfact> 0.54107207E-01</totfact>
</mgrwt>
</event>
<event>
 6    1  0.1885829E-005  0.1040691E+04  0.7818608E-02  0.9265008E-01
         -2   -1    0    0    0  501 -0.00000000000E+00  0.00000000000E+00  0.19891420055E+03  0.19891420055E+03  0.00000000000E+00 0.  1.
          2   -1    0    0  501    0  0.00000000000E+00 -0.00000000000E+00 -0.13611861560E+04  0.13611861560E+04  0.00000000000E+00 0. -1.
         23    2    1    2    0    0 -0.58145583260E+02  0.25479405848E+03  0.81528021884E+02  0.28914036320E+03  0.93029082471E+02 0.  0.
         11    1    3    3    0    0  0.17497136259E+02  0.69077223557E+02 -0.34614872061E+01  0.71342795609E+02  0.00000000000E+00 0.  1.
        -11    1    3    3    0    0 -0.75642719519E+02  0.18571683493E+03  0.84989509090E+02  0.21779756759E+03  0.00000000000E+00 0. -1.
         22    1    1    2    0    0  0.58145583260E+02 -0.25479405848E+03 -0.12437999774E+04  0.12709599934E+04  0.00000000000E+00 0. -1.
<mgrwt>
<rscale>  0 0.10406906E+04</rscale>
<asrwt>0</asrwt>
<pdfrwt beam="1">  1        2 0.20941325E+00 0.10406906E+04</pdfrwt>
<pdfrwt beam="2">  1       -2 0.30602186E-01 0.10406906E+04</pdfrwt>
<totfact> 0.14976606E+02</totfact>
</mgrwt>
</event>
<event>
 6    1  0.1885829E-005  0.2341813E+04  0.7818608E-02  0.8461615E-01
          2   -1    0    0  501    0  0.00000000000E+00  0.00000000000E+00  0.33964903536E+04  0.33964903536E+04  0.00000000000E+00 0. -1.
         -2   -1    0    0    0  501 -0.00000000000E+00 -0.00000000000E+00 -0.40365858947E+03  0.40365858947E+03  0.00000000000E+00 0.  1.
         23    2    1    2    0    0 -0.69984347268E+03  0.19778780119E+03  0.29840802935E+04  0.30728405568E+04  0.93343391812E+02 0.  0.
         13    1    3    3    0    0 -0.60053622588E+03  0.14530267626E+03  0.24153946389E+04  0.24931682430E+04  0.00000000000E+00 0.  1.
        -13    1    3    3    0    0 -0.99307246799E+02  0.52485124938E+02  0.56868565462E+03  0.57967231379E+03  0.00000000000E+00 0. -1.
         22    1    1    2    0    0  0.69984347268E+03 -0.19778780119E+03  0.87514706572E+01  0.72730838631E+03  0.00000000000E+00 0.  1.
<mgrwt>
<rscale>  0 0.23418134E+04</rscale>
<asrwt>0</asrwt>
<pdfrwt beam="1">  1        2 0.52253696E+00 0.23418134E+04</pdfrwt>
<pdfrwt beam="2">  1       -2 0.62101324E-01 0.23418134E+04</pdfrwt>
<totfact> 0.20891954E+00</totfact>
</mgrwt>
</event>
<event>
 6    1  0.1885829E-005  0.3699434E+04  0.7818608E-02  0.8068087E-01
         -2   -1    0    0    0  501 -0.00000000000E+00  0.00000000000E+00  0.97888717696E+03  0.97888717696E+03  0.00000000000E+00 0.  1.
          2   -1    0    0  501    0  0.00000000000E+00 -0.00000000000E+00 -0.34952483000E+04  0.34952483000E+04  0.00000000000E+00 0. -1.
         23    2    1    2    0    0 -0.57643027384E+03 -0.13312171958E+03 -0.33770745208E+04  0.34297118053E+04  0.91090591077E+02 0.  0.
         13    1    3    3    0    0 -0.29450250153E+03 -0.11242432616E+03 -0.18603798647E+04  0.18868980348E+04  0.00000000000E+00 0. -1.
        -13    1    3    3    0    0 -0.28192777231E+03 -0.20697393426E+02 -0.15166946561E+04  0.15428137706E+04  0.00000000000E+00 0.  1.
         22    1    1    2    0    0  0.57643027384E+03  0.13312171958E+03  0.86071339775E+03  0.10444236716E+04  0.00000000000E+00 0. -1.
<mgrwt>
<rscale>  0 0.36994344E+04</rscale>
<asrwt>0</asrwt>
<pdfrwt beam="1">  1        2 0.53773051E+00 0.36994344E+04</pdfrwt>
<pdfrwt beam="2">  1       -2 0.15059803E+00 0.36994344E+04</pdfrwt>
<totfact> 0.19601259E-01</totfact>
</mgrwt>
</event>
<event>
 6    1  0.1885829E-005  0.1991094E+04  0.7818608E-02  0.8610796E-01
         -2   -1    0    0    0  501 -0.00000000000E+00  0.00000000000E+00  0.38873375428E+03  0.38873375428E+03  0.00000000000E+00 0.  1.
          2   -1    0    0  501    0  0.00000000000E+00 -0.00000000000E+00 -0.25495966342E+04  0.25495966342E+04  0.00000000000E+00 0. -1.
         23    2    1    2    0    0  0.23707594228E+03 -0.69746210746E+03 -0.99287153153E+02  0.74909470658E+03  0.92879205934E+02 0.  0.
         11    1    3    3    0    0  0.52801225571E+02 -0.20506391930E+03  0.10465526321E+02  0.21201110269E+03  0.00000000000E+00 0.  1.
        -11    1    3    3    0    0  0.18427471671E+03 -0.49239818815E+03 -0.10975267947E+03  0.53708360389E+03  0.00000000000E+00 0. -1.
         22    1    1    2    0    0 -0.23707594228E+03  0.69746210746E+03 -0.20615757268E+04  0.21892356819E+04  0.00000000000E+00 0. -1.
<mgrwt>
<rscale>  0 0.19910944E+04</rscale>
<asrwt>0</asrwt>
<pdfrwt beam="1">  1        2 0.39224565E+00 0.19910944E+04</pdfrwt>
<pdfrwt beam="2">  1       -2 0.59805191E-01 0.19910944E+04</pdfrwt>
<totfact> 0.79031276E+00</totfact>
</mgrwt>
</event>
<event>
 6    1  0.1885829E-005  0.5102436E+04  0.7818608E-02  0.7812897E-01
          2   -1    0    0  501    0  0.00000000000E+00  0.00000000000E+00  0.50659836128E+04  0.50659836128E+04  0.00000000000E+00 0. -1.
         -2   -1    0    0    0  501 -0.00000000000E+00 -0.00000000000E+00 -0.12847877713E+04  0.12847877713E+04  0.00000000000E+00 0.  1.
         23    2    1    2    0    0  0.33869505732E+03 -0.25192418042E+04  0.16323608460E+04  0.30222904321E+04  0.91345031727E+02 0.  0.
         13    1    3    3    0    0  0.24089944282E+03 -0.17541836678E+04  0.10871078057E+04  0.20777382567E+04  0.00000000000E+00 0.  1.
        -13    1    3    3    0    0  0.97795614493E+02 -0.76505813637E+03  0.54525304027E+03  0.94455217545E+03  0.00000000000E+00 0. -1.
         22    1    1    2    0    0 -0.33869505732E+03  0.25192418042E+04  0.21488349954E+04  0.33284809519E+04  0.00000000000E+00 0.  1.
<mgrwt>
<rscale>  0 0.51024362E+04</rscale>
<asrwt>0</asrwt>
<pdfrwt beam="1">  1        2 0.77938208E+00 0.51024362E+04</pdfrwt>
<pdfrwt beam="2">  1       -2 0.19765966E+00 0.51024362E+04</pdfrwt>
<totfact> 0.27549322E-03</totfact>
</mgrwt>
</event>
<event>
 6    1  0.1885829E-005  0.2807768E+04  0.7818608E-02  0.8300861E-01
          2   -1    0    0  501    0  0.00000000000E+00  0.00000000000E+00  0.23271823879E+04  0.23271823879E+04  0.00000000000E+00 0. -1.
         -2   -1    0    0    0  501 -0.00000000000E+00 -0.00000000000E+00 -0.84689960719E+03  0.84689960719E+03  0.00000000000E+00 0.  1.
         23    2    1    2    0    0  0.95012505870E+03 -0.97990705216E+03  0.37705405526E+03  0.14190694371E+04  0.92913123880E+02 0.  0.
         11    1    3    3    0    0  0.71728027216E+03 -0.68668921570E+03  0.29314541395E+03  0.10353585377E+04  0.00000000000E+00 0. -1.
        -11    1    3    3    0    0  0.23284478655E+03 -0.29321783646E+03  0.83908641311E+02  0.38371089941E+03  0.00000000000E+00 0.  1.
         22    1    1    2    0    0 -0.95012505870E+03  0.97990705216E+03  0.11032287254E+04  0.17550125580E+04  0.00000000000E+00 0. -1.
<mgrwt>
<rscale>  0 0.28077677E+04</rscale>
<asrwt>0</asrwt>
<pdfrwt beam="1">  1        2 0.35802806E+00 0.28077677E+04</pdfrwt>
<pdfrwt beam="2">  1       -2 0.13029225E+00 0.28077677E+04</pdfrwt>
<totfact> 0.16427658E+00</totfact>
</mgrwt>
</event>
<event>
 6    1  0.1885829E-005  0.2423643E+04  0.7818608E-02  0.8430705E-01
         -2   -1    0    0    0  501 -0.00000000000E+00  0.00000000000E+00  0.91964130179E+03  0.91964130179E+03  0.00000000000E+00 0.  1.
          2   -1    0    0  501    0  0.00000000000E+00 -0.00000000000E+00 -0.15968305987E+04  0.15968305987E+04  0.00000000000E+00 0. -1.
         23    2    1    2    0    0  0.85287422944E+00  0.21610705557E+03 -0.15754637342E+04  0.15925671698E+04  0.86494078379E+02 0.  0.
         13    1    3    3    0    0  0.12964916003E+02  0.16129284808E+02 -0.36918851534E+03  0.36976803909E+03  0.00000000000E+00 0.  1.
        -13    1    3    3    0    0 -0.12112041773E+02  0.19997777076E+03 -0.12062752189E+04  0.12227991307E+04  0.00000000000E+00 0. -1.
         22    1    1    2    0    0 -0.85287422944E+00 -0.21610705557E+03  0.89827443726E+03  0.92390473075E+03  0.00000000000E+00 0.  1.
<mgrwt>
<rscale>  0 0.24236430E+04</rscale>
<asrwt>0</asrwt>
<pdfrwt beam="1">  1        2 0.24566624E+00 0.24236430E+04</pdfrwt>
<pdfrwt beam="2">  1       -2 0.14148328E+00 0.24236430E+04</pdfrwt>
<totfact> 0.35123011E+00</totfact>
</mgrwt>
</event>
<event>
 6    1  0.1885829E-005  0.2892858E+04  0.7818608E-02  0.8275006E-01
          2   -1    0    0  501    0  0.00000000000E+00  0.00000000000E+00  0.19436865585E+04  0.19436865585E+04  0.00000000000E+00 0. -1.
         -2   -1    0    0    0  501 -0.00000000000E+00 -0.00000000000E+00 -0.10763856082E+04  0.10763856082E+04  0.00000000000E+00 0.  1.
         23    2    1    2    0    0  0.98896042714E+03 -0.21503382701E+03 -0.64270843626E+03  0.12022683762E+04  0.89960219370E+02 0.  0.
         11    1    3    3    0    0  0.49614316865E+03 -0.13993348820E+03 -0.36490449087E+03  0.63158112098E+03  0.00000000000E+00 0. -1.
        -11    1    3    3    0    0  0.49281725849E+03 -0.75100338809E+02 -0.27780394539E+03  0.57068725518E+03  0.00000000000E+00 0.  1.
         22    1    1    2    0    0 -0.98896042714E+03  0.21503382701E+03  0.15100093866E+04  0.18178037905E+04  0.00000000000E+00 0. -1.
<mgrwt>
<rscale>  0 0.28928576E+04</rscale>
<asrwt>0</asrwt>
<pdfrwt beam="1">  1        2 0.29902870E+00 0.28928576E+04</pdfrwt>
<pdfrwt beam="2">  1       -2 0.16559779E+00 0.28928576E+04</pdfrwt>
<totfact> 0.14215659E+00</totfact>
</mgrwt>
</event>
<event>
 6    1  0.1885829E-005  0.1759383E+04  0.7818608E-02  0.8728203E-01
         -2   -1    0    0    0  501 -0.00000000000E+00  0.00000000000E+00  0.10511478741E+04  0.10511478741E+04  0.00000000000E+00 0.  1.
          2   -1    0    0  501    0  0.00000000000E+00 -0.00000000000E+00 -0.73620175899E+03  0.73620175899E+03  0.00000000000E+00 0. -1.
         23    2    1    2    0    0  0.71588815296E+03 -0.47103367563E+03  0.34911087820E+03  0.92971579385E+03  0.90135902502E+02 0.  0.
         11    1    3    3    0    0  0.43668896816E+03 -0.25963762340E+03  0.16563587783E+03  0.53436335430E+03  0.00000000000E+00 0.  1.
        -11    1    3    3    0    0  0.27919918481E+03 -0.21139605223E+03  0.18347500036E+03  0.39535243955E+03  0.00000000000E+00 0. -1.
         22    1    1    2    0    0 -0.71588815296E+03  0.47103367563E+03 -0.34164763113E+02  0.85763383922E+03  0.00000000000E+00 0.  1.
<mgrwt>
<rscale>  0 0.17593827E+04</rscale>
<asrwt>0</asrwt>
<pdfrwt beam="1">  1        2 0.11326181E+00 0.17593827E+04</pdfrwt>
<pdfrwt beam="2">  1       -2 0.16171506E+00 0.17593827E+04</pdfrwt>
<totfact> 0.88959991E+00</totfact>
</mgrwt>
</event>
<event>
 6    1  0.1885829E-005  0.6245853E+04  0.7818608E-02  0.7660645E-01
          2   -1    0    0  501    0  0.00000000000E+00  0.00000000000E+00  0.20770101341E+04  0.20770101341E+04  0.00000000000E+00 0. -1.
         -2   -1    0    0    0  501 -0.00000000000E+00 -0.00000000000E+00 -0.46955324848E+04  0.46955324848E+04  0.00000000000E+00 0.  1.
         23    2    1    2    0    0  0.11258999527E+04  0.13637989710E+04  0.14806058159E+04  0.23081893552E+04  0.89141351407E+02 0.  0.
         11    1    3    3    0    0  0.13107504356E+03  0.12354404846E+03  0.17054979270E+03  0.24805449149E+03  0.00000000000E+00 0.  1.
        -11    1    3    3    0    0  0.99482490910E+03  0.12402549226E+04  0.13100560232E+04  0.20601348637E+04  0.00000000000E+00 0. -1.
         22    1    1    2    0    0 -0.11258999527E+04 -0.13637989710E+04 -0.40991281667E+04  0.44643532637E+04  0.00000000000E+00 0.  1.
<mgrwt>
<rscale>  0 0.62458526E+04</rscale>
<asrwt>0</asrwt>
<pdfrwt beam="1">  1        2 0.31954002E+00 0.62458526E+04</pdfrwt>
<pdfrwt beam="2">  1       -2 0.72238961E+00 0.62458526E+04</pdfrwt>
<totfact> 0.76308699E-04</totfact>
</mgrwt>
</event>
<event>
 6    1  0.1885829E-005  0.3414956E+04  0.7818608E-02  0.8134245E-01
         -2   -1    0    0    0  501 -0.00000000000E+00  0.00000000000E+00  0.16436095348E+04  0.16436095348E+04  0.00000000000E+00 0.  1.
          2   -1    0    0  501    0  0.00000000000E+00 -0.00000000000E+00 -0.17738285853E+04  0.17738285853E+04  0.00000000000E+00 0. -1.
         23    2    1    2    0    0  0.16776204556E+04  0.24720132743E+03 -0.25462952580E+03  0.17171449526E+04  0.90728734758E+02 0.  0.
         11    1    3    3    0    0  0.48067043176E+03  0.42306586199E+02 -0.10246862734E+03  0.49328868910E+03  0.00000000000E+00 0. -1.
        -11    1    3    3    0    0  0.11969500239E+04  0.20489474123E+03 -0.15216089846E+03  0.12238562635E+04  0.00000000000E+00 0.  1.
         22    1    1    2    0    0 -0.16776204556E+04 -0.24720132743E+03  0.12441047533E+03  0.17002931676E+04  0.00000000000E+00 0.  1.
<mgrwt>
<rscale>  0 0.34149563E+04</rscale>
<asrwt>0</asrwt>
<pdfrwt beam="1">  1        2 0.27289670E+00 0.34149563E+04</pdfrwt>
<pdfrwt beam="2">  1       -2 0.25286301E+00 0.34149563E+04</pdfrwt>
<totfact> 0.45559409E-01</totfact>
</mgrwt>
</event>
<event>
 6    1  0.1885829E-005  0.1656943E+04  0.7818608E-02  0.8786310E-01
          2   -1    0    0  501    0  0.00000000000E+00  0.00000000000E+00  0.23378127765E+04  0.23378127765E+04  0.00000000000E+00 0. -1.
         -2   -1    0    0    0  501 -0.00000000000E+00 -0.00000000000E+00 -0.29359265498E+03  0.29359265498E+03  0.00000000000E+00 0.  1.
         23    2    1    2    0    0  0.48936535543E+03  0.66518568620E+03  0.10488248473E+04  0.13380523474E+04  0.91651927206E+02 0.  0.
         11    1    3    3    0    0  0.74068728602E+02  0.15353280004E+03  0.24827606171E+03  0.30116357693E+03  0.00000000000E+00 0.  1.
        -11    1    3    3    0    0  0.41529662683E+03  0.51165288616E+03  0.80054878563E+03  0.10368887705E+04  0.00000000000E+00 0. -1.
         22    1    1    2    0    0 -0.48936535543E+03 -0.66518568620E+03  0.99539527418E+03  0.12933530841E+04  0.00000000000E+00 0. -1.
<mgrwt>
<rscale>  0 0.16569426E+04</rscale>
<asrwt>0</asrwt>
<pdfrwt beam="1">  1        2 0.35966349E+00 0.16569426E+04</pdfrwt>
<pdfrwt beam="2">  1       -2 0.45168102E-01 0.16569426E+04</pdfrwt>
<totfact> 0.19169045E+01</totfact>
</mgrwt>
</event>
<event>
 6    1  0.1885829E-005  0.1471816E+04  0.7818608E-02  0.8903415E-01
          2   -1    0    0  501    0  0.00000000000E+00  0.00000000000E+00  0.20770229986E+04  0.20770229986E+04  0.00000000000E+00 0. -1.
         -2   -1    0    0    0  501 -0.00000000000E+00 -0.00000000000E+00 -0.26073870732E+03  0.26073870732E+03  0.00000000000E+00 0.  1.
         23    2    1    2    0    0 -0.43580427373E+03 -0.15766895934E+03  0.18138991084E+04  0.18743066867E+04  0.89502596341E+02 0.  0.
         13    1    3    3    0    0 -0.31424852546E+03 -0.14753994248E+03  0.12462246577E+04  0.12936754105E+04  0.00000000000E+00 0. -1.
        -13    1    3    3    0    0 -0.12155574827E+03 -0.10129016868E+02  0.56767445065E+03  0.58063127615E+03  0.00000000000E+00 0.  1.
         22    1    1    2    0    0  0.43580427373E+03  0.15766895934E+03  0.23851829200E+01  0.46345501922E+03  0.00000000000E+00 0.  1.
<mgrwt>
<rscale>  0 0.14718156E+04</rscale>
<asrwt>0</asrwt>
<pdfrwt beam="1">  1        2 0.31954199E+00 0.14718156E+04</pdfrwt>
<pdfrwt beam="2">  1       -2 0.40113649E-01 0.14718156E+04</pdfrwt>
<totfact> 0.34488444E+01</totfact>
</mgrwt>
</event>
<event>
 6    1  0.1885829E-005  0.3314360E+04  0.7818608E-02  0.8159251E-01
         -2   -1    0    0    0  501 -0.00000000000E+00  0.00000000000E+00  0.30115678598E+04  0.30115678598E+04  0.00000000000E+00 0.  1.
          2   -1    0    0  501    0  0.00000000000E+00 -0.00000000000E+00 -0.91189905149E+03  0.91189905149E+03  0.00000000000E+00 0. -1.
         23    2    1    2    0    0  0.28637618795E+03 -0.10465850984E+04 -0.43028421553E+03  0.11706476306E+04  0.88992581982E+02 0.  0.
         11    1    3    3    0    0  0.45307454028E+02 -0.97174833215E+02 -0.63998431688E+02  0.12486597959E+03  0.00000000000E+00 0.  1.
        -11    1    3    3    0    0  0.24106873392E+03 -0.94941026521E+03 -0.36628578384E+03  0.10457816510E+04  0.00000000000E+00 0. -1.
         22    1    1    2    0    0 -0.28637618795E+03  0.10465850984E+04  0.25299530238E+04  0.27528192807E+04  0.00000000000E+00 0.  1.
<mgrwt>
<rscale>  0 0.33143602E+04</rscale>
<asrwt>0</asrwt>
<pdfrwt beam="1">  1        2 0.14029216E+00 0.33143602E+04</pdfrwt>
<pdfrwt beam="2">  1       -2 0.46331813E+00 0.33143602E+04</pdfrwt>
<totfact> 0.67989657E-02</totfact>
</mgrwt>
</event>
<event>
 6    1  0.1885829E-005  0.1563881E+04  0.7818608E-02  0.8843049E-01
          1   -1    0    0  501    0  0.00000000000E+00  0.00000000000E+00  0.13494129951E+04  0.13494129951E+04  0.00000000000E+00 0. -1.
         -1   -1    0    0    0  501 -0.00000000000E+00 -0.00000000000E+00 -0.45310908151E+03  0.45310908151E+03  0.00000000000E+00 0.  1.
         23    2    1    2    0    0  0.19041465337E+01 -0.22713955894E+03 -0.40951004146E+03  0.47709909123E+03  0.91263704628E+02 0.  0.
         11    1    3    3    0    0 -0.57280309557E+01 -0.57494050103E+02 -0.19572707948E+03  0.20407710743E+03  0.00000000000E+00 0.  1.
        -11    1    3    3    0    0  0.76321774893E+01 -0.16964550884E+03 -0.21378296198E+03  0.27302198379E+03  0.00000000000E+00 0. -1.
         22    1    1    2    0    0 -0.19041465337E+01  0.22713955894E+03  0.13058139551E+04  0.13254229854E+04  0.00000000000E+00 0. -1.
<mgrwt>
<rscale>  0 0.15638814E+04</rscale>
<asrwt>0</asrwt>
<pdfrwt beam="1">  1        1 0.20760200E+00 0.15638814E+04</pdfrwt>
<pdfrwt beam="2">  1       -1 0.69709090E-01 0.15638814E+04</pdfrwt>
<totfact> 0.16704803E+01</totfact>
</mgrwt>
</event>
<event>
 6    1  0.1885829E-005  0.2312244E+04  0.7818608E-02  0.8473109E-01
         -1   -1    0    0    0  501 -0.00000000000E+00  0.00000000000E+00  0.70224028946E+03  0.70224028946E+03  0.00000000000E+00 0.  1.
          1   -1    0    0  501    0  0.00000000000E+00 -0.00000000000E+00 -0.19033635117E+04  0.19033635117E+04  0.00000000000E+00 0. -1.
         23    2    1    2    0    0  0.70019188128E+03  0.90757778422E+03 -0.75528510685E+03  0.13756697663E+04  0.89697313951E+02 0.  0.
         13    1    3    3    0    0  0.31610220861E+03  0.39148523756E+03 -0.38330233386E+03  0.63253614652E+03  0.00000000000E+00 0.  1.
        -13    1    3    3    0    0  0.38408967268E+03  0.51609254666E+03 -0.37198277299E+03  0.74313361973E+03  0.00000000000E+00 0. -1.
         22    1    1    2    0    0 -0.70019188128E+03 -0.90757778422E+03 -0.44583811535E+03  0.12299340349E+04  0.00000000000E+00 0.  1.
<mgrwt>
<rscale>  0 0.23122444E+04</rscale>
<asrwt>0</asrwt>
<pdfrwt beam="1">  1        1 0.29282516E+00 0.23122444E+04</pdfrwt>
<pdfrwt beam="2">  1       -1 0.10803697E+00 0.23122444E+04</pdfrwt>
<totfact> 0.24916415E+00</totfact>
</mgrwt>
</event>
<event>
 6    1  0.1885829E-005  0.7903536E+03  0.7818608E-02  0.9574086E-01
         -2   -1    0    0    0  501 -0.00000000000E+00  0.00000000000E+00  0.22600431583E+03  0.22600431583E+03  0.00000000000E+00 0.  1.
          2   -1    0    0  501    0  0.00000000000E+00 -0.00000000000E+00 -0.69098108586E+03  0.69098108586E+03  0.00000000000E+00 0. -1.
         23    2    1    2    0    0 -0.30726287014E+03  0.19610756053E+03 -0.39761572601E+03  0.54630203693E+03  0.86481230963E+02 0.  0.
         11    1    3    3    0    0 -0.12431281991E+03  0.12106445130E+03 -0.14962300548E+03  0.22912294152E+03  0.00000000000E+00 0.  1.
        -11    1    3    3    0    0 -0.18295005024E+03  0.75043109233E+02 -0.24799272053E+03  0.31717909540E+03  0.00000000000E+00 0. -1.
         22    1    1    2    0    0  0.30726287014E+03 -0.19610756053E+03 -0.67361044018E+02  0.37068336477E+03  0.00000000000E+00 0.  1.
<mgrwt>
<rscale>  0 0.79035361E+03</rscale>
<asrwt>0</asrwt>
<pdfrwt beam="1">  1        2 0.10630478E+00 0.79035361E+03</pdfrwt>
<pdfrwt beam="2">  1       -2 0.34769895E-01 0.79035361E+03</pdfrwt>
<totfact> 0.32486712E+02</totfact>
</mgrwt>
</event>
<event>
 6    1  0.1885829E-005  0.5123162E+04  0.7818608E-02  0.7809784E-01
         -2   -1    0    0    0  501 -0.00000000000E+00  0.00000000000E+00  0.32438547841E+04  0.32438547841E+04  0.00000000000E+00 0.  1.
          2   -1    0    0  501    0  0.00000000000E+00 -0.00000000000E+00 -0.20228082590E+04  0.20228082590E+04  0.00000000000E+00 0. -1.
         23    2    1    2    0    0 -0.33111772064E+03 -0.23608174965E+04  0.15720085932E+04  0.28570422079E+04  0.91547605438E+02 0.  0.
         11    1    3    3    0    0 -0.18889498770E+03 -0.14022031810E+04  0.98582098128E+03  0.17244413832E+04  0.00000000000E+00 0.  1.
        -11    1    3    3    0    0 -0.14222273295E+03 -0.95861431550E+03  0.58618761190E+03  0.11326008246E+04  0.00000000000E+00 0. -1.
         22    1    1    2    0    0  0.33111772064E+03  0.23608174965E+04 -0.35096206809E+03  0.24096208353E+04  0.00000000000E+00 0. -1.
<mgrwt>
<rscale>  0 0.51231616E+04</rscale>
<asrwt>0</asrwt>
<pdfrwt beam="1">  1        2 0.31120127E+00 0.51231616E+04</pdfrwt>
<pdfrwt beam="2">  1       -2 0.49905458E+00 0.51231616E+04</pdfrwt>
<totfact> 0.78792646E-03</totfact>
</mgrwt>
</event>
<event>
 6    1  0.2702947E-005  0.2853080E+04  0.7818608E-02  0.8286976E-01
          2   -1    0    0  501    0  0.00000000000E+00  0.00000000000E+00  0.28859956207E+04  0.28859956207E+04  0.00000000000E+00 0. -1.
         -2   -1    0    0    0  501 -0.00000000000E+00 -0.00000000000E+00 -0.70513472015E+03  0.70513472015E+03  0.00000000000E+00 0.  1.
         23    2    1    2    0    0  0.13748986706E+04  0.60423499862E+02  0.62596472930E+03  0.15146671321E+04  0.91582339526E+02 0.  0.
         11    1    3    3    0    0  0.57025871255E+03  0.19048010585E+02  0.21063440485E+03  0.60821433595E+03  0.00000000000E+00 0.  1.
        -11    1    3    3    0    0  0.80463995809E+03  0.41375489277E+02  0.41533032445E+03  0.90645279616E+03  0.00000000000E+00 0. -1.
         22    1    1    2    0    0 -0.13748986706E+04 -0.60423499862E+02  0.15548961712E+04  0.20764632087E+04  0.00000000000E+00 0.  1.
<mgrwt>
<rscale>  0 0.28530795E+04</rscale>
<asrwt>0</asrwt>
<pdfrwt beam="1">  1        2 0.44399932E+00 0.28530795E+04</pdfrwt>
<pdfrwt beam="2">  1       -2 0.10848227E+00 0.28530795E+04</pdfrwt>
<totfact> 0.12059053E+00</totfact>
</mgrwt>
</event>
<event>
 6    1  0.1885829E-005  0.1638795E+04  0.7818608E-02  0.8797063E-01
         -2   -1    0    0    0  501 -0.00000000000E+00  0.00000000000E+00  0.78256264225E+03  0.78256264225E+03  0.00000000000E+00 0.  1.
          2   -1    0    0  501    0  0.00000000000E+00 -0.00000000000E+00 -0.85796623462E+03  0.85796623462E+03  0.00000000000E+00 0. -1.
         23    2    1    2    0    0 -0.34568187827E+03 -0.59077626250E+03  0.40844713657E+03  0.80230212879E+03  0.91362405771E+02 0.  0.
         11    1    3    3    0    0 -0.15245997976E+03 -0.33223032486E+03  0.18462514972E+03  0.40952103742E+03  0.00000000000E+00 0. -1.
        -11    1    3    3    0    0 -0.19322189851E+03 -0.25854593764E+03  0.22382198685E+03  0.39278109136E+03  0.00000000000E+00 0.  1.
         22    1    1    2    0    0  0.34568187827E+03  0.59077626250E+03 -0.48385072894E+03  0.83822674808E+03  0.00000000000E+00 0. -1.
<mgrwt>
<rscale>  0 0.16387951E+04</rscale>
<asrwt>0</asrwt>
<pdfrwt beam="1">  1        2 0.13199480E+00 0.16387951E+04</pdfrwt>
<pdfrwt beam="2">  1       -2 0.12039425E+00 0.16387951E+04</pdfrwt>
<totfact> 0.15778652E+01</totfact>
</mgrwt>
</event>
<event>
 6    1  0.1885829E-005  0.3081901E+04  0.7818608E-02  0.8220723E-01
          2   -1    0    0  501    0  0.00000000000E+00  0.00000000000E+00  0.23464342498E+04  0.23464342498E+04  0.00000000000E+00 0. -1.
         -2   -1    0    0    0  501 -0.00000000000E+00 -0.00000000000E+00 -0.10119728266E+04  0.10119728266E+04  0.00000000000E+00 0.  1.
         23    2    1    2    0    0  0.92227663781E+03 -0.65618735605E+03  0.18051870039E+04  0.21325365224E+04  0.88520378713E+02 0.  0.
         11    1    3    3    0    0  0.68356330375E+03 -0.46121698599E+03  0.13754569348E+04  0.16037024905E+04  0.00000000000E+00 0.  1.
        -11    1    3    3    0    0  0.23871333406E+03 -0.19497037007E+03  0.42973006910E+03  0.52883403196E+03  0.00000000000E+00 0. -1.
         22    1    1    2    0    0 -0.92227663781E+03  0.65618735605E+03 -0.47072558064E+03  0.12258705540E+04  0.00000000000E+00 0.  1.
<mgrwt>
<rscale>  0 0.30819005E+04</rscale>
<asrwt>0</asrwt>
<pdfrwt beam="1">  1        2 0.36098988E+00 0.30819005E+04</pdfrwt>
<pdfrwt beam="2">  1       -2 0.15568813E+00 0.30819005E+04</pdfrwt>
<totfact> 0.98387475E-01</totfact>
</mgrwt>
</event>
<event>
 6    1  0.1885829E-005  0.2322554E+04  0.7818608E-02  0.8469081E-01
          2   -1    0    0  501    0  0.00000000000E+00  0.00000000000E+00  0.21432971840E+04  0.21432971840E+04  0.00000000000E+00 0. -1.
         -2   -1    0    0    0  501 -0.00000000000E+00 -0.00000000000E+00 -0.62920060478E+03  0.62920060478E+03  0.00000000000E+00 0.  1.
         23    2    1    2    0    0 -0.72257571360E+03  0.78827813257E+03  0.22257387767E+03  0.10957363374E+04  0.87183220511E+02 0.  0.
         11    1    3    3    0    0 -0.47277627922E+03  0.51338020985E+03  0.10266163812E+03  0.70541906835E+03  0.00000000000E+00 0.  1.
        -11    1    3    3    0    0 -0.24979943438E+03  0.27489792272E+03  0.11991223955E+03  0.39031726906E+03  0.00000000000E+00 0. -1.
         22    1    1    2    0    0  0.72257571360E+03 -0.78827813257E+03  0.12915227016E+04  0.16767614514E+04  0.00000000000E+00 0. -1.
<mgrwt>
<rscale>  0 0.23225537E+04</rscale>
<asrwt>0</asrwt>
<pdfrwt beam="1">  1        2 0.32973802E+00 0.23225537E+04</pdfrwt>
<pdfrwt beam="2">  1       -2 0.96800094E-01 0.23225537E+04</pdfrwt>
<totfact> 0.44844342E+00</totfact>
</mgrwt>
</event>
<event>
 6    1  0.1885829E-005  0.2082675E+04  0.7818608E-02  0.8568914E-01
         -2   -1    0    0    0  501 -0.00000000000E+00  0.00000000000E+00  0.26328560806E+03  0.26328560806E+03  0.00000000000E+00 0.  1.
          2   -1    0    0  501    0  0.00000000000E+00 -0.00000000000E+00 -0.41186613940E+04  0.41186613940E+04  0.00000000000E+00 0. -1.
         23    2    1    2    0    0  0.61285027609E+03  0.70630035858E+03 -0.28859702960E+04  0.30350273083E+04  0.90114125251E+02 0.  0.
         13    1    3    3    0    0  0.44599791737E+03  0.48397022303E+03 -0.21417381133E+04  0.22405765921E+04  0.00000000000E+00 0. -1.
        -13    1    3    3    0    0  0.16685235873E+03  0.22233013555E+03 -0.74423218267E+03  0.79445071622E+03  0.00000000000E+00 0.  1.
         22    1    1    2    0    0 -0.61285027609E+03 -0.70630035858E+03 -0.96940548997E+03  0.13469196938E+04  0.00000000000E+00 0.  1.
<mgrwt>
<rscale>  0 0.20826755E+04</rscale>
<asrwt>0</asrwt>
<pdfrwt beam="1">  1        2 0.63364018E+00 0.20826755E+04</pdfrwt>
<pdfrwt beam="2">  1       -2 0.40505480E-01 0.20826755E+04</pdfrwt>
<totfact> 0.14685592E+00</totfact>
</mgrwt>
</event>
<event>
 6    1  0.1885829E-005  0.2936336E+04  0.7818608E-02  0.8262148E-01
         -1   -1    0    0    0  501 -0.00000000000E+00  0.00000000000E+00  0.27646563403E+04  0.27646563403E+04  0.00000000000E+00 0.  1.
          1   -1    0    0  501    0  0.00000000000E+00 -0.00000000000E+00 -0.77966919522E+03  0.77966919522E+03  0.00000000000E+00 0. -1.
         23    2    1    2    0    0 -0.97262852965E+03  0.27053174317E+03  0.22778518367E+04  0.24931531384E+04  0.89498047934E+02 0.  0.
         13    1    3    3    0    0 -0.24910528917E+03  0.10079894348E+03  0.54439974982E+03  0.60711198284E+03  0.00000000000E+00 0. -1.
        -13    1    3    3    0    0 -0.72352324048E+03  0.16973279969E+03  0.17334520869E+04  0.18860411555E+04  0.00000000000E+00 0.  1.
         22    1    1    2    0    0  0.97262852965E+03 -0.27053174317E+03 -0.29286469170E+03  0.10511723971E+04  0.00000000000E+00 0. -1.
<mgrwt>
<rscale>  0 0.29363361E+04</rscale>
<asrwt>0</asrwt>
<pdfrwt beam="1">  1        1 0.11994911E+00 0.29363361E+04</pdfrwt>
<pdfrwt beam="2">  1       -1 0.42533174E+00 0.29363361E+04</pdfrwt>
<totfact> 0.94358122E-02</totfact>
</mgrwt>
</event>
<event>
 6    1  0.1885829E-005  0.1365098E+04  0.7818608E-02  0.8979477E-01
          2   -1    0    0  501    0  0.00000000000E+00  0.00000000000E+00  0.13813327155E+04  0.13813327155E+04  0.00000000000E+00 0. -1.
         -2   -1    0    0    0  501 -0.00000000000E+00 -0.00000000000E+00 -0.33726359574E+03  0.33726359574E+03  0.00000000000E+00 0.  1.
         23    2    1    2    0    0 -0.64121853715E+03 -0.61438633577E+01  0.24060880924E+03  0.69061409836E+03  0.88635626694E+02 0.  0.
         13    1    3    3    0    0 -0.16416826824E+03 -0.10039899923E+02  0.22333087080E+02  0.16598429644E+03  0.00000000000E+00 0. -1.
        -13    1    3    3    0    0 -0.47705026892E+03  0.38960365658E+01  0.21827572216E+03  0.52462980192E+03  0.00000000000E+00 0.  1.
         22    1    1    2    0    0  0.64121853715E+03  0.61438633577E+01  0.80346031052E+03  0.10279822129E+04  0.00000000000E+00 0.  1.
<mgrwt>
<rscale>  0 0.13650981E+04</rscale>
<asrwt>0</asrwt>
<pdfrwt beam="1">  1        2 0.21251272E+00 0.13650981E+04</pdfrwt>
<pdfrwt beam="2">  1       -2 0.51886708E-01 0.13650981E+04</pdfrwt>
<totfact> 0.50749721E+01</totfact>
</mgrwt>
</event>
<event>
 6    1  0.1885829E-005  0.1667215E+04  0.7818608E-02  0.8780287E-01
         -2   -1    0    0    0  501 -0.00000000000E+00  0.00000000000E+00  0.19125668446E+03  0.19125668446E+03  0.00000000000E+00 0.  1.
          2   -1    0    0  501    0  0.00000000000E+00 -0.00000000000E+00 -0.36333466160E+04  0.36333466160E+04  0.00000000000E+00 0. -1.
         23    2    1    2    0    0 -0.35718220758E+03 -0.69296483843E+03 -0.10654360864E+04  0.13233510349E+04  0.91238755364E+02 0.  0.
         13    1    3    3    0    0 -0.32173687370E+03 -0.55094913910E+03 -0.88526133493E+03  0.10912136367E+04  0.00000000000E+00 0.  1.
        -13    1    3    3    0    0 -0.35445333874E+02 -0.14201569933E+03 -0.18017475150E+03  0.23213739817E+03  0.00000000000E+00 0. -1.
         22    1    1    2    0    0  0.35718220758E+03  0.69296483843E+03 -0.23766538452E+04  0.25012522656E+04  0.00000000000E+00 0. -1.
<mgrwt>
<rscale>  0 0.16672154E+04</rscale>
<asrwt>0</asrwt>
<pdfrwt beam="1">  1        2 0.55897637E+00 0.16672154E+04</pdfrwt>
<pdfrwt beam="2">  1       -2 0.29424107E-01 0.16672154E+04</pdfrwt>
<totfact> 0.67070442E+00</totfact>
</mgrwt>
</event>
<event>
 6    1  0.1885829E-005  0.2652545E+04  0.7818608E-02  0.8350569E-01
         -2   -1    0    0    0  501 -0.00000000000E+00  0.00000000000E+00  0.91084526511E+03  0.91084526511E+03  0.00000000000E+00 0.  1.
          2   -1    0    0  501    0  0.00000000000E+00 -0.00000000000E+00 -0.19311719675E+04  0.19311719675E+04  0.00000000000E+00 0. -1.
         23    2    1    2    0    0  0.50081670255E+03  0.73620351004E+03  0.54007784286E+03  0.10454440160E+04  0.91957253833E+02 0.  0.
         13    1    3    3    0    0  0.34781845732E+03  0.58122936742E+03  0.40646894982E+03  0.78995079845E+03  0.00000000000E+00 0.  1.
        -13    1    3    3    0    0  0.15299824523E+03  0.15497414262E+03  0.13360889304E+03  0.25549321757E+03  0.00000000000E+00 0. -1.
         22    1    1    2    0    0 -0.50081670255E+03 -0.73620351004E+03 -0.15604045453E+04  0.17965732166E+04  0.00000000000E+00 0. -1.
<mgrwt>
<rscale>  0 0.26525451E+04</rscale>
<asrwt>0</asrwt>
<pdfrwt beam="1">  1        2 0.29710338E+00 0.26525451E+04</pdfrwt>
<pdfrwt beam="2">  1       -2 0.14013004E+00 0.26525451E+04</pdfrwt>
<totfact> 0.23027468E+00</totfact>
</mgrwt>
</event>
<event>
 6    1  0.1885829E-005  0.2765785E+04  0.7818608E-02  0.8313970E-01
         -2   -1    0    0    0  501 -0.00000000000E+00  0.00000000000E+00  0.69846710246E+03  0.69846710246E+03  0.00000000000E+00 0.  1.
          2   -1    0    0  501    0  0.00000000000E+00 -0.00000000000E+00 -0.27379843348E+04  0.27379843348E+04  0.00000000000E+00 0. -1.
         23    2    1    2    0    0  0.17405958908E+03  0.95418776768E+03 -0.22428451017E+04  0.24454351615E+04  0.95015483778E+02 0.  0.
         13    1    3    3    0    0  0.33684112463E+02  0.32022865223E+03 -0.65183293651E+03  0.72702626243E+03  0.00000000000E+00 0. -1.
        -13    1    3    3    0    0  0.14037547662E+03  0.63395911545E+03 -0.15910121652E+04  0.17184088990E+04  0.00000000000E+00 0.  1.
         22    1    1    2    0    0 -0.17405958908E+03 -0.95418776768E+03  0.20332786932E+03  0.99101627584E+03  0.00000000000E+00 0.  1.
<mgrwt>
<rscale>  0 0.27657852E+04</rscale>
<asrwt>0</asrwt>
<pdfrwt beam="1">  1        2 0.42122836E+00 0.27657852E+04</pdfrwt>
<pdfrwt beam="2">  1       -2 0.10745648E+00 0.27657852E+04</pdfrwt>
<totfact> 0.15284497E+00</totfact>
</mgrwt>
</event>
<event>
 6    1  0.1885829E-005  0.1939708E+04  0.7818608E-02  0.8635340E-01
          2   -1    0    0  501    0  0.00000000000E+00  0.00000000000E+00  0.68607037341E+03  0.68607037341E+03  0.00000000000E+00 0. -1.
         -2   -1    0    0    0  501 -0.00000000000E+00 -0.00000000000E+00 -0.13710208341E+04  0.13710208341E+04  0.00000000000E+00 0.  1.
         23    2    1    2    0    0  0.94512858627E+03  0.19239082173E+03 -0.42630362723E+03  0.10585019740E+04  0.91702636284E+02 0.  0.
         11    1    3    3    0    0  0.25826906114E+03  0.64547272657E+02 -0.75454707911E+02  0.27669960480E+03  0.00000000000E+00 0. -1.
        -11    1    3    3    0    0  0.68685952513E+03  0.12784354907E+03 -0.35084891932E+03  0.78180236921E+03  0.00000000000E+00 0.  1.
         22    1    1    2    0    0 -0.94512858627E+03 -0.19239082173E+03 -0.25864683350E+03  0.99858923355E+03  0.00000000000E+00 0.  1.
<mgrwt>
<rscale>  0 0.19397080E+04</rscale>
<asrwt>0</asrwt>
<pdfrwt beam="1">  1        2 0.10554929E+00 0.19397080E+04</pdfrwt>
<pdfrwt beam="2">  1       -2 0.21092628E+00 0.19397080E+04</pdfrwt>
<totfact> 0.44288480E+00</totfact>
</mgrwt>
</event>
<event>
 6    1  0.1885829E-005  0.2245648E+04  0.7818608E-02  0.8499665E-01
          2   -1    0    0  501    0  0.00000000000E+00  0.00000000000E+00  0.34722195629E+04  0.34722195629E+04  0.00000000000E+00 0. -1.
         -2   -1    0    0    0  501 -0.00000000000E+00 -0.00000000000E+00 -0.36309171321E+03  0.36309171321E+03  0.00000000000E+00 0.  1.
         23    2    1    2    0    0 -0.58688658382E+02  0.92598548077E+03  0.48414004008E+03  0.10511678765E+04  0.98330345702E+02 0.  0.
         11    1    3    3    0    0 -0.41262435860E+02  0.46244536466E+03  0.29591182634E+03  0.55056526668E+03  0.00000000000E+00 0. -1.
        -11    1    3    3    0    0 -0.17426222521E+02  0.46354011611E+03  0.18822821374E+03  0.50060260978E+03  0.00000000000E+00 0.  1.
         22    1    1    2    0    0  0.58688658382E+02 -0.92598548077E+03  0.26249878096E+04  0.27841433996E+04  0.00000000000E+00 0. -1.
<mgrwt>
<rscale>  0 0.22456484E+04</rscale>
<asrwt>0</asrwt>
<pdfrwt beam="1">  1        2 0.53418760E+00 0.22456484E+04</pdfrwt>
<pdfrwt beam="2">  1       -2 0.55860266E-01 0.22456484E+04</pdfrwt>
<totfact> 0.23370760E+00</totfact>
</mgrwt>
</event>
<event>
 6    1  0.1885829E-005  0.2099622E+04  0.7818608E-02  0.8561410E-01
         -2   -1    0    0    0  501 -0.00000000000E+00  0.00000000000E+00  0.55100329502E+03  0.55100329502E+03  0.00000000000E+00 0. -1.
          2   -1    0    0  501    0  0.00000000000E+00 -0.00000000000E+00 -0.20001750885E+04  0.20001750885E+04  0.00000000000E+00 0.  1.
         23    2    1    2    0    0 -0.67220977631E+03  0.33342312415E+03 -0.16147335602E+04  0.17827724610E+04  0.88748037527E+02 0.  0.
         13    1    3    3    0    0 -0.53396129506E+03  0.24433222409E+03 -0.11816538576E+04  0.13195145848E+04  0.00000000000E+00 0. -1.
        -13    1    3    3    0    0 -0.13824848125E+03  0.89090900057E+02 -0.43307970264E+03  0.46325787622E+03  0.00000000000E+00 0.  1.
         22    1    1    2    0    0  0.67220977631E+03 -0.33342312415E+03  0.16556176676E+03  0.76840592248E+03  0.00000000000E+00 0. -1.
<mgrwt>
<rscale>  0 0.20996219E+04</rscale>
<asrwt>0</asrwt>
<pdfrwt beam="1">  1        2 0.30771925E+00 0.20996219E+04</pdfrwt>
<pdfrwt beam="2">  1       -2 0.84769736E-01 0.20996219E+04</pdfrwt>
<totfact> 0.74625916E+00</totfact>
</mgrwt>
</event>
<event>
 6    1  0.1885829E-005  0.2145100E+04  0.7818608E-02  0.8541633E-01
          2   -1    0    0  501    0  0.00000000000E+00  0.00000000000E+00  0.94499921685E+03  0.94499921685E+03  0.00000000000E+00 0. -1.
         -2   -1    0    0    0  501 -0.00000000000E+00 -0.00000000000E+00 -0.12173164989E+04  0.12173164989E+04  0.00000000000E+00 0.  1.
         23    2    1    2    0    0 -0.89873469857E+03  0.50108467503E+03 -0.43447616722E+03  0.11206317838E+04  0.90753209986E+02 0.  0.
         13    1    3    3    0    0 -0.13018549556E+03  0.74473589365E+02 -0.29683433521E+02  0.15289108866E+03  0.00000000000E+00 0. -1.
        -13    1    3    3    0    0 -0.76854920301E+03  0.42661108566E+03 -0.40479273369E+03  0.96774069518E+03  0.00000000000E+00 0.  1.
         22    1    1    2    0    0  0.89873469857E+03 -0.50108467503E+03  0.16215888517E+03  0.10416839319E+04  0.00000000000E+00 0. -1.
<mgrwt>
<rscale>  0 0.21450997E+04</rscale>
<asrwt>0</asrwt>
<pdfrwt beam="1">  1        2 0.14538449E+00 0.21450997E+04</pdfrwt>
<pdfrwt beam="2">  1       -2 0.18727946E+00 0.21450997E+04</pdfrwt>
<totfact> 0.40600936E+00</totfact>
</mgrwt>
</event>
<event>
 6    1  0.1885829E-005  0.3185162E+04  0.7818608E-02  0.8192747E-01
         -2   -1    0    0    0  501 -0.00000000000E+00  0.00000000000E+00  0.10156750354E+04  0.10156750354E+04  0.00000000000E+00 0.  1.
          2   -1    0    0  501    0  0.00000000000E+00 -0.00000000000E+00 -0.24971706075E+04  0.24971706075E+04  0.00000000000E+00 0. -1.
         23    2    1    2    0    0  0.54870988094E+02  0.15623656174E+04 -0.41417336461E+03  0.16199183220E+04  0.92728887207E+02 0.  0.
         11    1    3    3    0    0  0.14317575646E+02  0.10301056705E+04 -0.31211300867E+03  0.10764465688E+04  0.00000000000E+00 0. -1.
        -11    1    3    3    0    0  0.40553412449E+02  0.53225994688E+03 -0.10206035594E+03  0.54347175323E+03  0.00000000000E+00 0.  1.
         22    1    1    2    0    0 -0.54870988094E+02 -0.15623656174E+04 -0.10673222075E+04  0.18929273209E+04  0.00000000000E+00 0.  1.
<mgrwt>
<rscale>  0 0.31851618E+04</rscale>
<asrwt>0</asrwt>
<pdfrwt beam="1">  1        2 0.38418009E+00 0.31851618E+04</pdfrwt>
<pdfrwt beam="2">  1       -2 0.15625770E+00 0.31851618E+04</pdfrwt>
<totfact> 0.79116009E-01</totfact>
</mgrwt>
</event>
<event>
 6    1  0.1885829E-005  0.1398805E+04  0.7818608E-02  0.8954684E-01
         -2   -1    0    0    0  501 -0.00000000000E+00  0.00000000000E+00  0.37633941710E+03  0.37633941710E+03  0.00000000000E+00 0.  1.
          2   -1    0    0  501    0  0.00000000000E+00 -0.00000000000E+00 -0.12997944396E+04  0.12997944396E+04  0.00000000000E+00 0. -1.
         23    2    1    2    0    0  0.32476534495E+03  0.58957159841E+02 -0.11985001605E+04  0.12464848093E+04  0.91505567630E+02 0.  0.
         13    1    3    3    0    0  0.19693053169E+03  0.45366972776E+01 -0.57881790909E+03  0.61141834109E+03  0.00000000000E+00 0.  1.
        -13    1    3    3    0    0  0.12783481326E+03  0.54420462563E+02 -0.61968225145E+03  0.63506646817E+03  0.00000000000E+00 0. -1.
         22    1    1    2    0    0 -0.32476534495E+03 -0.58957159841E+02  0.27504513807E+03  0.42964904742E+03  0.00000000000E+00 0. -1.
<mgrwt>
<rscale>  0 0.13988050E+04</rscale>
<asrwt>0</asrwt>
<pdfrwt beam="1">  1        2 0.19996837E+00 0.13988050E+04</pdfrwt>
<pdfrwt beam="2">  1       -2 0.57898373E-01 0.13988050E+04</pdfrwt>
<totfact> 0.44939959E+01</totfact>
</mgrwt>
</event>
<event>
 6    1  0.1885829E-005  0.1354149E+04  0.7818608E-02  0.8987693E-01
          2   -1    0    0  501    0  0.00000000000E+00  0.00000000000E+00  0.23354035341E+04  0.23354035341E+04  0.00000000000E+00 0. -1.
         -2   -1    0    0    0  501 -0.00000000000E+00 -0.00000000000E+00 -0.19629575791E+03  0.19629575791E+03  0.00000000000E+00 0.  1.
         23    2    1    2    0    0 -0.58374566311E+03  0.62048547375E+02  0.16936765219E+04  0.17948017254E+04  0.90355138681E+02 0.  0.
         13    1    3    3    0    0 -0.32672256815E+03 -0.30959417356E+01  0.86007818146E+03  0.92004983540E+03  0.00000000000E+00 0.  1.
        -13    1    3    3    0    0 -0.25702309496E+03  0.65144489110E+02  0.83359834047E+03  0.87475188999E+03  0.00000000000E+00 0. -1.
         22    1    1    2    0    0  0.58374566311E+03 -0.62048547375E+02  0.44543125428E+03  0.73689756664E+03  0.00000000000E+00 0.  1.
<mgrwt>
<rscale>  0 0.13541489E+04</rscale>
<asrwt>0</asrwt>
<pdfrwt beam="1">  1        2 0.35929283E+00 0.13541489E+04</pdfrwt>
<pdfrwt beam="2">  1       -2 0.30199349E-01 0.13541489E+04</pdfrwt>
<totfact> 0.42924335E+01</totfact>
</mgrwt>
</event>
<event>
 6    1  0.1885829E-005  0.1738139E+04  0.7818608E-02  0.8739906E-01
          2   -1    0    0  501    0  0.00000000000E+00  0.00000000000E+00  0.46087259123E+03  0.46087259123E+03  0.00000000000E+00 0. -1.
         -2   -1    0    0    0  501 -0.00000000000E+00 -0.00000000000E+00 -0.16388084094E+04  0.16388084094E+04  0.00000000000E+00 0.  1.
         23    2    1    2    0    0  0.60600913088E+03  0.26831831657E+03 -0.12651669351E+04  0.14312118139E+04  0.92076581952E+02 0.  0.
         11    1    3    3    0    0  0.63850042416E+02  0.59785897244E+02 -0.14351105187E+03  0.16806725867E+03  0.00000000000E+00 0. -1.
        -11    1    3    3    0    0  0.54215908846E+03  0.20853241933E+03 -0.11216558832E+04  0.12631445553E+04  0.00000000000E+00 0.  1.
         22    1    1    2    0    0 -0.60600913088E+03 -0.26831831657E+03  0.87231116995E+02  0.66846918664E+03  0.00000000000E+00 0. -1.
<mgrwt>
<rscale>  0 0.17381391E+04</rscale>
<asrwt>0</asrwt>
<pdfrwt beam="1">  1        2 0.70903475E-01 0.17381391E+04</pdfrwt>
<pdfrwt beam="2">  1       -2 0.25212437E+00 0.17381391E+04</pdfrwt>
<totfact> 0.40034636E+00</totfact>
</mgrwt>
</event>
<event>
 6    1  0.1885829E-005  0.3136295E+04  0.7818608E-02  0.8205847E-01
         -2   -1    0    0    0  501 -0.00000000000E+00  0.00000000000E+00  0.79500993542E+03  0.79500993542E+03  0.00000000000E+00 0.  1.
          2   -1    0    0  501    0  0.00000000000E+00 -0.00000000000E+00 -0.30931518736E+04  0.30931518736E+04  0.00000000000E+00 0. -1.
         23    2    1    2    0    0  0.27594088560E+03  0.41965141609E+03 -0.29899883382E+04  0.30332336690E+04  0.90694788662E+02 0.  0.
         13    1    3    3    0    0  0.13152820597E+03  0.25003439159E+03 -0.18803313628E+04  0.19014370617E+04  0.00000000000E+00 0.  1.
        -13    1    3    3    0    0  0.14441267964E+03  0.16961702450E+03 -0.11096569754E+04  0.11317966073E+04  0.00000000000E+00 0. -1.
         22    1    1    2    0    0 -0.27594088560E+03 -0.41965141609E+03  0.69184640003E+03  0.85492814002E+03  0.00000000000E+00 0.  1.
<mgrwt>
<rscale>  0 0.31362949E+04</rscale>
<asrwt>0</asrwt>
<pdfrwt beam="1">  1        2 0.47586952E+00 0.31362949E+04</pdfrwt>
<pdfrwt beam="2">  1       -2 0.12230922E+00 0.31362949E+04</pdfrwt>
<totfact> 0.65104064E-01</totfact>
</mgrwt>
</event>
<event>
 6    1  0.1885829E-005  0.3226826E+04  0.7818608E-02  0.8181768E-01
          2   -1    0    0  501    0  0.00000000000E+00  0.00000000000E+00  0.15509469457E+04  0.15509469457E+04  0.00000000000E+00 0. -1.
         -2   -1    0    0    0  501 -0.00000000000E+00 -0.00000000000E+00 -0.16783950969E+04  0.16783950969E+04  0.00000000000E+00 0.  1.
         23    2    1    2    0    0  0.15919075983E+04  0.51901349174E+02 -0.31239295224E+03  0.16258869821E+04  0.95160761094E+02 0.  0.
         13    1    3    3    0    0  0.12364747955E+04  0.24331346638E+02 -0.27924738403E+03  0.12678489799E+04  0.00000000000E+00 0. -1.
        -13    1    3    3    0    0  0.35543280276E+03  0.27570002536E+02 -0.33145568212E+02  0.35803800219E+03  0.00000000000E+00 0.  1.
         22    1    1    2    0    0 -0.15919075983E+04 -0.51901349174E+02  0.18494480101E+03  0.16034550605E+04  0.00000000000E+00 0. -1.
<mgrwt>
<rscale>  0 0.32268261E+04</rscale>
<asrwt>0</asrwt>
<pdfrwt beam="1">  1        2 0.23860722E+00 0.32268261E+04</pdfrwt>
<pdfrwt beam="2">  1       -2 0.25821463E+00 0.32268261E+04</pdfrwt>
<totfact> 0.57118175E-01</totfact>
</mgrwt>
</event>
<event>
 6    1  0.1885829E-005  0.3862741E+04  0.7818608E-02  0.8032823E-01
         -2   -1    0    0    0  501 -0.00000000000E+00  0.00000000000E+00  0.13632983171E+04  0.13632983171E+04  0.00000000000E+00 0.  1.
          2   -1    0    0  501    0  0.00000000000E+00 -0.00000000000E+00 -0.27361519328E+04  0.27361519328E+04  0.00000000000E+00 0. -1.
         23    2    1    2    0    0  0.19005366560E+03 -0.15625364508E+04 -0.18726441469E+04  0.24479566438E+04  0.89750057546E+02 0.  0.
         11    1    3    3    0    0  0.45722104412E+02 -0.44551797662E+03 -0.59555429424E+03  0.74515883925E+03  0.00000000000E+00 0. -1.
        -11    1    3    3    0    0  0.14433156119E+03 -0.11170184742E+04 -0.12770898527E+04  0.17027978045E+04  0.00000000000E+00 0.  1.
         22    1    1    2    0    0 -0.19005366560E+03  0.15625364508E+04  0.49979053124E+03  0.16514936061E+04  0.00000000000E+00 0.  1.
<mgrwt>
<rscale>  0 0.38627406E+04</rscale>
<asrwt>0</asrwt>
<pdfrwt beam="1">  1        2 0.42094644E+00 0.38627406E+04</pdfrwt>
<pdfrwt beam="2">  1       -2 0.20973821E+00 0.38627406E+04</pdfrwt>
<totfact> 0.23163450E-01</totfact>
</mgrwt>
</event>
<event>
 6    1  0.1885829E-005  0.1035317E+04  0.7818608E-02  0.9270636E-01
          1   -1    0    0  501    0  0.00000000000E+00  0.00000000000E+00  0.20918531227E+04  0.20918531227E+04  0.00000000000E+00 0. -1.
         -1   -1    0    0    0  501 -0.00000000000E+00 -0.00000000000E+00 -0.12810188903E+03  0.12810188903E+03  0.00000000000E+00 0.  1.
         23    2    1    2    0    0  0.13501553468E+03 -0.40854759799E+03  0.15906543744E+04  0.16504450462E+04  0.92990200160E+02 0.  0.
         13    1    3    3    0    0  0.24492169879E+02 -0.21712489438E+03  0.83634760811E+03  0.86441911579E+03  0.00000000000E+00 0. -1.
        -13    1    3    3    0    0  0.11052336480E+03 -0.19142270361E+03  0.75430676627E+03  0.78602593040E+03  0.00000000000E+00 0.  1.
         22    1    1    2    0    0 -0.13501553468E+03  0.40854759799E+03  0.37309685925E+03  0.56950996550E+03  0.00000000000E+00 0.  1.
<mgrwt>
<rscale>  0 0.10353170E+04</rscale>
<asrwt>0</asrwt>
<pdfrwt beam="1">  1        1 0.32182353E+00 0.10353170E+04</pdfrwt>
<pdfrwt beam="2">  1       -1 0.19707984E-01 0.10353170E+04</pdfrwt>
<totfact> 0.54419352E+01</totfact>
</mgrwt>
</event>
<event>
 6    1  0.1885829E-005  0.5190817E+04  0.7818608E-02  0.7799728E-01
         -2   -1    0    0    0  501 -0.00000000000E+00  0.00000000000E+00  0.17386879966E+04  0.17386879966E+04  0.00000000000E+00 0.  1.
          2   -1    0    0  501    0  0.00000000000E+00 -0.00000000000E+00 -0.38742693664E+04  0.38742693664E+04  0.00000000000E+00 0. -1.
         23    2    1    2    0    0  0.57265832897E+03 -0.19073703794E+04  0.73011156732E+03  0.21232302482E+04  0.95102366737E+02 0.  0.
         11    1    3    3    0    0  0.16977343303E+03 -0.52582735329E+03  0.15920099262E+03  0.57503250350E+03  0.00000000000E+00 0. -1.
        -11    1    3    3    0    0  0.40288489594E+03 -0.13815430261E+04  0.57091057470E+03  0.15481977447E+04  0.00000000000E+00 0.  1.
         22    1    1    2    0    0 -0.57265832897E+03  0.19073703794E+04 -0.28656929371E+04  0.34897271148E+04  0.00000000000E+00 0.  1.
<mgrwt>
<rscale>  0 0.51908171E+04</rscale>
<asrwt>0</asrwt>
<pdfrwt beam="1">  1        2 0.59604143E+00 0.51908171E+04</pdfrwt>
<pdfrwt beam="2">  1       -2 0.26749047E+00 0.51908171E+04</pdfrwt>
<totfact> 0.15440858E-02</totfact>
</mgrwt>
</event>
<event>
 6    1  0.1885829E-005  0.3117918E+04  0.7818608E-02  0.8210838E-01
         -2   -1    0    0    0  501 -0.00000000000E+00  0.00000000000E+00  0.92674189051E+03  0.92674189051E+03  0.00000000000E+00 0.  1.
          2   -1    0    0  501    0  0.00000000000E+00 -0.00000000000E+00 -0.26224698999E+04  0.26224698999E+04  0.00000000000E+00 0. -1.
         23    2    1    2    0    0 -0.12741339557E+04  0.57016564308E+02 -0.18672283674E+04  0.22623238394E+04  0.69993946249E+02 0.  0.
         11    1    3    3    0    0 -0.55317382194E+03  0.48180820712E+02 -0.85794546420E+03  0.10219555217E+04  0.00000000000E+00 0.  1.
        -11    1    3    3    0    0 -0.72096013377E+03  0.88357435959E+01 -0.10092829032E+04  0.12403683177E+04  0.00000000000E+00 0. -1.
         22    1    1    2    0    0  0.12741339557E+04 -0.57016564308E+02  0.17150035802E+03  0.12868879510E+04  0.00000000000E+00 0.  1.
<mgrwt>
<rscale>  0 0.31179177E+04</rscale>
<asrwt>0</asrwt>
<pdfrwt beam="1">  1        2 0.40345690E+00 0.31179177E+04</pdfrwt>
<pdfrwt beam="2">  1       -2 0.14257568E+00 0.31179177E+04</pdfrwt>
<totfact> 0.85682702E-01</totfact>
</mgrwt>
</event>
<event>
 6    1  0.1885829E-005  0.6819180E+03  0.7818608E-02  0.9748664E-01
         -2   -1    0    0    0  501 -0.00000000000E+00  0.00000000000E+00  0.27645090259E+03  0.27645090259E+03  0.00000000000E+00 0.  1.
          2   -1    0    0  501    0  0.00000000000E+00 -0.00000000000E+00 -0.42051970730E+03  0.42051970730E+03  0.00000000000E+00 0. -1.
         23    2    1    2    0    0  0.13817412828E+03  0.18132545575E+03  0.17665745997E+03  0.30347810998E+03  0.94446251614E+02 0.  0.
         11    1    3    3    0    0  0.93344637981E+02  0.12388894342E+03  0.60786706066E+02  0.16660346748E+03  0.00000000000E+00 0. -1.
        -11    1    3    3    0    0  0.44829490301E+02  0.57436512330E+02  0.11587075391E+03  0.13687464250E+03  0.00000000000E+00 0.  1.
         22    1    1    2    0    0 -0.13817412828E+03 -0.18132545575E+03 -0.32072626469E+03  0.39349249992E+03  0.00000000000E+00 0. -1.
<mgrwt>
<rscale>  0 0.68191804E+03</rscale>
<asrwt>0</asrwt>
<pdfrwt beam="1">  1        2 0.64695339E-01 0.68191804E+03</pdfrwt>
<pdfrwt beam="2">  1       -2 0.42530909E-01 0.68191804E+03</pdfrwt>
<totfact> 0.39709957E+02</totfact>
</mgrwt>
</event>
<event>
 6    1  0.1885829E-005  0.2785525E+04  0.7818608E-02  0.8307777E-01
         -2   -1    0    0    0  501 -0.00000000000E+00  0.00000000000E+00  0.14694933373E+04  0.14694933373E+04  0.00000000000E+00 0.  1.
          2   -1    0    0  501    0  0.00000000000E+00 -0.00000000000E+00 -0.13200378652E+04  0.13200378652E+04  0.00000000000E+00 0. -1.
         23    2    1    2    0    0 -0.16165899669E+03 -0.13546433590E+04 -0.19842575266E+03  0.13816201230E+04  0.91154395199E+02 0.  0.
         11    1    3    3    0    0 -0.48813938617E+02 -0.17020558126E+03 -0.37374417272E+02  0.18096847118E+03  0.00000000000E+00 0. -1.
        -11    1    3    3    0    0 -0.11284505807E+03 -0.11844377777E+04 -0.16105133539E+03  0.12006516518E+04  0.00000000000E+00 0.  1.
         22    1    1    2    0    0  0.16165899669E+03  0.13546433590E+04  0.34788122481E+03  0.14079110795E+04  0.00000000000E+00 0.  1.
<mgrwt>
<rscale>  0 0.27855246E+04</rscale>
<asrwt>0</asrwt>
<pdfrwt beam="1">  1        2 0.20308275E+00 0.27855246E+04</pdfrwt>
<pdfrwt beam="2">  1       -2 0.22607590E+00 0.27855246E+04</pdfrwt>
<totfact> 0.12686027E+00</totfact>
</mgrwt>
</event>
<event>
 6    1  0.1885829E-005  0.3396940E+04  0.7818608E-02  0.8138658E-01
         -2   -1    0    0    0  501 -0.00000000000E+00  0.00000000000E+00  0.20839182927E+04  0.20839182927E+04  0.00000000000E+00 0.  1.
          2   -1    0    0  501    0  0.00000000000E+00 -0.00000000000E+00 -0.13843153897E+04  0.13843153897E+04  0.00000000000E+00 0. -1.
         23    2    1    2    0    0  0.74300113049E+03  0.15135914127E+04  0.54848392792E+03  0.17753525322E+04  0.89623377849E+02 0.  0.
         13    1    3    3    0    0  0.15123713925E+03  0.38956357232E+03  0.12072908008E+03  0.43498041329E+03  0.00000000000E+00 0. -1.
        -13    1    3    3    0    0  0.59176399124E+03  0.11240278403E+04  0.42775484784E+03  0.13403721189E+04  0.00000000000E+00 0.  1.
         22    1    1    2    0    0 -0.74300113049E+03 -0.15135914127E+04  0.15111897510E+03  0.16928811503E+04  0.00000000000E+00 0. -1.
<mgrwt>
<rscale>  0 0.33969399E+04</rscale>
<asrwt>0</asrwt>
<pdfrwt beam="1">  1        2 0.21297160E+00 0.33969399E+04</pdfrwt>
<pdfrwt beam="2">  1       -2 0.32060281E+00 0.33969399E+04</pdfrwt>
<totfact> 0.29055896E-01</totfact>
</mgrwt>
</event>
<event>
 6    1  0.1885829E-005  0.6143138E+04  0.7818608E-02  0.7672904E-01
          2   -1    0    0  501    0  0.00000000000E+00  0.00000000000E+00  0.43210989727E+04  0.43210989727E+04  0.00000000000E+00 0. -1.
         -2   -1    0    0    0  501 -0.00000000000E+00 -0.00000000000E+00 -0.21833647370E+04  0.21833647370E+04  0.00000000000E+00 0.  1.
         23    2    1    2    0    0 -0.26679756473E+04 -0.12961578257E+04  0.22688501065E+03  0.29760839223E+04  0.86484338992E+02 0.  0.
         11    1    3    3    0    0 -0.66898660977E+03 -0.36643470658E+03  0.64630451859E+02  0.76550282400E+03  0.00000000000E+00 0. -1.
        -11    1    3    3    0    0 -0.19989890375E+04 -0.92972311908E+03  0.16225455879E+03  0.22105810983E+04  0.00000000000E+00 0.  1.
         22    1    1    2    0    0  0.26679756473E+04  0.12961578257E+04  0.19108492251E+04  0.35283797875E+04  0.00000000000E+00 0. -1.
<mgrwt>
<rscale>  0 0.61431377E+04</rscale>
<asrwt>0</asrwt>
<pdfrwt beam="1">  1        2 0.66478445E+00 0.61431377E+04</pdfrwt>
<pdfrwt beam="2">  1       -2 0.33590227E+00 0.61431377E+04</pdfrwt>
<totfact> 0.22836985E-03</totfact>
</mgrwt>
</event>
<event>
 6    1  0.1885829E-005  0.3431115E+04  0.7818608E-02  0.8130312E-01
         -2   -1    0    0    0  501 -0.00000000000E+00  0.00000000000E+00  0.10956885348E+04  0.10956885348E+04  0.00000000000E+00 0.  1.
          2   -1    0    0  501    0  0.00000000000E+00 -0.00000000000E+00 -0.26861071017E+04  0.26861071017E+04  0.00000000000E+00 0. -1.
         23    2    1    2    0    0 -0.16145940195E+04 -0.57614346651E+03 -0.76795065628E+03  0.18803991482E+04  0.85426015013E+02 0.  0.
         11    1    3    3    0    0 -0.14090910104E+04 -0.52631913947E+03 -0.69193426134E+03  0.16556939132E+04  0.00000000000E+00 0. -1.
        -11    1    3    3    0    0 -0.20550300912E+03 -0.49824327048E+02 -0.76016394945E+02  0.22470523497E+03  0.00000000000E+00 0.  1.
         22    1    1    2    0    0  0.16145940195E+04  0.57614346651E+03 -0.82246791065E+03  0.19013964884E+04  0.00000000000E+00 0.  1.
<mgrwt>
<rscale>  0 0.34311145E+04</rscale>
<asrwt>0</asrwt>
<pdfrwt beam="1">  1        2 0.41324725E+00 0.34311145E+04</pdfrwt>
<pdfrwt beam="2">  1       -2 0.16856747E+00 0.34311145E+04</pdfrwt>
<totfact> 0.48789246E-01</totfact>
</mgrwt>
</event>
<event>
 6    1  0.2263478E-005  0.2866007E+04  0.7818608E-02  0.8283064E-01
          2   -1    0    0  501    0  0.00000000000E+00  0.00000000000E+00  0.17034460306E+04  0.17034460306E+04  0.00000000000E+00 0. -1.
         -2   -1    0    0    0  501 -0.00000000000E+00 -0.00000000000E+00 -0.12054969673E+04  0.12054969673E+04  0.00000000000E+00 0.  1.
         23    2    1    2    0    0 -0.10121546675E+04  0.77858894133E+03  0.90584743974E+03  0.15684062039E+04  0.93169875602E+02 0.  0.
         11    1    3    3    0    0 -0.71548699244E+03  0.59729738075E+03  0.63716825777E+03  0.11290124827E+04  0.00000000000E+00 0.  1.
        -11    1    3    3    0    0 -0.29666767507E+03  0.18129156058E+03  0.26867918197E+03  0.43939372116E+03  0.00000000000E+00 0. -1.
         22    1    1    2    0    0  0.10121546675E+04 -0.77858894133E+03 -0.40789837645E+03  0.13405367940E+04  0.00000000000E+00 0.  1.
<mgrwt>
<rscale>  0 0.28660070E+04</rscale>
<asrwt>0</asrwt>
<pdfrwt beam="1">  1        2 0.26206862E+00 0.28660070E+04</pdfrwt>
<pdfrwt beam="2">  1       -2 0.18546107E+00 0.28660070E+04</pdfrwt>
<totfact> 0.14058430E+00</totfact>
</mgrwt>
</event>
<event>
 6    1  0.1885829E-005  0.1010936E+04  0.7818608E-02  0.9296631E-01
          2   -1    0    0  501    0  0.00000000000E+00  0.00000000000E+00  0.68707050718E+03  0.68707050718E+03  0.00000000000E+00 0. -1.
         -2   -1    0    0    0  501 -0.00000000000E+00 -0.00000000000E+00 -0.37186556361E+03  0.37186556361E+03  0.00000000000E+00 0.  1.
         23    2    1    2    0    0  0.15666255076E+03 -0.18465243385E+03  0.61859329889E+03  0.67075548102E+03  0.92820093433E+02 0.  0.
         13    1    3    3    0    0  0.16033085024E+03 -0.15228204388E+03  0.48154020386E+03  0.52988373287E+03  0.00000000000E+00 0.  1.
        -13    1    3    3    0    0 -0.36682994873E+01 -0.32370389970E+02  0.13705309503E+03  0.14087174815E+03  0.00000000000E+00 0. -1.
         22    1    1    2    0    0 -0.15666255076E+03  0.18465243385E+03 -0.30338835532E+03  0.38818058978E+03  0.00000000000E+00 0.  1.
<mgrwt>
<rscale>  0 0.10109359E+04</rscale>
<asrwt>0</asrwt>
<pdfrwt beam="1">  1        2 0.10570315E+00 0.10109359E+04</pdfrwt>
<pdfrwt beam="2">  1       -2 0.57210087E-01 0.10109359E+04</pdfrwt>
<totfact> 0.11990615E+02</totfact>
</mgrwt>
</event>
<event>
 6    1  0.1885829E-005  0.2291085E+04  0.7818608E-02  0.8481444E-01
          2   -1    0    0  501    0  0.00000000000E+00  0.00000000000E+00  0.27622293874E+04  0.27622293874E+04  0.00000000000E+00 0. -1.
         -2   -1    0    0    0  501 -0.00000000000E+00 -0.00000000000E+00 -0.47507565773E+03  0.47507565773E+03  0.00000000000E+00 0.  1.
         23    2    1    2    0    0  0.36725657382E+03  0.98676035518E+03  0.51417949021E+03  0.11752645404E+04  0.91064823552E+02 0.  0.
         11    1    3    3    0    0  0.18616772425E+03  0.41226893368E+03  0.18394790459E+03  0.48832461215E+03  0.00000000000E+00 0. -1.
        -11    1    3    3    0    0  0.18108884957E+03  0.57449142150E+03  0.33023158562E+03  0.68693992820E+03  0.00000000000E+00 0.  1.
         22    1    1    2    0    0 -0.36725657382E+03 -0.98676035518E+03  0.17729742395E+04  0.20620405048E+04  0.00000000000E+00 0. -1.
<mgrwt>
<rscale>  0 0.22910853E+04</rscale>
<asrwt>0</asrwt>
<pdfrwt beam="1">  1        2 0.42495836E+00 0.22910853E+04</pdfrwt>
<pdfrwt beam="2">  1       -2 0.73088564E-01 0.22910853E+04</pdfrwt>
<totfact> 0.37395059E+00</totfact>
</mgrwt>
</event>
<event>
 6    1  0.1885829E-005  0.3234767E+04  0.7818608E-02  0.8179695E-01
         -2   -1    0    0    0  501 -0.00000000000E+00  0.00000000000E+00  0.21567074050E+04  0.21567074050E+04  0.00000000000E+00 0.  1.
          2   -1    0    0  501    0  0.00000000000E+00 -0.00000000000E+00 -0.12129270081E+04  0.12129270081E+04  0.00000000000E+00 0. -1.
         23    2    1    2    0    0  0.74776063016E+03  0.97657992709E+03 -0.61969238297E+03  0.13803376913E+04  0.91973791671E+02 0.  0.
         13    1    3    3    0    0  0.52747478918E+03  0.63361267456E+03 -0.38392780441E+03  0.90944776298E+03  0.00000000000E+00 0. -1.
        -13    1    3    3    0    0  0.22028584099E+03  0.34296725253E+03 -0.23576457856E+03  0.47088992828E+03  0.00000000000E+00 0.  1.
         22    1    1    2    0    0 -0.74776063016E+03 -0.97657992709E+03  0.15634727798E+04  0.19892967218E+04  0.00000000000E+00 0.  1.
<mgrwt>
<rscale>  0 0.32347666E+04</rscale>
<asrwt>0</asrwt>
<pdfrwt beam="1">  1        2 0.18660416E+00 0.32347666E+04</pdfrwt>
<pdfrwt beam="2">  1       -2 0.33180114E+00 0.32347666E+04</pdfrwt>
<totfact> 0.31596915E-01</totfact>
</mgrwt>
</event>
<event>
 6    1  0.1885829E-005  0.1839059E+04  0.7818608E-02  0.8685800E-01
         -2   -1    0    0    0  501 -0.00000000000E+00  0.00000000000E+00  0.55404402080E+03  0.55404402080E+03  0.00000000000E+00 0.  1.
          2   -1    0    0  501    0  0.00000000000E+00 -0.00000000000E+00 -0.15261138679E+04  0.15261138679E+04  0.00000000000E+00 0. -1.
         23    2    1    2    0    0 -0.30182587037E+03 -0.18151514323E+02  0.49245963439E+03  0.58473990846E+03  0.89308093388E+02 0.  0.
         11    1    3    3    0    0 -0.16577607371E+03 -0.16786805922E+02  0.18769333886E+03  0.25098265462E+03  0.00000000000E+00 0.  1.
        -11    1    3    3    0    0 -0.13604979666E+03 -0.13647084012E+01  0.30476629553E+03  0.33375725384E+03  0.00000000000E+00 0. -1.
         22    1    1    2    0    0  0.30182587037E+03  0.18151514323E+02 -0.14645294815E+04  0.14954179803E+04  0.00000000000E+00 0. -1.
<mgrwt>
<rscale>  0 0.18390587E+04</rscale>
<asrwt>0</asrwt>
<pdfrwt beam="1">  1        2 0.23478675E+00 0.18390587E+04</pdfrwt>
<pdfrwt beam="2">  1       -2 0.85237542E-01 0.18390587E+04</pdfrwt>
<totfact> 0.13825966E+01</totfact>
</mgrwt>
</event>
<event>
 6    1  0.1885829E-005  0.1398476E+04  0.7818608E-02  0.8954923E-01
         -2   -1    0    0    0  501 -0.00000000000E+00  0.00000000000E+00  0.44416844083E+03  0.44416844083E+03  0.00000000000E+00 0.  1.
          2   -1    0    0  501    0  0.00000000000E+00 -0.00000000000E+00 -0.11007840407E+04  0.11007840407E+04  0.00000000000E+00 0. -1.
         23    2    1    2    0    0 -0.32522904090E+03  0.58067304176E+03 -0.55510929238E+03  0.87170762197E+03  0.93662912785E+02 0.  0.
         13    1    3    3    0    0 -0.99426857209E+02  0.26348633871E+03 -0.20815422186E+03  0.35019841619E+03  0.00000000000E+00 0. -1.
        -13    1    3    3    0    0 -0.22580218369E+03  0.31718670305E+03 -0.34695507052E+03  0.52150920578E+03  0.00000000000E+00 0.  1.
         22    1    1    2    0    0  0.32522904090E+03 -0.58067304176E+03 -0.10150630749E+03  0.67324485957E+03  0.00000000000E+00 0.  1.
<mgrwt>
<rscale>  0 0.13984756E+04</rscale>
<asrwt>0</asrwt>
<pdfrwt beam="1">  1        2 0.16935139E+00 0.13984756E+04</pdfrwt>
<pdfrwt beam="2">  1       -2 0.68333607E-01 0.13984756E+04</pdfrwt>
<totfact> 0.41508686E+01</totfact>
</mgrwt>
</event>
<event>
 6    1  0.1885829E-005  0.3470111E+04  0.7818608E-02  0.8120910E-01
         -2   -1    0    0    0  501 -0.00000000000E+00  0.00000000000E+00  0.41686629556E+04  0.41686629556E+04  0.00000000000E+00 0.  1.
          2   -1    0    0  501    0  0.00000000000E+00 -0.00000000000E+00 -0.72215425167E+03  0.72215425167E+03  0.00000000000E+00 0. -1.
         23    2    1    2    0    0 -0.17477846874E+03  0.44682964389E+02  0.41550023195E+04  0.41597171568E+04  0.81599446213E+02 0.  0.
         13    1    3    3    0    0 -0.83220038796E+02  0.52296141918E+02  0.27210960848E+04  0.27228706110E+04  0.00000000000E+00 0.  1.
        -13    1    3    3    0    0 -0.91558429946E+02 -0.76131775290E+01  0.14339062347E+04  0.14368465459E+04  0.00000000000E+00 0. -1.
         22    1    1    2    0    0  0.17477846874E+03 -0.44682964389E+02 -0.70849361556E+03  0.73110005042E+03  0.00000000000E+00 0. -1.
<mgrwt>
<rscale>  0 0.34701111E+04</rscale>
<asrwt>0</asrwt>
<pdfrwt beam="1">  1        2 0.11110066E+00 0.34701111E+04</pdfrwt>
<pdfrwt beam="2">  1       -2 0.64133275E+00 0.34701111E+04</pdfrwt>
<totfact> 0.11568903E-02</totfact>
</mgrwt>
</event>
<event>
 6    1  0.1885829E-005  0.2320161E+04  0.7818608E-02  0.8470014E-01
         -2   -1    0    0    0  501 -0.00000000000E+00  0.00000000000E+00  0.10439483770E+04  0.10439483770E+04  0.00000000000E+00 0. -1.
          2   -1    0    0  501    0  0.00000000000E+00 -0.00000000000E+00 -0.12891311625E+04  0.12891311625E+04  0.00000000000E+00 0.  1.
         23    2    1    2    0    0  0.82667917229E+03  0.45920357519E+03  0.54995770845E+03  0.10975574708E+04  0.88952476976E+02 0.  0.
         11    1    3    3    0    0  0.68010597367E+03  0.37533561656E+03  0.48961578284E+03  0.91822904293E+03  0.00000000000E+00 0.  1.
        -11    1    3    3    0    0  0.14657319862E+03  0.83867958631E+02  0.60341925609E+02  0.17932842782E+03  0.00000000000E+00 0. -1.
         22    1    1    2    0    0 -0.82667917229E+03 -0.45920357519E+03 -0.79514049395E+03  0.12355220688E+04  0.00000000000E+00 0.  1.
<mgrwt>
<rscale>  0 0.23201607E+04</rscale>
<asrwt>0</asrwt>
<pdfrwt beam="1">  1        2 0.19832787E+00 0.23201607E+04</pdfrwt>
<pdfrwt beam="2">  1       -2 0.16060744E+00 0.23201607E+04</pdfrwt>
<totfact> 0.37856605E+00</totfact>
</mgrwt>
</event>
<event>
 6    1  0.1885829E-005  0.1390323E+04  0.7818608E-02  0.8960853E-01
         -2   -1    0    0    0  501 -0.00000000000E+00  0.00000000000E+00  0.25589092472E+03  0.25589092472E+03  0.00000000000E+00 0.  1.
          2   -1    0    0  501    0  0.00000000000E+00 -0.00000000000E+00 -0.18884973418E+04  0.18884973418E+04  0.00000000000E+00 0. -1.
         23    2    1    2    0    0 -0.53993208440E+03 -0.23562270189E+03 -0.25933997280E+03  0.65009731747E+03  0.91239176222E+02 0.  0.
         13    1    3    3    0    0 -0.12115709879E+03 -0.67150781240E+02 -0.10216984691E+03  0.17212480247E+03  0.00000000000E+00 0.  1.
        -13    1    3    3    0    0 -0.41877498562E+03 -0.16847192065E+03 -0.15717012589E+03  0.47797251500E+03  0.00000000000E+00 0. -1.
         22    1    1    2    0    0  0.53993208440E+03  0.23562270189E+03 -0.13732664442E+04  0.14942909490E+04  0.00000000000E+00 0. -1.
<mgrwt>
<rscale>  0 0.13903227E+04</rscale>
<asrwt>0</asrwt>
<pdfrwt beam="1">  1        2 0.29053806E+00 0.13903227E+04</pdfrwt>
<pdfrwt beam="2">  1       -2 0.39367834E-01 0.13903227E+04</pdfrwt>
<totfact> 0.45807423E+01</totfact>
</mgrwt>
</event>
<event>
 6    1  0.1885829E-005  0.2180361E+04  0.7818608E-02  0.8526647E-01
          2   -1    0    0  501    0  0.00000000000E+00  0.00000000000E+00  0.11358608582E+04  0.11358608582E+04  0.00000000000E+00 0. -1.
         -2   -1    0    0    0  501 -0.00000000000E+00 -0.00000000000E+00 -0.10463369578E+04  0.10463369578E+04  0.00000000000E+00 0.  1.
         23    2    1    2    0    0 -0.29690718180E+03  0.77176288209E+03  0.75289952423E+03  0.11220850677E+04  0.91898774135E+02 0.  0.
         11    1    3    3    0    0 -0.13456454845E+03  0.45751354436E+03  0.46424402395E+03  0.66554396905E+03  0.00000000000E+00 0. -1.
        -11    1    3    3    0    0 -0.16234263335E+03  0.31424933773E+03  0.28865550029E+03  0.45654109860E+03  0.00000000000E+00 0.  1.
         22    1    1    2    0    0  0.29690718180E+03 -0.77176288209E+03 -0.66337562390E+03  0.10601127483E+04  0.00000000000E+00 0.  1.
<mgrwt>
<rscale>  0 0.21803607E+04</rscale>
<asrwt>0</asrwt>
<pdfrwt beam="1">  1        2 0.17474782E+00 0.21803607E+04</pdfrwt>
<pdfrwt beam="2">  1       -2 0.16097492E+00 0.21803607E+04</pdfrwt>
<totfact> 0.46971850E+00</totfact>
</mgrwt>
</event>
<event>
 6    1  0.1885829E-005  0.2458298E+04  0.7818608E-02  0.8417994E-01
          2   -1    0    0  501    0  0.00000000000E+00  0.00000000000E+00  0.18945046229E+04  0.18945046229E+04  0.00000000000E+00 0.  1.
         -2   -1    0    0    0  501 -0.00000000000E+00 -0.00000000000E+00 -0.79746855096E+03  0.79746855096E+03  0.00000000000E+00 0. -1.
         23    2    1    2    0    0  0.50942952471E+03 -0.82636344788E+02  0.17689011646E+04  0.18447719528E+04  0.88459152468E+02 0.  0.
         11    1    3    3    0    0  0.27828637372E+03 -0.71381128754E+02  0.85274907371E+03  0.89984418321E+03  0.00000000000E+00 0. -1.
        -11    1    3    3    0    0  0.23114315099E+03 -0.11255216034E+02  0.91615209089E+03  0.94492776961E+03  0.00000000000E+00 0.  1.
         22    1    1    2    0    0 -0.50942952471E+03  0.82636344788E+02 -0.67186509269E+03  0.84720122102E+03  0.00000000000E+00 0. -1.
<mgrwt>
<rscale>  0 0.24582985E+04</rscale>
<asrwt>0</asrwt>
<pdfrwt beam="1">  1        2 0.29146225E+00 0.24582985E+04</pdfrwt>
<pdfrwt beam="2">  1       -2 0.12268747E+00 0.24582985E+04</pdfrwt>
<totfact> 0.34388102E+00</totfact>
</mgrwt>
</event>
<event>
 6    1  0.1885829E-005  0.1367187E+04  0.7818608E-02  0.8977919E-01
         -1   -1    0    0    0  501 -0.00000000000E+00  0.00000000000E+00  0.57765246446E+03  0.57765246446E+03  0.00000000000E+00 0.  1.
          1   -1    0    0  501    0  0.00000000000E+00 -0.00000000000E+00 -0.80896441900E+03  0.80896441900E+03  0.00000000000E+00 0. -1.
         23    2    1    2    0    0  0.38799376540E+03  0.40478435912E+01 -0.68325604344E+03  0.79095841880E+03  0.90668916067E+02 0.  0.
         13    1    3    3    0    0  0.23690824158E+03  0.35926699551E+02 -0.35636216655E+03  0.42943012984E+03  0.00000000000E+00 0. -1.
        -13    1    3    3    0    0  0.15108552382E+03 -0.31878855960E+02 -0.32689387689E+03  0.36152828896E+03  0.00000000000E+00 0.  1.
         22    1    1    2    0    0 -0.38799376540E+03 -0.40478435912E+01  0.45194408891E+03  0.59565846466E+03  0.00000000000E+00 0.  1.
<mgrwt>
<rscale>  0 0.13671873E+04</rscale>
<asrwt>0</asrwt>
<pdfrwt beam="1">  1        1 0.12445606E+00 0.13671873E+04</pdfrwt>
<pdfrwt beam="2">  1       -1 0.88869611E-01 0.13671873E+04</pdfrwt>
<totfact> 0.26378080E+01</totfact>
</mgrwt>
</event>
<event>
 6    1  0.1885829E-005  0.9348102E+03  0.7818608E-02  0.9383083E-01
         -2   -1    0    0    0  501 -0.00000000000E+00  0.00000000000E+00  0.15236364454E+03  0.15236364454E+03  0.00000000000E+00 0.  1.
          2   -1    0    0  501    0  0.00000000000E+00 -0.00000000000E+00 -0.14338560490E+04  0.14338560490E+04  0.00000000000E+00 0. -1.
         23    2    1    2    0    0 -0.21518965241E+03 -0.40250035606E+03 -0.77964859026E+03  0.90786850354E+03  0.89778462290E+02 0.  0.
         13    1    3    3    0    0 -0.16809181033E+03 -0.22227640965E+03 -0.45403128671E+03  0.53273451952E+03  0.00000000000E+00 0. -1.
        -13    1    3    3    0    0 -0.47097842086E+02 -0.18022394641E+03 -0.32561730356E+03  0.37513398402E+03  0.00000000000E+00 0.  1.
         22    1    1    2    0    0  0.21518965241E+03  0.40250035606E+03 -0.50184381420E+03  0.67835119001E+03  0.00000000000E+00 0.  1.
<mgrwt>
<rscale>  0 0.93481021E+03</rscale>
<asrwt>0</asrwt>
<pdfrwt beam="1">  1        2 0.22059324E+00 0.93481021E+03</pdfrwt>
<pdfrwt beam="2">  1       -2 0.23440561E-01 0.93481021E+03</pdfrwt>
<totfact> 0.22316545E+02</totfact>
</mgrwt>
</event>
<event>
 6    1  0.1885829E-005  0.2696494E+04  0.7818608E-02  0.8336143E-01
          2   -1    0    0  501    0  0.00000000000E+00  0.00000000000E+00  0.16625347543E+04  0.16625347543E+04  0.00000000000E+00 0. -1.
         -2   -1    0    0    0  501 -0.00000000000E+00 -0.00000000000E+00 -0.10933729431E+04  0.10933729431E+04  0.00000000000E+00 0.  1.
         23    2    1    2    0    0  0.58739470782E+03 -0.64149344179E+03 -0.76659554934E+03  0.11619208389E+04  0.76452082572E+02 0.  0.
         13    1    3    3    0    0  0.66768999505E+02 -0.58930752826E+02 -0.52084008374E+02  0.10316819690E+03  0.00000000000E+00 0. -1.
        -13    1    3    3    0    0  0.52062570831E+03 -0.58256268896E+03 -0.71451154096E+03  0.10587526420E+04  0.00000000000E+00 0.  1.
         22    1    1    2    0    0 -0.58739470782E+03  0.64149344179E+03  0.13357573605E+04  0.15939868584E+04  0.00000000000E+00 0. -1.
<mgrwt>
<rscale>  0 0.26964944E+04</rscale>
<asrwt>0</asrwt>
<pdfrwt beam="1">  1        2 0.25577458E+00 0.26964944E+04</pdfrwt>
<pdfrwt beam="2">  1       -2 0.16821122E+00 0.26964944E+04</pdfrwt>
<totfact> 0.19823497E+00</totfact>
</mgrwt>
</event>
<event>
 6    1  0.1885829E-005  0.6373476E+03  0.7818608E-02  0.9830815E-01
          1   -1    0    0  501    0  0.00000000000E+00  0.00000000000E+00  0.22390187944E+04  0.22390187944E+04  0.00000000000E+00 0. -1.
         -1   -1    0    0    0  501 -0.00000000000E+00 -0.00000000000E+00 -0.45356020068E+02  0.45356020068E+02  0.00000000000E+00 0.  1.
         23    2    1    2    0    0  0.22233397824E+03  0.20157597648E+03  0.81079259714E+03  0.86931467470E+03  0.90874066199E+02 0.  0.
         13    1    3    3    0    0  0.53843509726E+02  0.95256925238E+02  0.21766802427E+03  0.24362342691E+03  0.00000000000E+00 0.  1.
        -13    1    3    3    0    0  0.16849046852E+03  0.10631905124E+03  0.59312457286E+03  0.62569124780E+03  0.00000000000E+00 0. -1.
         22    1    1    2    0    0 -0.22233397824E+03 -0.20157597648E+03  0.13828701772E+04  0.14150601397E+04  0.00000000000E+00 0.  1.
<mgrwt>
<rscale>  0 0.63734757E+03</rscale>
<asrwt>0</asrwt>
<pdfrwt beam="1">  1        1 0.34446434E+00 0.63734757E+03</pdfrwt>
<pdfrwt beam="2">  1       -1 0.69778510E-02 0.63734757E+03</pdfrwt>
<totfact> 0.23785819E+02</totfact>
</mgrwt>
</event>
<event>
 6    1  0.1885829E-005  0.1898840E+04  0.7818608E-02  0.8655434E-01
         -1   -1    0    0    0  501 -0.00000000000E+00  0.00000000000E+00  0.40253978645E+03  0.40253978645E+03  0.00000000000E+00 0.  1.
          1   -1    0    0  501    0  0.00000000000E+00 -0.00000000000E+00 -0.22392782674E+04  0.22392782674E+04  0.00000000000E+00 0. -1.
         23    2    1    2    0    0  0.10503062785E+03 -0.53206418773E+03 -0.20009766805E+04  0.20751630275E+04  0.90940541271E+02 0.  0.
         13    1    3    3    0    0  0.21380139498E+02 -0.46363857506E+02 -0.29644469827E+03  0.30080920328E+03  0.00000000000E+00 0. -1.
        -13    1    3    3    0    0  0.83650488348E+02 -0.48570033022E+03 -0.17045319822E+04  0.17743538242E+04  0.00000000000E+00 0.  1.
         22    1    1    2    0    0 -0.10503062785E+03  0.53206418773E+03  0.16423819960E+03  0.56665502632E+03  0.00000000000E+00 0.  1.
<mgrwt>
<rscale>  0 0.18988403E+04</rscale>
<asrwt>0</asrwt>
<pdfrwt beam="1">  1        1 0.34450435E+00 0.18988403E+04</pdfrwt>
<pdfrwt beam="2">  1       -1 0.61929198E-01 0.18988403E+04</pdfrwt>
<totfact> 0.50694939E+00</totfact>
</mgrwt>
</event>
<event>
 6    1  0.2241418E-005  0.2973551E+04  0.7818608E-02  0.8251324E-01
          2   -1    0    0  501    0  0.00000000000E+00  0.00000000000E+00  0.12515463807E+04  0.12515463807E+04  0.00000000000E+00 0. -1.
         -2   -1    0    0    0  501 -0.00000000000E+00 -0.00000000000E+00 -0.17662162616E+04  0.17662162616E+04  0.00000000000E+00 0.  1.
         23    2    1    2    0    0  0.10137645995E+04 -0.59287141441E+03  0.66541276428E+03  0.13528872035E+04  0.91183667519E+02 0.  0.
         11    1    3    3    0    0  0.30425744922E+03 -0.15110288288E+03  0.23220658653E+03  0.41149067480E+03  0.00000000000E+00 0. -1.
        -11    1    3    3    0    0  0.70950715028E+03 -0.44176853153E+03  0.43320617775E+03  0.94139652867E+03  0.00000000000E+00 0.  1.
         22    1    1    2    0    0 -0.10137645995E+04  0.59287141441E+03 -0.11800826453E+04  0.16648754388E+04  0.00000000000E+00 0.  1.
<mgrwt>
<rscale>  0 0.29735511E+04</rscale>
<asrwt>0</asrwt>
<pdfrwt beam="1">  1        2 0.19254560E+00 0.29735511E+04</pdfrwt>
<pdfrwt beam="2">  1       -2 0.27172558E+00 0.29735511E+04</pdfrwt>
<totfact> 0.71627362E-01</totfact>
</mgrwt>
</event>
<event>
 6    1  0.1885829E-005  0.1823935E+04  0.7818608E-02  0.8693674E-01
          1   -1    0    0  501    0  0.00000000000E+00  0.00000000000E+00  0.30013209872E+04  0.30013209872E+04  0.00000000000E+00 0. -1.
         -1   -1    0    0    0  501 -0.00000000000E+00 -0.00000000000E+00 -0.27710628815E+03  0.27710628815E+03  0.00000000000E+00 0.  1.
         23    2    1    2    0    0 -0.67377929057E+03  0.46643065351E+03  0.65632935848E+03  0.10540878524E+04  0.93791720049E+02 0.  0.
         13    1    3    3    0    0 -0.25079576795E+03  0.21299445827E+03  0.22143123464E+03  0.39660679287E+03  0.00000000000E+00 0. -1.
        -13    1    3    3    0    0 -0.42298352262E+03  0.25343619523E+03  0.43489812384E+03  0.65748105948E+03  0.00000000000E+00 0.  1.
         22    1    1    2    0    0  0.67377929057E+03 -0.46643065351E+03  0.20678853406E+04  0.22243394230E+04  0.00000000000E+00 0.  1.
<mgrwt>
<rscale>  0 0.18239352E+04</rscale>
<asrwt>0</asrwt>
<pdfrwt beam="1">  1        1 0.46174167E+00 0.18239352E+04</pdfrwt>
<pdfrwt beam="2">  1       -1 0.42631739E-01 0.18239352E+04</pdfrwt>
<totfact> 0.30508497E+00</totfact>
</mgrwt>
</event>
<event>
 6    1  0.1885829E-005  0.1283168E+04  0.7818608E-02  0.9043021E-01
          2   -1    0    0  501    0  0.00000000000E+00  0.00000000000E+00  0.38546917305E+04  0.38546917305E+04  0.00000000000E+00 0.  1.
         -2   -1    0    0    0  501 -0.00000000000E+00 -0.00000000000E+00 -0.10678673325E+03  0.10678673325E+03  0.00000000000E+00 0. -1.
         23    2    1    2    0    0 -0.19645563181E+03 -0.50984511058E+03  0.29023140161E+04  0.29547208169E+04  0.91714806434E+02 0.  0.
         13    1    3    3    0    0 -0.20662824936E+03 -0.48646155916E+03  0.27705830510E+04  0.28205443667E+04  0.00000000000E+00 0. -1.
        -13    1    3    3    0    0  0.10172617553E+02 -0.23383551425E+02  0.13173096514E+03  0.13417645025E+03  0.00000000000E+00 0.  1.
         22    1    1    2    0    0  0.19645563181E+03  0.50984511058E+03  0.84559098109E+03  0.10067576468E+04  0.00000000000E+00 0. -1.
<mgrwt>
<rscale>  0 0.12831679E+04</rscale>
<asrwt>0</asrwt>
<pdfrwt beam="1">  1        2 0.59302939E+00 0.12831679E+04</pdfrwt>
<pdfrwt beam="2">  1       -2 0.16428731E-01 0.12831679E+04</pdfrwt>
<totfact> 0.13564827E+01</totfact>
</mgrwt>
</event>
<event>
 6    1  0.1885829E-005  0.3350808E+04  0.7818608E-02  0.8150086E-01
          2   -1    0    0  501    0  0.00000000000E+00  0.00000000000E+00  0.27625015442E+04  0.27625015442E+04  0.00000000000E+00 0.  1.
         -2   -1    0    0    0  501 -0.00000000000E+00 -0.00000000000E+00 -0.10161000706E+04  0.10161000706E+04  0.00000000000E+00 0. -1.
         23    2    1    2    0    0 -0.14837373300E+04  0.35115515584E+03  0.94195497458E+02  0.15303643063E+04  0.91409575664E+02 0.  0.
         11    1    3    3    0    0 -0.67506645568E+03  0.20595236282E+03  0.51089412489E+02  0.70763071117E+03  0.00000000000E+00 0. -1.
        -11    1    3    3    0    0 -0.80867087430E+03  0.14520279302E+03  0.43106084969E+02  0.82273359515E+03  0.00000000000E+00 0.  1.
         22    1    1    2    0    0  0.14837373300E+04 -0.35115515584E+03  0.16522059761E+04  0.22482373085E+04  0.00000000000E+00 0.  1.
<mgrwt>
<rscale>  0 0.33508077E+04</rscale>
<asrwt>0</asrwt>
<pdfrwt beam="1">  1        2 0.42500023E+00 0.33508077E+04</pdfrwt>
<pdfrwt beam="2">  1       -2 0.15632309E+00 0.33508077E+04</pdfrwt>
<totfact> 0.54343262E-01</totfact>
</mgrwt>
</event>
<event>
 6    1  0.1885829E-005  0.1980204E+04  0.7818608E-02  0.8615932E-01
          2   -1    0    0  501    0  0.00000000000E+00  0.00000000000E+00  0.26985250296E+04  0.26985250296E+04  0.00000000000E+00 0. -1.
         -2   -1    0    0    0  501 -0.00000000000E+00 -0.00000000000E+00 -0.36327308132E+03  0.36327308132E+03  0.00000000000E+00 0.  1.
         23    2    1    2    0    0 -0.17482624469E+03 -0.90378212210E+03  0.61561212397E+03  0.11112731904E+04  0.92539054235E+02 0.  0.
         11    1    3    3    0    0 -0.85152486053E+01 -0.18324263041E+03  0.92299312360E+02  0.20535221966E+03  0.00000000000E+00 0. -1.
        -11    1    3    3    0    0 -0.16631099609E+03 -0.72053949169E+03  0.52331281161E+03  0.90592097078E+03  0.00000000000E+00 0.  1.
         22    1    1    2    0    0  0.17482624469E+03  0.90378212210E+03  0.17196398243E+04  0.19505249204E+04  0.00000000000E+00 0. -1.
<mgrwt>
<rscale>  0 0.19802035E+04</rscale>
<asrwt>0</asrwt>
<pdfrwt beam="1">  1        2 0.41515768E+00 0.19802035E+04</pdfrwt>
<pdfrwt beam="2">  1       -2 0.55888168E-01 0.19802035E+04</pdfrwt>
<totfact> 0.74542527E+00</totfact>
</mgrwt>
</event>
<event>
 6    1  0.1885829E-005  0.7515072E+03  0.7818608E-02  0.9632989E-01
         -2   -1    0    0    0  501 -0.00000000000E+00  0.00000000000E+00  0.18655004090E+03  0.18655004090E+03  0.00000000000E+00 0. -1.
          2   -1    0    0  501    0  0.00000000000E+00 -0.00000000000E+00 -0.75685204570E+03  0.75685204570E+03  0.00000000000E+00 0.  1.
         23    2    1    2    0    0 -0.18697838098E+03 -0.73752882412E+02  0.10060077228E+03  0.24303722532E+03  0.92445523911E+02 0.  0.
         13    1    3    3    0    0 -0.18544650953E+02  0.20024878779E+02  0.21142155605E+02  0.34523768518E+02  0.00000000000E+00 0.  1.
        -13    1    3    3    0    0 -0.16843373002E+03 -0.93777761191E+02  0.79458616676E+02  0.20851345680E+03  0.00000000000E+00 0. -1.
         22    1    1    2    0    0  0.18697838098E+03  0.73752882412E+02 -0.67090277709E+03  0.70036486128E+03  0.00000000000E+00 0.  1.
<mgrwt>
<rscale>  0 0.75150723E+03</rscale>
<asrwt>0</asrwt>
<pdfrwt beam="1">  1        2 0.11643878E+00 0.75150723E+03</pdfrwt>
<pdfrwt beam="2">  1       -2 0.28700006E-01 0.75150723E+03</pdfrwt>
<totfact> 0.41479401E+02</totfact>
</mgrwt>
</event>
<event>
 6    1  0.1885829E-005  0.1746234E+04  0.7818608E-02  0.8735426E-01
          2   -1    0    0  501    0  0.00000000000E+00  0.00000000000E+00  0.66945167080E+03  0.66945167080E+03  0.00000000000E+00 0. -1.
         -2   -1    0    0    0  501 -0.00000000000E+00 -0.00000000000E+00 -0.11387423909E+04  0.11387423909E+04  0.00000000000E+00 0.  1.
         23    2    1    2    0    0 -0.26231540724E+02  0.45765595799E+03 -0.10018885345E+04  0.11054867958E+04  0.90461873118E+02 0.  0.
         13    1    3    3    0    0 -0.16360133299E+02  0.17863630959E+03 -0.49945913032E+03  0.53069577719E+03  0.00000000000E+00 0.  1.
        -13    1    3    3    0    0 -0.98714074248E+01  0.27901964840E+03 -0.50242940415E+03  0.57479101857E+03  0.00000000000E+00 0. -1.
         22    1    1    2    0    0  0.26231540724E+02 -0.45765595799E+03  0.53259781441E+03  0.70270726589E+03  0.00000000000E+00 0. -1.
<mgrwt>
<rscale>  0 0.17462337E+04</rscale>
<asrwt>0</asrwt>
<pdfrwt beam="1">  1        2 0.10299257E+00 0.17462337E+04</pdfrwt>
<pdfrwt beam="2">  1       -2 0.17519114E+00 0.17462337E+04</pdfrwt>
<totfact> 0.80426183E+00</totfact>
</mgrwt>
</event>
<event>
 6    1  0.1885829E-005  0.2110683E+04  0.7818608E-02  0.8556552E-01
          2   -1    0    0  501    0  0.00000000000E+00  0.00000000000E+00  0.53317378139E+03  0.53317378139E+03  0.00000000000E+00 0.  1.
         -2   -1    0    0    0  501 -0.00000000000E+00 -0.00000000000E+00 -0.20888981004E+04  0.20888981004E+04  0.00000000000E+00 0. -1.
         23    2    1    2    0    0  0.71532029569E+03 -0.63640008819E+03 -0.13208664228E+04  0.16362491650E+04  0.12623400984E+03 0.  0.
         13    1    3    3    0    0  0.35650092849E+03 -0.39751078095E+03 -0.76174621843E+03  0.93024998483E+03  0.00000000000E+00 0. -1.
        -13    1    3    3    0    0  0.35881936720E+03 -0.23888930724E+03 -0.55912020438E+03  0.70599918012E+03  0.00000000000E+00 0.  1.
         22    1    1    2    0    0 -0.71532029569E+03  0.63640008819E+03 -0.23485789623E+03  0.98582271687E+03  0.00000000000E+00 0. -1.
<mgrwt>
<rscale>  0 0.21106830E+04</rscale>
<asrwt>0</asrwt>
<pdfrwt beam="1">  1        2 0.82026735E-01 0.21106830E+04</pdfrwt>
<pdfrwt beam="2">  1       -2 0.32136894E+00 0.21106830E+04</pdfrwt>
<totfact> 0.12363833E+00</totfact>
</mgrwt>
</event>
<event>
 6    1  0.1885829E-005  0.1286030E+04  0.7818608E-02  0.9040718E-01
         -2   -1    0    0    0  501 -0.00000000000E+00  0.00000000000E+00  0.44183588705E+03  0.44183588705E+03  0.00000000000E+00 0.  1.
          2   -1    0    0  501    0  0.00000000000E+00 -0.00000000000E+00 -0.93579577520E+03  0.93579577520E+03  0.00000000000E+00 0. -1.
         23    2    1    2    0    0  0.63179360486E+03 -0.53130016686E+02 -0.15546785982E+03  0.65890862029E+03  0.89467070144E+02 0.  0.
         11    1    3    3    0    0  0.42934097985E+03 -0.21396739794E+01 -0.12994018392E+03  0.44857854004E+03  0.00000000000E+00 0.  1.
        -11    1    3    3    0    0  0.20245262500E+03 -0.50990342706E+02 -0.25527675898E+02  0.21033008025E+03  0.00000000000E+00 0. -1.
         22    1    1    2    0    0 -0.63179360486E+03  0.53130016686E+02 -0.33849202832E+03  0.71872304196E+03  0.00000000000E+00 0.  1.
<mgrwt>
<rscale>  0 0.12860298E+04</rscale>
<asrwt>0</asrwt>
<pdfrwt beam="1">  1        2 0.14396858E+00 0.12860298E+04</pdfrwt>
<pdfrwt beam="2">  1       -2 0.67974752E-01 0.12860298E+04</pdfrwt>
<totfact> 0.53959258E+01</totfact>
</mgrwt>
</event>
<event>
 6    1  0.1885829E-005  0.1669829E+04  0.7818608E-02  0.8778761E-01
         -2   -1    0    0    0  501 -0.00000000000E+00  0.00000000000E+00  0.41097199791E+03  0.41097199791E+03  0.00000000000E+00 0.  1.
          2   -1    0    0  501    0  0.00000000000E+00 -0.00000000000E+00 -0.16961799374E+04  0.16961799374E+04  0.00000000000E+00 0. -1.
         23    2    1    2    0    0  0.70383191440E+03  0.36735658318E+03 -0.95977199206E+03  0.12491083590E+04  0.93697346941E+02 0.  0.
         13    1    3    3    0    0  0.40323638187E+03  0.18009966306E+03 -0.47278634672E+03  0.64696398504E+03  0.00000000000E+00 0.  1.
        -13    1    3    3    0    0  0.30059553254E+03  0.18725692012E+03 -0.48698564534E+03  0.60214437395E+03  0.00000000000E+00 0. -1.
         22    1    1    2    0    0 -0.70383191440E+03 -0.36735658318E+03 -0.32543594738E+03  0.85804357628E+03  0.00000000000E+00 0.  1.
<mgrwt>
<rscale>  0 0.16698293E+04</rscale>
<asrwt>0</asrwt>
<pdfrwt beam="1">  1        2 0.26095076E+00 0.16698293E+04</pdfrwt>
<pdfrwt beam="2">  1       -2 0.63226460E-01 0.16698293E+04</pdfrwt>
<totfact> 0.21773719E+01</totfact>
</mgrwt>
</event>
<event>
 6    1  0.1885829E-005  0.2620550E+04  0.7818608E-02  0.8361254E-01
         -2   -1    0    0    0  501 -0.00000000000E+00  0.00000000000E+00  0.60096833745E+03  0.60096833745E+03  0.00000000000E+00 0.  1.
          2   -1    0    0  501    0  0.00000000000E+00 -0.00000000000E+00 -0.28567581830E+04  0.28567581830E+04  0.00000000000E+00 0. -1.
         23    2    1    2    0    0  0.70131404360E+03  0.48609135859E+03  0.17994828898E+03  0.87684557461E+03  0.91381498993E+02 0.  0.
         11    1    3    3    0    0  0.13873705934E+03  0.84238710204E+02 -0.55953399447E+00  0.16230971940E+03  0.00000000000E+00 0. -1.
        -11    1    3    3    0    0  0.56257698426E+03  0.40185264838E+03  0.18050782297E+03  0.71453585521E+03  0.00000000000E+00 0.  1.
         22    1    1    2    0    0 -0.70131404360E+03 -0.48609135859E+03 -0.24357381345E+04  0.25808809458E+04  0.00000000000E+00 0. -1.
<mgrwt>
<rscale>  0 0.26205505E+04</rscale>
<asrwt>0</asrwt>
<pdfrwt beam="1">  1        2 0.43950126E+00 0.26205505E+04</pdfrwt>
<pdfrwt beam="2">  1       -2 0.92456667E-01 0.26205505E+04</pdfrwt>
<totfact> 0.18721015E+00</totfact>
</mgrwt>
</event>
<event>
 6    1  0.1885829E-005  0.2961755E+04  0.7818608E-02  0.8254737E-01
          2   -1    0    0  501    0  0.00000000000E+00  0.00000000000E+00  0.19136910193E+04  0.19136910193E+04  0.00000000000E+00 0.  1.
         -2   -1    0    0    0  501 -0.00000000000E+00 -0.00000000000E+00 -0.11459519028E+04  0.11459519028E+04  0.00000000000E+00 0. -1.
         23    2    1    2    0    0 -0.74688177042E+03  0.77747016428E+03 -0.66251335061E+03  0.12685777768E+04  0.89852104170E+02 0.  0.
         11    1    3    3    0    0 -0.52853662448E+03  0.51775243785E+03 -0.41238027614E+03  0.84703957550E+03  0.00000000000E+00 0.  1.
        -11    1    3    3    0    0 -0.21834514594E+03  0.25971772643E+03 -0.25013307447E+03  0.42153820126E+03  0.00000000000E+00 0. -1.
         22    1    1    2    0    0  0.74688177042E+03 -0.77747016428E+03  0.14302524671E+04  0.17910651454E+04  0.00000000000E+00 0. -1.
<mgrwt>
<rscale>  0 0.29617548E+04</rscale>
<asrwt>0</asrwt>
<pdfrwt beam="1">  1        2 0.29441400E+00 0.29617548E+04</pdfrwt>
<pdfrwt beam="2">  1       -2 0.17630029E+00 0.29617548E+04</pdfrwt>
<totfact> 0.12329002E+00</totfact>
</mgrwt>
</event>
<event>
 6    1  0.1885829E-005  0.2897584E+04  0.7818608E-02  0.8273597E-01
         -2   -1    0    0    0  501 -0.00000000000E+00  0.00000000000E+00  0.90025330289E+03  0.90025330289E+03  0.00000000000E+00 0.  1.
          2   -1    0    0  501    0  0.00000000000E+00 -0.00000000000E+00 -0.23315635382E+04  0.23315635382E+04  0.00000000000E+00 0. -1.
         23    2    1    2    0    0  0.66252404770E+03 -0.17477111019E+03 -0.21382985612E+04  0.22472786003E+04  0.91963665486E+02 0.  0.
         11    1    3    3    0    0  0.51264976793E+03 -0.94410279632E+02 -0.16148364304E+04  0.16968853180E+04  0.00000000000E+00 0. -1.
        -11    1    3    3    0    0  0.14987427977E+03 -0.80360830558E+02 -0.52346213074E+03  0.55039328225E+03  0.00000000000E+00 0.  1.
         22    1    1    2    0    0 -0.66252404770E+03  0.17477111019E+03  0.70698832586E+03  0.98453824082E+03  0.00000000000E+00 0.  1.
<mgrwt>
<rscale>  0 0.28975837E+04</rscale>
<asrwt>0</asrwt>
<pdfrwt beam="1">  1        2 0.35870207E+00 0.28975837E+04</pdfrwt>
<pdfrwt beam="2">  1       -2 0.13850051E+00 0.28975837E+04</pdfrwt>
<totfact> 0.13867919E+00</totfact>
</mgrwt>
</event>
<event>
 6    1  0.1885829E-005  0.1110114E+04  0.7818608E-02  0.9195389E-01
          2   -1    0    0  501    0  0.00000000000E+00  0.00000000000E+00  0.17634011881E+04  0.17634011881E+04  0.00000000000E+00 0. -1.
         -2   -1    0    0    0  501 -0.00000000000E+00 -0.00000000000E+00 -0.17471264424E+03  0.17471264424E+03  0.00000000000E+00 0.  1.
         23    2    1    2    0    0  0.55010950606E+02  0.48277962835E+02  0.17537036391E+04  0.17575952793E+04  0.91146835224E+02 0.  0.
         13    1    3    3    0    0  0.10709247262E+02  0.57815993127E+02  0.57005645629E+03  0.57308091958E+03  0.00000000000E+00 0.  1.
        -13    1    3    3    0    0  0.44301703343E+02 -0.95380302922E+01  0.11836471828E+04  0.11845143597E+04  0.00000000000E+00 0. -1.
         22    1    1    2    0    0 -0.55010950606E+02 -0.48277962835E+02 -0.16501509519E+03  0.18051855312E+03  0.00000000000E+00 0.  1.
<mgrwt>
<rscale>  0 0.11101144E+04</rscale>
<asrwt>0</asrwt>
<pdfrwt beam="1">  1        2 0.27129248E+00 0.11101144E+04</pdfrwt>
<pdfrwt beam="2">  1       -2 0.26878870E-01 0.11101144E+04</pdfrwt>
<totfact> 0.11280074E+02</totfact>
</mgrwt>
</event>
<event>
 6    1  0.1885829E-005  0.2798346E+04  0.7818608E-02  0.8303782E-01
          2   -1    0    0  501    0  0.00000000000E+00  0.00000000000E+00  0.41444936840E+04  0.41444936840E+04  0.00000000000E+00 0. -1.
         -2   -1    0    0    0  501 -0.00000000000E+00 -0.00000000000E+00 -0.47235796088E+03  0.47235796088E+03  0.00000000000E+00 0.  1.
         23    2    1    2    0    0 -0.38944846086E+03 -0.48260340645E+03  0.39045281968E+04  0.39545960950E+04  0.94412305477E+02 0.  0.
         11    1    3    3    0    0 -0.31317677305E+03 -0.35027702262E+03  0.31400594840E+04  0.31750192514E+04  0.00000000000E+00 0.  1.
        -11    1    3    3    0    0 -0.76271687805E+02 -0.13232638383E+03  0.76446871276E+03  0.77957684356E+03  0.00000000000E+00 0. -1.
         22    1    1    2    0    0  0.38944846086E+03  0.48260340645E+03 -0.23239247365E+03  0.66225554991E+03  0.00000000000E+00 0.  1.
<mgrwt>
<rscale>  0 0.27983456E+04</rscale>
<asrwt>0</asrwt>
<pdfrwt beam="1">  1        2 0.63761439E+00 0.27983456E+04</pdfrwt>
<pdfrwt beam="2">  1       -2 0.72670458E-01 0.27983456E+04</pdfrwt>
<totfact> 0.38712412E-01</totfact>
</mgrwt>
</event>
<event>
 6    1  0.1885829E-005  0.1820527E+04  0.7818608E-02  0.8695459E-01
         -2   -1    0    0    0  501 -0.00000000000E+00  0.00000000000E+00  0.50587998350E+03  0.50587998350E+03  0.00000000000E+00 0.  1.
          2   -1    0    0  501    0  0.00000000000E+00 -0.00000000000E+00 -0.16378978469E+04  0.16378978469E+04  0.00000000000E+00 0. -1.
         23    2    1    2    0    0  0.23073747002E+03  0.20530092664E+03  0.43796118972E+03  0.54370830760E+03  0.91763116253E+02 0.  0.
         13    1    3    3    0    0  0.16052771023E+03  0.16294022827E+03  0.37914164532E+03  0.44279459228E+03  0.00000000000E+00 0. -1.
        -13    1    3    3    0    0  0.70209759790E+02  0.42360698366E+02  0.58819544405E+02  0.10091371532E+03  0.00000000000E+00 0.  1.
         22    1    1    2    0    0 -0.23073747002E+03 -0.20530092664E+03 -0.15699790531E+04  0.16000695228E+04  0.00000000000E+00 0. -1.
<mgrwt>
<rscale>  0 0.18205271E+04</rscale>
<asrwt>0</asrwt>
<pdfrwt beam="1">  1        2 0.25198428E+00 0.18205271E+04</pdfrwt>
<pdfrwt beam="2">  1       -2 0.77827690E-01 0.18205271E+04</pdfrwt>
<totfact> 0.14718196E+01</totfact>
</mgrwt>
</event>
<event>
 6    1  0.1885829E-005  0.1323500E+04  0.7818608E-02  0.9011134E-01
         -2   -1    0    0    0  501 -0.00000000000E+00  0.00000000000E+00  0.18444717007E+03  0.18444717007E+03  0.00000000000E+00 0.  1.
          2   -1    0    0  501    0  0.00000000000E+00 -0.00000000000E+00 -0.23741937319E+04  0.23741937319E+04  0.00000000000E+00 0. -1.
         23    2    1    2    0    0 -0.82429951337E+01 -0.61398345378E+03 -0.63931882946E+03  0.89104689209E+03  0.90511710381E+02 0.  0.
         13    1    3    3    0    0 -0.17160141405E+02 -0.22933865279E+03 -0.30029151545E+03  0.37824024425E+03  0.00000000000E+00 0. -1.
        -13    1    3    3    0    0  0.89171462715E+01 -0.38464480099E+03 -0.33902731401E+03  0.51280664784E+03  0.00000000000E+00 0.  1.
         22    1    1    2    0    0  0.82429951337E+01  0.61398345378E+03 -0.15504277323E+04  0.16675940098E+04  0.00000000000E+00 0.  1.
<mgrwt>
<rscale>  0 0.13235004E+04</rscale>
<asrwt>0</asrwt>
<pdfrwt beam="1">  1        2 0.36526058E+00 0.13235004E+04</pdfrwt>
<pdfrwt beam="2">  1       -2 0.28376487E-01 0.13235004E+04</pdfrwt>
<totfact> 0.45926860E+01</totfact>
</mgrwt>
</event>
<event>
 6    1  0.1885829E-005  0.2630456E+04  0.7818608E-02  0.8357929E-01
          2   -1    0    0  501    0  0.00000000000E+00  0.00000000000E+00  0.26976786151E+04  0.26976786151E+04  0.00000000000E+00 0. -1.
         -2   -1    0    0    0  501 -0.00000000000E+00 -0.00000000000E+00 -0.64122706865E+03  0.64122706865E+03  0.00000000000E+00 0.  1.
         23    2    1    2    0    0 -0.10963842759E+04  0.21376514001E+03  0.15155917116E+03  0.11306554767E+04  0.87507766324E+02 0.  0.
         11    1    3    3    0    0 -0.69051304391E+03  0.10137560590E+03  0.12177197255E+03  0.70845867246E+03  0.00000000000E+00 0. -1.
        -11    1    3    3    0    0 -0.40587123196E+03  0.11238953411E+03  0.29787198610E+02  0.42219680424E+03  0.00000000000E+00 0.  1.
         22    1    1    2    0    0  0.10963842759E+04 -0.21376514001E+03  0.19048923753E+04  0.22082502070E+04  0.00000000000E+00 0. -1.
<mgrwt>
<rscale>  0 0.26304559E+04</rscale>
<asrwt>0</asrwt>
<pdfrwt beam="1">  1        2 0.41502747E+00 0.26304559E+04</pdfrwt>
<pdfrwt beam="2">  1       -2 0.98650320E-01 0.26304559E+04</pdfrwt>
<totfact> 0.20044792E+00</totfact>
</mgrwt>
</event>
<event>
 6    1  0.1885829E-005  0.2686856E+04  0.7818608E-02  0.8339282E-01
         -2   -1    0    0    0  501 -0.00000000000E+00  0.00000000000E+00  0.20679131559E+04  0.20679131559E+04  0.00000000000E+00 0.  1.
          2   -1    0    0  501    0  0.00000000000E+00 -0.00000000000E+00 -0.87276344945E+03  0.87276344945E+03  0.00000000000E+00 0. -1.
         23    2    1    2    0    0  0.90268753602E+02 -0.11592800488E+04  0.13312584066E+04  0.17699485166E+04  0.91597636947E+02 0.  0.
         13    1    3    3    0    0  0.46304348821E+00 -0.17683824436E+03  0.25051780262E+03  0.30664498774E+03  0.00000000000E+00 0. -1.
        -13    1    3    3    0    0  0.89805710114E+02 -0.98244180443E+03  0.10807406040E+04  0.14633035289E+04  0.00000000000E+00 0.  1.
         22    1    1    2    0    0 -0.90268753602E+02  0.11592800488E+04 -0.13610870015E+03  0.11707280887E+04  0.00000000000E+00 0. -1.
<mgrwt>
<rscale>  0 0.26868562E+04</rscale>
<asrwt>0</asrwt>
<pdfrwt beam="1">  1        2 0.13427130E+00 0.26868562E+04</pdfrwt>
<pdfrwt beam="2">  1       -2 0.31814048E+00 0.26868562E+04</pdfrwt>
<totfact> 0.66088770E-01</totfact>
</mgrwt>
</event>
<event>
 6    1  0.1885829E-005  0.2117500E+04  0.7818608E-02  0.8553573E-01
          2   -1    0    0  501    0  0.00000000000E+00  0.00000000000E+00  0.25823282490E+04  0.25823282490E+04  0.00000000000E+00 0. -1.
         -2   -1    0    0    0  501 -0.00000000000E+00 -0.00000000000E+00 -0.43408564779E+03  0.43408564779E+03  0.00000000000E+00 0.  1.
         23    2    1    2    0    0 -0.11023414931E+03 -0.23257907958E+03  0.25364971119E+04  0.25505961631E+04  0.74017515498E+02 0.  0.
         13    1    3    3    0    0 -0.10032991131E+03 -0.12740740166E+03  0.15442982283E+04  0.15527896686E+04  0.00000000000E+00 0. -1.
        -13    1    3    3    0    0 -0.99042379936E+01 -0.10517167792E+03  0.99219888363E+03  0.99780649449E+03  0.00000000000E+00 0.  1.
         22    1    1    2    0    0  0.11023414931E+03  0.23257907958E+03 -0.38825451070E+03  0.46581773368E+03  0.00000000000E+00 0.  1.
<mgrwt>
<rscale>  0 0.21175001E+04</rscale>
<asrwt>0</asrwt>
<pdfrwt beam="1">  1        2 0.39728126E+00 0.21175001E+04</pdfrwt>
<pdfrwt beam="2">  1       -2 0.66782409E-01 0.21175001E+04</pdfrwt>
<totfact> 0.59089923E+00</totfact>
</mgrwt>
</event>
<event>
 6    1  0.1885829E-005  0.2280394E+04  0.7818608E-02  0.8485692E-01
         -2   -1    0    0    0  501 -0.00000000000E+00  0.00000000000E+00  0.47626294938E+03  0.47626294938E+03  0.00000000000E+00 0.  1.
          2   -1    0    0  501    0  0.00000000000E+00 -0.00000000000E+00 -0.27296870837E+04  0.27296870837E+04  0.00000000000E+00 0. -1.
         23    2    1    2    0    0 -0.15810160109E+03 -0.10144980532E+04 -0.18188503098E+04  0.20910254504E+04  0.99842717567E+02 0.  0.
         13    1    3    3    0    0 -0.82961777738E+02 -0.30351591368E+03 -0.61711811450E+03  0.69270436238E+03  0.00000000000E+00 0. -1.
        -13    1    3    3    0    0 -0.75139823355E+02 -0.71098213953E+03 -0.12017321953E+04  0.13983210880E+04  0.00000000000E+00 0.  1.
         22    1    1    2    0    0  0.15810160109E+03  0.10144980532E+04 -0.43457382451E+03  0.11149245827E+04  0.00000000000E+00 0.  1.
<mgrwt>
<rscale>  0 0.22803937E+04</rscale>
<asrwt>0</asrwt>
<pdfrwt beam="1">  1        2 0.41995185E+00 0.22803937E+04</pdfrwt>
<pdfrwt beam="2">  1       -2 0.73271224E-01 0.22803937E+04</pdfrwt>
<totfact> 0.38933601E+00</totfact>
</mgrwt>
</event>
<event>
 6    1  0.1885829E-005  0.2532864E+04  0.7818608E-02  0.8391370E-01
         -2   -1    0    0    0  501 -0.00000000000E+00  0.00000000000E+00  0.14392099484E+04  0.14392099484E+04  0.00000000000E+00 0. -1.
          2   -1    0    0  501    0  0.00000000000E+00 -0.00000000000E+00 -0.11143965575E+04  0.11143965575E+04  0.00000000000E+00 0.  1.
         23    2    1    2    0    0  0.70538365679E+03 -0.35867199088E+03 -0.83225795417E+03  0.11518127273E+04  0.88360376262E+02 0.  0.
         11    1    3    3    0    0  0.18199758239E+03 -0.65542945437E+02 -0.16204142133E+03  0.25234187112E+03  0.00000000000E+00 0.  1.
        -11    1    3    3    0    0  0.52338607440E+03 -0.29312904544E+03 -0.67021653285E+03  0.89947085615E+03  0.00000000000E+00 0. -1.
         22    1    1    2    0    0 -0.70538365679E+03  0.35867199088E+03  0.11570713450E+04  0.14017937786E+04  0.00000000000E+00 0. -1.
<mgrwt>
<rscale>  0 0.25328645E+04</rscale>
<asrwt>0</asrwt>
<pdfrwt beam="1">  1        2 0.17144562E+00 0.25328645E+04</pdfrwt>
<pdfrwt beam="2">  1       -2 0.22141691E+00 0.25328645E+04</pdfrwt>
<totfact> 0.18379572E+00</totfact>
</mgrwt>
</event>
<event>
 6    1  0.1885829E-005  0.3373323E+04  0.7818608E-02  0.8144485E-01
          2   -1    0    0  501    0  0.00000000000E+00  0.00000000000E+00  0.18765894848E+04  0.18765894848E+04  0.00000000000E+00 0. -1.
         -2   -1    0    0    0  501 -0.00000000000E+00 -0.00000000000E+00 -0.15159563286E+04  0.15159563286E+04  0.00000000000E+00 0.  1.
         23    2    1    2    0    0  0.15995657781E+03 -0.14007669674E+04  0.11093075145E+04  0.17962226950E+04  0.90103300543E+02 0.  0.
         11    1    3    3    0    0  0.15634939028E+03 -0.11200639000E+04  0.85993128516E+03  0.14207287169E+04  0.00000000000E+00 0. -1.
        -11    1    3    3    0    0  0.36071875375E+01 -0.28070306742E+03  0.24937622929E+03  0.37549397811E+03  0.00000000000E+00 0.  1.
         22    1    1    2    0    0 -0.15995657781E+03  0.14007669674E+04 -0.74867435824E+03  0.15963231184E+04  0.00000000000E+00 0.  1.
<mgrwt>
<rscale>  0 0.33733234E+04</rscale>
<asrwt>0</asrwt>
<pdfrwt beam="1">  1        2 0.28870607E+00 0.33733234E+04</pdfrwt>
<pdfrwt beam="2">  1       -2 0.23322405E+00 0.33733234E+04</pdfrwt>
<totfact> 0.53024061E-01</totfact>
</mgrwt>
</event>
<event>
 6    1  0.1885829E-005  0.1622443E+04  0.7818608E-02  0.8806878E-01
         -2   -1    0    0    0  501 -0.00000000000E+00  0.00000000000E+00  0.17808630916E+03  0.17808630916E+03  0.00000000000E+00 0.  1.
          2   -1    0    0  501    0  0.00000000000E+00 -0.00000000000E+00 -0.36952873842E+04  0.36952873842E+04  0.00000000000E+00 0. -1.
         23    2    1    2    0    0 -0.17689137274E+03 -0.58022827775E+03 -0.48835446732E+03  0.78438240410E+03  0.93862974909E+02 0.  0.
         11    1    3    3    0    0 -0.11112162929E+03 -0.44188467134E+03 -0.32009976859E+03  0.55684283341E+03  0.00000000000E+00 0. -1.
        -11    1    3    3    0    0 -0.65769743447E+02 -0.13834360641E+03 -0.16825469873E+03  0.22753957069E+03  0.00000000000E+00 0.  1.
         22    1    1    2    0    0  0.17689137274E+03  0.58022827775E+03 -0.30288466077E+04  0.30889912892E+04  0.00000000000E+00 0. -1.
<mgrwt>
<rscale>  0 0.16224427E+04</rscale>
<asrwt>0</asrwt>
<pdfrwt beam="1">  1        2 0.56850572E+00 0.16224427E+04</pdfrwt>
<pdfrwt beam="2">  1       -2 0.27397895E-01 0.16224427E+04</pdfrwt>
<totfact> 0.69330882E+00</totfact>
</mgrwt>
</event>
<event>
 6    1  0.1885829E-005  0.3627668E+04  0.7818608E-02  0.8084183E-01
          2   -1    0    0  501    0  0.00000000000E+00  0.00000000000E+00  0.22842129145E+04  0.22842129145E+04  0.00000000000E+00 0. -1.
         -2   -1    0    0    0  501 -0.00000000000E+00 -0.00000000000E+00 -0.14403181584E+04  0.14403181584E+04  0.00000000000E+00 0.  1.
         23    2    1    2    0    0  0.10948229851E+04 -0.11279432470E+04 -0.50464008404E+03  0.16534348529E+04  0.91059656690E+02 0.  0.
         13    1    3    3    0    0  0.64751957113E+03 -0.70751560984E+03 -0.27149669117E+03  0.99678000907E+03  0.00000000000E+00 0. -1.
        -13    1    3    3    0    0  0.44730341398E+03 -0.42042763719E+03 -0.23314339287E+03  0.65665484382E+03  0.00000000000E+00 0.  1.
         22    1    1    2    0    0 -0.10948229851E+04  0.11279432470E+04  0.13485348402E+04  0.20710962200E+04  0.00000000000E+00 0. -1.
<mgrwt>
<rscale>  0 0.36276678E+04</rscale>
<asrwt>0</asrwt>
<pdfrwt beam="1">  1        2 0.35141737E+00 0.36276678E+04</pdfrwt>
<pdfrwt beam="2">  1       -2 0.22158741E+00 0.36276678E+04</pdfrwt>
<totfact> 0.36346721E-01</totfact>
</mgrwt>
</event>
<event>
 6    1  0.1885829E-005  0.1877384E+04  0.7818608E-02  0.8666196E-01
         -2   -1    0    0    0  501 -0.00000000000E+00  0.00000000000E+00  0.67905913187E+03  0.67905913187E+03  0.00000000000E+00 0. -1.
          2   -1    0    0  501    0  0.00000000000E+00 -0.00000000000E+00 -0.12975935390E+04  0.12975935390E+04  0.00000000000E+00 0.  1.
         23    2    1    2    0    0  0.27066706796E+03 -0.34855934994E+03 -0.11795759470E+04  0.12628446493E+04  0.92859631865E+02 0.  0.
         13    1    3    3    0    0  0.32181014782E+02 -0.62811644671E+02 -0.29164539264E+03  0.30006325244E+03  0.00000000000E+00 0. -1.
        -13    1    3    3    0    0  0.23848605318E+03 -0.28574770527E+03 -0.88793055441E+03  0.96278139683E+03  0.00000000000E+00 0.  1.
         22    1    1    2    0    0 -0.27066706796E+03  0.34855934994E+03  0.56104153995E+03  0.71380802157E+03  0.00000000000E+00 0. -1.
<mgrwt>
<rscale>  0 0.18773841E+04</rscale>
<asrwt>0</asrwt>
<pdfrwt beam="1">  1        2 0.19962977E+00 0.18773841E+04</pdfrwt>
<pdfrwt beam="2">  1       -2 0.10447064E+00 0.18773841E+04</pdfrwt>
<totfact> 0.11580289E+01</totfact>
</mgrwt>
</event>
<event>
 6    1  0.1885829E-005  0.3830706E+04  0.7818608E-02  0.8039597E-01
          2   -1    0    0  501    0  0.00000000000E+00  0.00000000000E+00  0.13603683912E+04  0.13603683912E+04  0.00000000000E+00 0. -1.
         -2   -1    0    0    0  501 -0.00000000000E+00 -0.00000000000E+00 -0.26967523327E+04  0.26967523327E+04  0.00000000000E+00 0.  1.
         23    2    1    2    0    0 -0.84729214358E+03 -0.14559271606E+04  0.29444277407E+03  0.17125048385E+04  0.91369584934E+02 0.  0.
         11    1    3    3    0    0 -0.39404876152E+03 -0.70517446957E+03  0.18525853613E+03  0.82877390415E+03  0.00000000000E+00 0.  1.
        -11    1    3    3    0    0 -0.45324338205E+03 -0.75075269106E+03  0.10918423794E+03  0.88373093435E+03  0.00000000000E+00 0. -1.
         22    1    1    2    0    0  0.84729214358E+03  0.14559271606E+04 -0.16308267157E+04  0.23446158854E+04  0.00000000000E+00 0.  1.
<mgrwt>
<rscale>  0 0.38307057E+04</rscale>
<asrwt>0</asrwt>
<pdfrwt beam="1">  1        2 0.20928745E+00 0.38307057E+04</pdfrwt>
<pdfrwt beam="2">  1       -2 0.41488497E+00 0.38307057E+04</pdfrwt>
<totfact> 0.72234740E-02</totfact>
</mgrwt>
</event>
<event>
 6    1  0.1885829E-005  0.2265588E+04  0.7818608E-02  0.8491614E-01
          2   -1    0    0  501    0  0.00000000000E+00  0.00000000000E+00  0.19850930883E+04  0.19850930883E+04  0.00000000000E+00 0.  1.
         -2   -1    0    0    0  501 -0.00000000000E+00 -0.00000000000E+00 -0.64642953036E+03  0.64642953036E+03  0.00000000000E+00 0. -1.
         23    2    1    2    0    0 -0.71299923886E+03 -0.85964399622E+03  0.45983191559E+03  0.12103608508E+04  0.78563883105E+02 0.  0.
         13    1    3    3    0    0 -0.46131947611E+03 -0.50331060577E+03  0.30008201707E+03  0.74577908384E+03  0.00000000000E+00 0. -1.
        -13    1    3    3    0    0 -0.25167976274E+03 -0.35633339045E+03  0.15974989852E+03  0.46458176697E+03  0.00000000000E+00 0.  1.
         22    1    1    2    0    0  0.71299923886E+03  0.85964399622E+03  0.87883164238E+03  0.14211617679E+04  0.00000000000E+00 0.  1.
<mgrwt>
<rscale>  0 0.22655885E+04</rscale>
<asrwt>0</asrwt>
<pdfrwt beam="1">  1        2 0.30539893E+00 0.22655885E+04</pdfrwt>
<pdfrwt beam="2">  1       -2 0.99450698E-01 0.22655885E+04</pdfrwt>
<totfact> 0.51810221E+00</totfact>
</mgrwt>
</event>
<event>
 6    1  0.1885829E-005  0.2723204E+04  0.7818608E-02  0.8327515E-01
         -1   -1    0    0    0  501 -0.00000000000E+00  0.00000000000E+00  0.76382050355E+03  0.76382050355E+03  0.00000000000E+00 0.  1.
          1   -1    0    0  501    0  0.00000000000E+00 -0.00000000000E+00 -0.24272199428E+04  0.24272199428E+04  0.00000000000E+00 0. -1.
         23    2    1    2    0    0  0.83401258001E+03 -0.92226594021E+03 -0.18691372525E+03  0.12607136575E+04  0.91163246421E+02 0.  0.
         13    1    3    3    0    0  0.51159157039E+03 -0.50391622632E+03 -0.89869765481E+02  0.72369473730E+03  0.00000000000E+00 0. -1.
        -13    1    3    3    0    0  0.32242100962E+03 -0.41834971389E+03 -0.97043959771E+02  0.53701892023E+03  0.00000000000E+00 0.  1.
         22    1    1    2    0    0 -0.83401258001E+03  0.92226594021E+03 -0.14764857140E+04  0.19303267889E+04  0.00000000000E+00 0. -1.
<mgrwt>
<rscale>  0 0.27232043E+04</rscale>
<asrwt>0</asrwt>
<pdfrwt beam="1">  1        1 0.37341845E+00 0.27232043E+04</pdfrwt>
<pdfrwt beam="2">  1       -1 0.11751085E+00 0.27232043E+04</pdfrwt>
<totfact> 0.86351952E-01</totfact>
</mgrwt>
</event>
<event>
 6    1  0.1885829E-005  0.1165502E+04  0.7818608E-02  0.9143600E-01
         -2   -1    0    0    0  501 -0.00000000000E+00  0.00000000000E+00  0.21734922352E+03  0.21734922352E+03  0.00000000000E+00 0.  1.
          2   -1    0    0  501    0  0.00000000000E+00 -0.00000000000E+00 -0.15624575020E+04  0.15624575020E+04  0.00000000000E+00 0. -1.
         23    2    1    2    0    0  0.11181572188E+03 -0.28675523710E+03  0.72592280965E+02  0.32908063217E+03  0.91066467773E+02 0.  0.
         11    1    3    3    0    0  0.90820464134E+02 -0.13860800706E+03  0.74270007409E+01  0.16587856000E+03  0.00000000000E+00 0. -1.
        -11    1    3    3    0    0  0.20995257744E+02 -0.14814723003E+03  0.65165280224E+02  0.16320207217E+03  0.00000000000E+00 0.  1.
         22    1    1    2    0    0 -0.11181572188E+03  0.28675523710E+03 -0.14177005594E+04  0.14507260933E+04  0.00000000000E+00 0. -1.
<mgrwt>
<rscale>  0 0.11655023E+04</rscale>
<asrwt>0</asrwt>
<pdfrwt beam="1">  1        2 0.24037808E+00 0.11655023E+04</pdfrwt>
<pdfrwt beam="2">  1       -2 0.33438342E-01 0.11655023E+04</pdfrwt>
<totfact> 0.96702480E+01</totfact>
</mgrwt>
</event>
<event>
 6    1  0.1885829E-005  0.4492101E+04  0.7818608E-02  0.7912021E-01
          1   -1    0    0  501    0  0.00000000000E+00  0.00000000000E+00  0.28883875382E+04  0.28883875382E+04  0.00000000000E+00 0. -1.
         -1   -1    0    0    0  501 -0.00000000000E+00 -0.00000000000E+00 -0.17465606070E+04  0.17465606070E+04  0.00000000000E+00 0.  1.
         23    2    1    2    0    0  0.19068697172E+04 -0.11847943087E+04  0.54273911213E+03  0.23114172357E+04  0.90521937289E+02 0.  0.
         13    1    3    3    0    0  0.13330117915E+04 -0.77927525374E+03  0.37872764716E+03  0.15898506182E+04  0.00000000000E+00 0.  1.
        -13    1    3    3    0    0  0.57385792570E+03 -0.40551905494E+03  0.16401146497E+03  0.72156661747E+03  0.00000000000E+00 0. -1.
         22    1    1    2    0    0 -0.19068697172E+04  0.11847943087E+04  0.59908781911E+03  0.23235309095E+04  0.00000000000E+00 0.  1.
<mgrwt>
<rscale>  0 0.44921015E+04</rscale>
<asrwt>0</asrwt>
<pdfrwt beam="1">  1        1 0.44436731E+00 0.44921015E+04</pdfrwt>
<pdfrwt beam="2">  1       -1 0.26870163E+00 0.44921015E+04</pdfrwt>
<totfact> 0.28526074E-02</totfact>
</mgrwt>
</event>
<event>
 6    1  0.1885829E-005  0.3987128E+04  0.7818608E-02  0.8007148E-01
          2   -1    0    0  501    0  0.00000000000E+00  0.00000000000E+00  0.22630737174E+04  0.22630737174E+04  0.00000000000E+00 0.  1.
         -2   -1    0    0    0  501 -0.00000000000E+00 -0.00000000000E+00 -0.17561503427E+04  0.17561503427E+04  0.00000000000E+00 0. -1.
         23    2    1    2    0    0 -0.18489958840E+04 -0.41905850337E+03  0.87161591675E+03  0.20885774175E+04  0.89696791985E+02 0.  0.
         11    1    3    3    0    0 -0.14346031894E+04 -0.33719680083E+03  0.71595347434E+03  0.16384069614E+04  0.00000000000E+00 0. -1.
        -11    1    3    3    0    0 -0.41439269451E+03 -0.81861702546E+02  0.15566244241E+03  0.45017045615E+03  0.00000000000E+00 0.  1.
         22    1    1    2    0    0  0.18489958840E+04  0.41905850337E+03 -0.36469254202E+03  0.19306466425E+04  0.00000000000E+00 0. -1.
<mgrwt>
<rscale>  0 0.39871281E+04</rscale>
<asrwt>0</asrwt>
<pdfrwt beam="1">  1        2 0.34816519E+00 0.39871281E+04</pdfrwt>
<pdfrwt beam="2">  1       -2 0.27017698E+00 0.39871281E+04</pdfrwt>
<totfact> 0.18164793E-01</totfact>
</mgrwt>
</event>
<event>
 6    1  0.1885829E-005  0.1038565E+04  0.7818608E-02  0.9267230E-01
         -1   -1    0    0    0  501 -0.00000000000E+00  0.00000000000E+00  0.10096668291E+03  0.10096668291E+03  0.00000000000E+00 0.  1.
          1   -1    0    0  501    0  0.00000000000E+00 -0.00000000000E+00 -0.26707251669E+04  0.26707251669E+04  0.00000000000E+00 0. -1.
         23    2    1    2    0    0  0.26690388034E+03 -0.42548184961E+03 -0.16029544947E+04  0.16822046129E+04  0.89870806624E+02 0.  0.
         11    1    3    3    0    0  0.67998190625E+02 -0.46979420240E+02 -0.26395022589E+03  0.27658731280E+03  0.00000000000E+00 0. -1.
        -11    1    3    3    0    0  0.19890568971E+03 -0.37850242937E+03 -0.13390042688E+04  0.14056173001E+04  0.00000000000E+00 0.  1.
         22    1    1    2    0    0 -0.26690388034E+03  0.42548184961E+03 -0.96680398924E+03  0.10894872369E+04  0.00000000000E+00 0.  1.
<mgrwt>
<rscale>  0 0.10385649E+04</rscale>
<asrwt>0</asrwt>
<pdfrwt beam="1">  1        1 0.41088082E+00 0.10385649E+04</pdfrwt>
<pdfrwt beam="2">  1       -1 0.15533335E-01 0.10385649E+04</pdfrwt>
<totfact> 0.32447378E+01</totfact>
</mgrwt>
</event>
<event>
 6    1  0.1885829E-005  0.3047985E+04  0.7818608E-02  0.8230160E-01
          2   -1    0    0  501    0  0.00000000000E+00  0.00000000000E+00  0.20657497384E+04  0.20657497384E+04  0.00000000000E+00 0. -1.
         -2   -1    0    0    0  501 -0.00000000000E+00 -0.00000000000E+00 -0.11243151600E+04  0.11243151600E+04  0.00000000000E+00 0.  1.
         23    2    1    2    0    0  0.64099805635E+03  0.12380182554E+04  0.11114744684E+04  0.17856143749E+04  0.97342143682E+02 0.  0.
         13    1    3    3    0    0  0.15876405996E+03  0.32934450514E+03  0.34574177811E+03  0.50320096078E+03  0.00000000000E+00 0. -1.
        -13    1    3    3    0    0  0.48223399639E+03  0.90867375028E+03  0.76573269025E+03  0.12824134141E+04  0.00000000000E+00 0.  1.
         22    1    1    2    0    0 -0.64099805635E+03 -0.12380182554E+04 -0.17003988995E+03  0.14044505236E+04  0.00000000000E+00 0. -1.
<mgrwt>
<rscale>  0 0.30479854E+04</rscale>
<asrwt>0</asrwt>
<pdfrwt beam="1">  1        2 0.31780765E+00 0.30479854E+04</pdfrwt>
<pdfrwt beam="2">  1       -2 0.17297156E+00 0.30479854E+04</pdfrwt>
<totfact> 0.10631810E+00</totfact>
</mgrwt>
</event>
<event>
 6    1  0.1885829E-005  0.1319451E+04  0.7818608E-02  0.9014281E-01
          2   -1    0    0  501    0  0.00000000000E+00  0.00000000000E+00  0.82692821047E+03  0.82692821047E+03  0.00000000000E+00 0.  1.
         -2   -1    0    0    0  501 -0.00000000000E+00 -0.00000000000E+00 -0.52633047639E+03  0.52633047639E+03  0.00000000000E+00 0. -1.
         23    2    1    2    0    0 -0.25028756843E+03 -0.16736165693E+03  0.74926524420E+03  0.81292885632E+03  0.93814328120E+02 0.  0.
         11    1    3    3    0    0 -0.20100530200E+03 -0.16332413033E+03  0.55479573704E+03  0.61227135554E+03  0.00000000000E+00 0. -1.
        -11    1    3    3    0    0 -0.49282266432E+02 -0.40375265982E+01  0.19446950716E+03  0.20065750079E+03  0.00000000000E+00 0.  1.
         22    1    1    2    0    0  0.25028756843E+03  0.16736165693E+03 -0.44866751012E+03  0.54032983053E+03  0.00000000000E+00 0. -1.
<mgrwt>
<rscale>  0 0.13194507E+04</rscale>
<asrwt>0</asrwt>
<pdfrwt beam="1">  1        2 0.12721972E+00 0.13194507E+04</pdfrwt>
<pdfrwt beam="2">  1       -2 0.80973920E-01 0.13194507E+04</pdfrwt>
<totfact> 0.43399763E+01</totfact>
</mgrwt>
</event>
<event>
 6    1  0.1885829E-005  0.2072582E+04  0.7818608E-02  0.8573418E-01
          2   -1    0    0  501    0  0.00000000000E+00  0.00000000000E+00  0.28032976132E+04  0.28032976132E+04  0.00000000000E+00 0. -1.
         -2   -1    0    0    0  501 -0.00000000000E+00 -0.00000000000E+00 -0.38308427643E+03  0.38308427643E+03  0.00000000000E+00 0.  1.
         23    2    1    2    0    0 -0.29810026312E+03  0.78632025713E+03  0.21382009724E+04  0.22994240060E+04  0.91016742278E+02 0.  0.
         13    1    3    3    0    0 -0.22785947540E+03  0.67228074669E+03  0.18539747442E+04  0.19852213215E+04  0.00000000000E+00 0.  1.
        -13    1    3    3    0    0 -0.70240787726E+02  0.11403951045E+03  0.28422622817E+03  0.31420268455E+03  0.00000000000E+00 0. -1.
         22    1    1    2    0    0  0.29810026312E+03 -0.78632025713E+03  0.28201236436E+03  0.88695788361E+03  0.00000000000E+00 0.  1.
<mgrwt>
<rscale>  0 0.20725822E+04</rscale>
<asrwt>0</asrwt>
<pdfrwt beam="1">  1        2 0.43127654E+00 0.20725822E+04</pdfrwt>
<pdfrwt beam="2">  1       -2 0.58936044E-01 0.20725822E+04</pdfrwt>
<totfact> 0.57250827E+00</totfact>
</mgrwt>
</event>
<event>
 6    1  0.1885829E-005  0.2785301E+04  0.7818608E-02  0.8307846E-01
          2   -1    0    0  501    0  0.00000000000E+00  0.00000000000E+00  0.13071262633E+04  0.13071262633E+04  0.00000000000E+00 0. -1.
         -2   -1    0    0    0  501 -0.00000000000E+00 -0.00000000000E+00 -0.14837704514E+04  0.14837704514E+04  0.00000000000E+00 0.  1.
         23    2    1    2    0    0  0.46718028073E+03  0.11657194776E+04  0.51119206600E+03  0.13590175203E+04  0.91934634309E+02 0.  0.
         11    1    3    3    0    0  0.12441220243E+03  0.21509600676E+03  0.11042873759E+03  0.27191762415E+03  0.00000000000E+00 0.  1.
        -11    1    3    3    0    0  0.34276807830E+03  0.95062347083E+03  0.40076332841E+03  0.10870998961E+04  0.00000000000E+00 0. -1.
         22    1    1    2    0    0 -0.46718028073E+03 -0.11657194776E+04 -0.68783625409E+03  0.14318791945E+04  0.00000000000E+00 0.  1.
<mgrwt>
<rscale>  0 0.27853009E+04</rscale>
<asrwt>0</asrwt>
<pdfrwt beam="1">  1        2 0.20109635E+00 0.27853009E+04</pdfrwt>
<pdfrwt beam="2">  1       -2 0.22827238E+00 0.27853009E+04</pdfrwt>
<totfact> 0.12504572E+00</totfact>
</mgrwt>
</event>
<event>
 6    1  0.1885829E-005  0.1743804E+04  0.7818608E-02  0.8736768E-01
          2   -1    0    0  501    0  0.00000000000E+00  0.00000000000E+00  0.31273195788E+04  0.31273195788E+04  0.00000000000E+00 0. -1.
         -2   -1    0    0    0  501 -0.00000000000E+00 -0.00000000000E+00 -0.24308777248E+03  0.24308777248E+03  0.00000000000E+00 0.  1.
         23    2    1    2    0    0  0.81227831405E+03  0.30815806833E+03  0.13944980478E+04  0.16458598379E+04  0.97325979049E+02 0.  0.
         13    1    3    3    0    0  0.55764609485E+03  0.24521468260E+03  0.10326672978E+04  0.11989583627E+04  0.00000000000E+00 0. -1.
        -13    1    3    3    0    0  0.25463221920E+03  0.62943385728E+02  0.36183075003E+03  0.44690147520E+03  0.00000000000E+00 0.  1.
         22    1    1    2    0    0 -0.81227831405E+03 -0.30815806833E+03  0.14897337585E+04  0.17245475134E+04  0.00000000000E+00 0.  1.
<mgrwt>
<rscale>  0 0.17438041E+04</rscale>
<asrwt>0</asrwt>
<pdfrwt beam="1">  1        2 0.48112606E+00 0.17438041E+04</pdfrwt>
<pdfrwt beam="2">  1       -2 0.37398121E-01 0.17438041E+04</pdfrwt>
<totfact> 0.92916996E+00</totfact>
</mgrwt>
</event>
<event>
 6    1  0.1885829E-005  0.2161931E+04  0.7818608E-02  0.8534442E-01
          2   -1    0    0  501    0  0.00000000000E+00  0.00000000000E+00  0.22211544516E+04  0.22211544516E+04  0.00000000000E+00 0. -1.
         -2   -1    0    0    0  501 -0.00000000000E+00 -0.00000000000E+00 -0.52607168241E+03  0.52607168241E+03  0.00000000000E+00 0.  1.
         23    2    1    2    0    0  0.66461685599E+03  0.85045716037E+03  0.84755344865E+03  0.13748927576E+04  0.83608011668E+02 0.  0.
         13    1    3    3    0    0  0.45032694969E+03  0.60945924441E+03  0.55272742507E+03  0.93794591456E+03  0.00000000000E+00 0. -1.
        -13    1    3    3    0    0  0.21428990630E+03  0.24099791597E+03  0.29482602359E+03  0.43694684302E+03  0.00000000000E+00 0.  1.
         22    1    1    2    0    0 -0.66461685599E+03 -0.85045716037E+03  0.84752932053E+03  0.13723333764E+04  0.00000000000E+00 0.  1.
<mgrwt>
<rscale>  0 0.21619310E+04</rscale>
<asrwt>0</asrwt>
<pdfrwt beam="1">  1        2 0.34171606E+00 0.21619310E+04</pdfrwt>
<pdfrwt beam="2">  1       -2 0.80934106E-01 0.21619310E+04</pdfrwt>
<totfact> 0.62025811E+00</totfact>
</mgrwt>
</event>
<event>
 6    1  0.1885829E-005  0.1486747E+04  0.7818608E-02  0.8893314E-01
         -2   -1    0    0    0  501 -0.00000000000E+00  0.00000000000E+00  0.42028687242E+03  0.42028687242E+03  0.00000000000E+00 0. -1.
          2   -1    0    0  501    0  0.00000000000E+00 -0.00000000000E+00 -0.13148257105E+04  0.13148257105E+04  0.00000000000E+00 0.  1.
         23    2    1    2    0    0 -0.11958803232E+03 -0.72882731976E+03 -0.38548801903E+03  0.83810461425E+03  0.91256627746E+02 0.  0.
         11    1    3    3    0    0 -0.62274711091E+02 -0.15524916567E+03 -0.74248822537E+02  0.18301183222E+03  0.00000000000E+00 0.  1.
        -11    1    3    3    0    0 -0.57313321232E+02 -0.57357815409E+03 -0.31123919650E+03  0.65509278203E+03  0.00000000000E+00 0. -1.
         22    1    1    2    0    0  0.11958803232E+03  0.72882731976E+03 -0.50905081906E+03  0.89700796869E+03  0.00000000000E+00 0. -1.
<mgrwt>
<rscale>  0 0.14867468E+04</rscale>
<asrwt>0</asrwt>
<pdfrwt beam="1">  1        2 0.20228087E+00 0.14867468E+04</pdfrwt>
<pdfrwt beam="2">  1       -2 0.64659521E-01 0.14867468E+04</pdfrwt>
<totfact> 0.34605016E+01</totfact>
</mgrwt>
</event>
<event>
 6    1  0.1885829E-005  0.9025777E+03  0.7818608E-02  0.9422365E-01
         -2   -1    0    0    0  501 -0.00000000000E+00  0.00000000000E+00  0.12898883126E+03  0.12898883126E+03  0.00000000000E+00 0.  1.
          2   -1    0    0  501    0  0.00000000000E+00 -0.00000000000E+00 -0.15789088765E+04  0.15789088765E+04  0.00000000000E+00 0. -1.
         23    2    1    2    0    0  0.72753406071E+02 -0.75828190862E+01 -0.15661817648E+04  0.15705392544E+04  0.91201272678E+02 0.  0.
         13    1    3    3    0    0  0.65513160563E+02  0.78240150207E+01 -0.51369171216E+03  0.51791154125E+03  0.00000000000E+00 0.  1.
        -13    1    3    3    0    0  0.72402455088E+01 -0.15406834107E+02 -0.10524900526E+04  0.10526277132E+04  0.00000000000E+00 0. -1.
         22    1    1    2    0    0 -0.72753406071E+02  0.75828190862E+01  0.11626171960E+03  0.13735845327E+03  0.00000000000E+00 0.  1.
<mgrwt>
<rscale>  0 0.90257767E+03</rscale>
<asrwt>0</asrwt>
<pdfrwt beam="1">  1        2 0.24290907E+00 0.90257767E+03</pdfrwt>
<pdfrwt beam="2">  1       -2 0.19844435E-01 0.90257767E+03</pdfrwt>
<totfact> 0.24913565E+02</totfact>
</mgrwt>
</event>
<event>
 6    1  0.1885829E-005  0.2059588E+04  0.7818608E-02  0.8579257E-01
         -2   -1    0    0    0  501 -0.00000000000E+00  0.00000000000E+00  0.43999482090E+03  0.43999482090E+03  0.00000000000E+00 0.  1.
          2   -1    0    0  501    0  0.00000000000E+00 -0.00000000000E+00 -0.24102000385E+04  0.24102000385E+04  0.00000000000E+00 0. -1.
         23    2    1    2    0    0 -0.95652127954E+03 -0.47073358323E+02 -0.47063656194E+03  0.10709098872E+04  0.90555804924E+02 0.  0.
         13    1    3    3    0    0 -0.60123886730E+03 -0.11824281084E+02 -0.25029563007E+03  0.65136463798E+03  0.00000000000E+00 0. -1.
        -13    1    3    3    0    0 -0.35528241224E+03 -0.35249077239E+02 -0.22034093187E+03  0.41954524923E+03  0.00000000000E+00 0.  1.
         22    1    1    2    0    0  0.95652127954E+03  0.47073358323E+02 -0.14995686557E+04  0.17792849722E+04  0.00000000000E+00 0. -1.
<mgrwt>
<rscale>  0 0.20595879E+04</rscale>
<asrwt>0</asrwt>
<pdfrwt beam="1">  1        2 0.37080001E+00 0.20595879E+04</pdfrwt>
<pdfrwt beam="2">  1       -2 0.67691511E-01 0.20595879E+04</pdfrwt>
<totfact> 0.72539965E+00</totfact>
</mgrwt>
</event>
<event>
 6    1  0.1885829E-005  0.9028147E+03  0.7818608E-02  0.9422070E-01
         -2   -1    0    0    0  501 -0.00000000000E+00  0.00000000000E+00  0.19830404970E+03  0.19830404970E+03  0.00000000000E+00 0.  1.
          2   -1    0    0  501    0  0.00000000000E+00 -0.00000000000E+00 -0.10275564745E+04  0.10275564745E+04  0.00000000000E+00 0. -1.
         23    2    1    2    0    0 -0.63229245633E+02 -0.15270463292E+03  0.14466439197E+03  0.23801913592E+03  0.91698856834E+02 0.  0.
         13    1    3    3    0    0  0.19737383187E+02 -0.19512309275E+02  0.55290397960E+01  0.28299554579E+02  0.00000000000E+00 0.  1.
        -13    1    3    3    0    0 -0.82966628821E+02 -0.13319232364E+03  0.13913535217E+03  0.20971958135E+03  0.00000000000E+00 0. -1.
         22    1    1    2    0    0  0.63229245633E+02  0.15270463292E+03 -0.97391681679E+03  0.98784138830E+03  0.00000000000E+00 0. -1.
<mgrwt>
<rscale>  0 0.90281473E+03</rscale>
<asrwt>0</asrwt>
<pdfrwt beam="1">  1        2 0.15808561E+00 0.90281473E+03</pdfrwt>
<pdfrwt beam="2">  1       -2 0.30508315E-01 0.90281473E+03</pdfrwt>
<totfact> 0.24059675E+02</totfact>
</mgrwt>
</event>
<event>
 6    1  0.1885829E-005  0.1738221E+04  0.7818608E-02  0.8739861E-01
          2   -1    0    0  501    0  0.00000000000E+00  0.00000000000E+00  0.25038328748E+04  0.25038328748E+04  0.00000000000E+00 0. -1.
         -2   -1    0    0    0  501 -0.00000000000E+00 -0.00000000000E+00 -0.30167877091E+03  0.30167877091E+03  0.00000000000E+00 0.  1.
         23    2    1    2    0    0 -0.38843044300E+03  0.25007607750E+03  0.22877081251E+04  0.23356864185E+04  0.91686020564E+02 0.  0.
         11    1    3    3    0    0 -0.15559583036E+03  0.90612235222E+02  0.11186734367E+04  0.11330714442E+04  0.00000000000E+00 0. -1.
        -11    1    3    3    0    0 -0.23283461263E+03  0.15946384227E+03  0.11690346883E+04  0.12026149743E+04  0.00000000000E+00 0.  1.
         22    1    1    2    0    0  0.38843044300E+03 -0.25007607750E+03 -0.85554021205E+02  0.46982522721E+03  0.00000000000E+00 0.  1.
<mgrwt>
<rscale>  0 0.17382212E+04</rscale>
<asrwt>0</asrwt>
<pdfrwt beam="1">  1        2 0.38520504E+00 0.17382212E+04</pdfrwt>
<pdfrwt beam="2">  1       -2 0.46412120E-01 0.17382212E+04</pdfrwt>
<totfact> 0.14482697E+01</totfact>
</mgrwt>
</event>
<event>
 6    1  0.1885829E-005  0.2505905E+04  0.7818608E-02  0.8400885E-01
          2   -1    0    0  501    0  0.00000000000E+00  0.00000000000E+00  0.20973717168E+04  0.20973717168E+04  0.00000000000E+00 0. -1.
         -2   -1    0    0    0  501 -0.00000000000E+00 -0.00000000000E+00 -0.74850334703E+03  0.74850334703E+03  0.00000000000E+00 0.  1.
         23    2    1    2    0    0 -0.44475468804E+03 -0.10293675652E+04  0.13057785665E+04  0.17237070515E+04  0.93295325469E+02 0.  0.
         13    1    3    3    0    0 -0.31938083033E+03 -0.83036750834E+03  0.10152198838E+04  0.13498835973E+04  0.00000000000E+00 0.  1.
        -13    1    3    3    0    0 -0.12537385771E+03 -0.19900005684E+03  0.29055868273E+03  0.37382345422E+03  0.00000000000E+00 0. -1.
         22    1    1    2    0    0  0.44475468804E+03  0.10293675652E+04  0.43089803237E+02  0.11221680123E+04  0.00000000000E+00 0.  1.
<mgrwt>
<rscale>  0 0.25059048E+04</rscale>
<asrwt>0</asrwt>
<pdfrwt beam="1">  1        2 0.32267257E+00 0.25059048E+04</pdfrwt>
<pdfrwt beam="2">  1       -2 0.11515436E+00 0.25059048E+04</pdfrwt>
<totfact> 0.30887376E+00</totfact>
</mgrwt>
</event>
<event>
 6    1  0.1885829E-005  0.4969388E+04  0.7818608E-02  0.7833247E-01
          2   -1    0    0  501    0  0.00000000000E+00  0.00000000000E+00  0.27796856094E+04  0.27796856094E+04  0.00000000000E+00 0. -1.
         -2   -1    0    0    0  501 -0.00000000000E+00 -0.00000000000E+00 -0.22210081646E+04  0.22210081646E+04  0.00000000000E+00 0.  1.
         23    2    1    2    0    0  0.53323508822E+03 -0.78652303432E+03 -0.20299508792E+04  0.22431668489E+04  0.90215282806E+02 0.  0.
         11    1    3    3    0    0  0.16135406808E+03 -0.17543616135E+03 -0.46815254836E+03  0.52533778708E+03  0.00000000000E+00 0.  1.
        -11    1    3    3    0    0  0.37188102013E+03 -0.61108687296E+03 -0.15617983308E+04  0.17178290618E+04  0.00000000000E+00 0. -1.
         22    1    1    2    0    0 -0.53323508822E+03  0.78652303432E+03  0.25886283240E+04  0.27575269251E+04  0.00000000000E+00 0. -1.
<mgrwt>
<rscale>  0 0.49693881E+04</rscale>
<asrwt>0</asrwt>
<pdfrwt beam="1">  1        2 0.42764394E+00 0.49693881E+04</pdfrwt>
<pdfrwt beam="2">  1       -2 0.34169356E+00 0.49693881E+04</pdfrwt>
<totfact> 0.30457620E-02</totfact>
</mgrwt>
</event>
<event>
 6    1  0.1885829E-005  0.1858550E+04  0.7818608E-02  0.8675768E-01
         -2   -1    0    0    0  501 -0.00000000000E+00  0.00000000000E+00  0.64315007885E+03  0.64315007885E+03  0.00000000000E+00 0.  1.
          2   -1    0    0  501    0  0.00000000000E+00 -0.00000000000E+00 -0.13426915892E+04  0.13426915892E+04  0.00000000000E+00 0. -1.
         23    2    1    2    0    0 -0.23080436989E+03 -0.50297531233E+03  0.44403024223E+03  0.71540427278E+03  0.91572897313E+02 0.  0.
         13    1    3    3    0    0 -0.14831667007E+03 -0.37642922466E+03  0.27775755886E+03  0.49076069250E+03  0.00000000000E+00 0.  1.
        -13    1    3    3    0    0 -0.82487699822E+02 -0.12654608768E+03  0.16627268337E+03  0.22464358028E+03  0.00000000000E+00 0. -1.
         22    1    1    2    0    0  0.23080436989E+03  0.50297531233E+03 -0.11435717526E+04  0.12704373953E+04  0.00000000000E+00 0. -1.
<mgrwt>
<rscale>  0 0.18585502E+04</rscale>
<asrwt>0</asrwt>
<pdfrwt beam="1">  1        2 0.20656793E+00 0.18585502E+04</pdfrwt>
<pdfrwt beam="2">  1       -2 0.98946167E-01 0.18585502E+04</pdfrwt>
<totfact> 0.12427966E+01</totfact>
</mgrwt>
</event>
<event>
 6    1  0.1885829E-005  0.3550390E+04  0.7818608E-02  0.8101951E-01
         -2   -1    0    0    0  501 -0.00000000000E+00  0.00000000000E+00  0.22093416189E+04  0.22093416189E+04  0.00000000000E+00 0. -1.
          2   -1    0    0  501    0  0.00000000000E+00 -0.00000000000E+00 -0.14263606040E+04  0.14263606040E+04  0.00000000000E+00 0.  1.
         23    2    1    2    0    0  0.13429551623E+04  0.35015503170E+02  0.15782489296E+04  0.20745469745E+04  0.90115547865E+02 0.  0.
         13    1    3    3    0    0  0.88828305165E+02  0.20024173267E+02  0.86345076620E+02  0.12548668284E+03  0.00000000000E+00 0.  1.
        -13    1    3    3    0    0  0.12541268571E+04  0.14991329903E+02  0.14919038530E+04  0.19490602916E+04  0.00000000000E+00 0. -1.
         22    1    1    2    0    0 -0.13429551623E+04 -0.35015503170E+02 -0.79526791477E+03  0.15611552484E+04  0.00000000000E+00 0.  1.
<mgrwt>
<rscale>  0 0.35503903E+04</rscale>
<asrwt>0</asrwt>
<pdfrwt beam="1">  1        2 0.21944009E+00 0.35503903E+04</pdfrwt>
<pdfrwt beam="2">  1       -2 0.33989871E+00 0.35503903E+04</pdfrwt>
<totfact> 0.20589376E-01</totfact>
</mgrwt>
</event>
<event>
 6    1  0.1885829E-005  0.6987092E+03  0.7818608E-02  0.9719442E-01
         -1   -1    0    0    0  501 -0.00000000000E+00  0.00000000000E+00  0.26280628482E+03  0.26280628482E+03  0.00000000000E+00 0.  1.
          1   -1    0    0  501    0  0.00000000000E+00 -0.00000000000E+00 -0.46440527395E+03  0.46440527395E+03  0.00000000000E+00 0. -1.
         23    2    1    2    0    0 -0.10198872907E+03 -0.89993830082E+02 -0.43098145199E+03  0.46053402958E+03  0.88577593827E+02 0.  0.
         13    1    3    3    0    0 -0.59288194150E+02 -0.10095049426E+03 -0.33623797090E+03  0.35603660673E+03  0.00000000000E+00 0.  1.
        -13    1    3    3    0    0 -0.42700534923E+02  0.10956664178E+02 -0.94743481093E+02  0.10449742285E+03  0.00000000000E+00 0. -1.
         22    1    1    2    0    0  0.10198872907E+03  0.89993830082E+02  0.22938246286E+03  0.26667752920E+03  0.00000000000E+00 0.  1.
<mgrwt>
<rscale>  0 0.69870917E+03</rscale>
<asrwt>0</asrwt>
<pdfrwt beam="1">  1        1 0.71446965E-01 0.69870917E+03</pdfrwt>
<pdfrwt beam="2">  1       -1 0.40431736E-01 0.69870917E+03</pdfrwt>
<totfact> 0.29668757E+02</totfact>
</mgrwt>
</event>
<event>
 6    1  0.1885829E-005  0.4229831E+04  0.7818608E-02  0.7959722E-01
          2   -1    0    0  501    0  0.00000000000E+00  0.00000000000E+00  0.17072398085E+04  0.17072398085E+04  0.00000000000E+00 0. -1.
         -2   -1    0    0    0  501 -0.00000000000E+00 -0.00000000000E+00 -0.26199412282E+04  0.26199412282E+04  0.00000000000E+00 0.  1.
         23    2    1    2    0    0  0.89368970826E+03 -0.12731023541E+03  0.14985668504E+04  0.17524764205E+04  0.10286791815E+03 0.  0.
         11    1    3    3    0    0  0.42310894066E+03 -0.15022961893E+02  0.74782218503E+03  0.85935143304E+03  0.00000000000E+00 0. -1.
        -11    1    3    3    0    0  0.47058076760E+03 -0.11228727352E+03  0.75074466534E+03  0.89312498742E+03  0.00000000000E+00 0.  1.
         22    1    1    2    0    0 -0.89368970826E+03  0.12731023541E+03 -0.24112682701E+04  0.25747046163E+04  0.00000000000E+00 0.  1.
<mgrwt>
<rscale>  0 0.42298312E+04</rscale>
<asrwt>0</asrwt>
<pdfrwt beam="1">  1        2 0.26265228E+00 0.42298312E+04</pdfrwt>
<pdfrwt beam="2">  1       -2 0.40306788E+00 0.42298312E+04</pdfrwt>
<totfact> 0.53313286E-02</totfact>
</mgrwt>
</event>
<event>
 6    1  0.1885829E-005  0.3359708E+04  0.7818608E-02  0.8147867E-01
          2   -1    0    0  501    0  0.00000000000E+00  0.00000000000E+00  0.17110246027E+04  0.17110246027E+04  0.00000000000E+00 0. -1.
         -2   -1    0    0    0  501 -0.00000000000E+00 -0.00000000000E+00 -0.16492514694E+04  0.16492514694E+04  0.00000000000E+00 0.  1.
         23    2    1    2    0    0  0.40213777940E+03 -0.68891244519E+03  0.15078522724E+04  0.17087737176E+04  0.99869874145E+02 0.  0.
         13    1    3    3    0    0  0.16373364594E+03 -0.19149995869E+03  0.44890066714E+03  0.51477446512E+03  0.00000000000E+00 0.  1.
        -13    1    3    3    0    0  0.23840413346E+03 -0.49741248650E+03  0.10589516052E+04  0.11939992524E+04  0.00000000000E+00 0. -1.
         22    1    1    2    0    0 -0.40213777940E+03  0.68891244519E+03 -0.14460791390E+04  0.16515023545E+04  0.00000000000E+00 0.  1.
<mgrwt>
<rscale>  0 0.33597082E+04</rscale>
<asrwt>0</asrwt>
<pdfrwt beam="1">  1        2 0.26323455E+00 0.33597082E+04</pdfrwt>
<pdfrwt beam="2">  1       -2 0.25373100E+00 0.33597082E+04</pdfrwt>
<totfact> 0.48990182E-01</totfact>
</mgrwt>
</event>
<event>
 6    1  0.1885829E-005  0.4348725E+04  0.7818608E-02  0.7937669E-01
         -2   -1    0    0    0  501 -0.00000000000E+00  0.00000000000E+00  0.20401428250E+04  0.20401428250E+04  0.00000000000E+00 0. -1.
          2   -1    0    0  501    0  0.00000000000E+00 -0.00000000000E+00 -0.23174123495E+04  0.23174123495E+04  0.00000000000E+00 0.  1.
         23    2    1    2    0    0  0.28130717075E+03 -0.20445217944E+04  0.54429410684E+03  0.21362560293E+04  0.90170149170E+02 0.  0.
         13    1    3    3    0    0  0.59945193617E+02 -0.22661964468E+03  0.59798001582E+02  0.24192083537E+03  0.00000000000E+00 0. -1.
        -13    1    3    3    0    0  0.22136197713E+03 -0.18179021498E+04  0.48449610526E+03  0.18943351939E+04  0.00000000000E+00 0.  1.
         22    1    1    2    0    0 -0.28130717075E+03  0.20445217944E+04 -0.82156363133E+03  0.22212991452E+04  0.00000000000E+00 0.  1.
<mgrwt>
<rscale>  0 0.43487250E+04</rscale>
<asrwt>0</asrwt>
<pdfrwt beam="1">  1        2 0.35652498E+00 0.43487250E+04</pdfrwt>
<pdfrwt beam="2">  1       -2 0.31386813E+00 0.43487250E+04</pdfrwt>
<totfact> 0.88794366E-02</totfact>
</mgrwt>
</event>
<event>
 6    1  0.1885829E-005  0.1915745E+04  0.7818608E-02  0.8647059E-01
          2   -1    0    0  501    0  0.00000000000E+00  0.00000000000E+00  0.19547792504E+04  0.19547792504E+04  0.00000000000E+00 0. -1.
         -2   -1    0    0    0  501 -0.00000000000E+00 -0.00000000000E+00 -0.46937242438E+03  0.46937242438E+03  0.00000000000E+00 0.  1.
         23    2    1    2    0    0 -0.70572729343E+03 -0.53673653661E+03  0.11960032278E+04  0.14914718985E+04  0.89036962414E+02 0.  0.
         11    1    3    3    0    0 -0.56861616058E+03 -0.43609433423E+03  0.10215821784E+04  0.12478512546E+04  0.00000000000E+00 0. -1.
        -11    1    3    3    0    0 -0.13711113285E+03 -0.10064220238E+03  0.17442104938E+03  0.24362064387E+03  0.00000000000E+00 0.  1.
         22    1    1    2    0    0  0.70572729343E+03  0.53673653661E+03  0.28940359822E+03  0.93267977628E+03  0.00000000000E+00 0.  1.
<mgrwt>
<rscale>  0 0.19157447E+04</rscale>
<asrwt>0</asrwt>
<pdfrwt beam="1">  1        2 0.30073526E+00 0.19157447E+04</pdfrwt>
<pdfrwt beam="2">  1       -2 0.72211143E-01 0.19157447E+04</pdfrwt>
<totfact> 0.11497161E+01</totfact>
</mgrwt>
</event>
<event>
 6    1  0.1885829E-005  0.2002125E+04  0.7818608E-02  0.8605628E-01
         -2   -1    0    0    0  501 -0.00000000000E+00  0.00000000000E+00  0.29421646668E+03  0.29421646668E+03  0.00000000000E+00 0.  1.
          2   -1    0    0  501    0  0.00000000000E+00 -0.00000000000E+00 -0.34060844114E+04  0.34060844114E+04  0.00000000000E+00 0. -1.
         23    2    1    2    0    0  0.59435143447E+03  0.73690999470E+03 -0.21479974177E+04  0.23492507825E+04  0.93788936523E+02 0.  0.
         13    1    3    3    0    0  0.44049092099E+03  0.50856269658E+03 -0.16087455749E+04  0.17437690767E+04  0.00000000000E+00 0. -1.
        -13    1    3    3    0    0  0.15386051347E+03  0.22834729812E+03 -0.53925184272E+03  0.60548170579E+03  0.00000000000E+00 0.  1.
         22    1    1    2    0    0 -0.59435143447E+03 -0.73690999470E+03 -0.96387052704E+03  0.13510500956E+04  0.00000000000E+00 0.  1.
<mgrwt>
<rscale>  0 0.20021250E+04</rscale>
<asrwt>0</asrwt>
<pdfrwt beam="1">  1        2 0.52401303E+00 0.20021250E+04</pdfrwt>
<pdfrwt beam="2">  1       -2 0.45264068E-01 0.20021250E+04</pdfrwt>
<totfact> 0.40799710E+00</totfact>
</mgrwt>
</event>
<event>
 6    1  0.1885829E-005  0.3954581E+04  0.7818608E-02  0.8013772E-01
         -2   -1    0    0    0  501 -0.00000000000E+00  0.00000000000E+00  0.15870812066E+04  0.15870812066E+04  0.00000000000E+00 0.  1.
          2   -1    0    0  501    0  0.00000000000E+00 -0.00000000000E+00 -0.24634391524E+04  0.24634391524E+04  0.00000000000E+00 0. -1.
         23    2    1    2    0    0 -0.93636651625E+03 -0.14585665165E+04 -0.14107163486E+04  0.22367570232E+04  0.93609981802E+02 0.  0.
         11    1    3    3    0    0 -0.69969558058E+03 -0.11015216914E+04 -0.11124935480E+04  0.17148078132E+04  0.00000000000E+00 0. -1.
        -11    1    3    3    0    0 -0.23667093567E+03 -0.35704482511E+03 -0.29822280063E+03  0.52194920992E+03  0.00000000000E+00 0.  1.
         22    1    1    2    0    0  0.93636651625E+03  0.14585665165E+04  0.53435840277E+03  0.18137633358E+04  0.00000000000E+00 0.  1.
<mgrwt>
<rscale>  0 0.39545811E+04</rscale>
<asrwt>0</asrwt>
<pdfrwt beam="1">  1        2 0.37899064E+00 0.39545811E+04</pdfrwt>
<pdfrwt beam="2">  1       -2 0.24416634E+00 0.39545811E+04</pdfrwt>
<totfact> 0.20202317E-01</totfact>
</mgrwt>
</event>
<event>
 6    1  0.1885829E-005  0.3425134E+04  0.7818608E-02  0.8131765E-01
          1   -1    0    0  501    0  0.00000000000E+00  0.00000000000E+00  0.70917245064E+03  0.70917245064E+03  0.00000000000E+00 0. -1.
         -1   -1    0    0    0  501 -0.00000000000E+00 -0.00000000000E+00 -0.41356445660E+04  0.41356445660E+04  0.00000000000E+00 0.  1.
         23    2    1    2    0    0  0.13946470198E+04  0.70640525703E+03 -0.26987446040E+04  0.31203936267E+04  0.97904294111E+02 0.  0.
         13    1    3    3    0    0  0.12167624876E+04  0.65029628662E+03 -0.23590232275E+04  0.27328349382E+04  0.00000000000E+00 0.  1.
        -13    1    3    3    0    0  0.17788453219E+03  0.56108970408E+02 -0.33972137647E+03  0.38755868844E+03  0.00000000000E+00 0. -1.
         22    1    1    2    0    0 -0.13946470198E+04 -0.70640525703E+03 -0.72772751133E+03  0.17244233899E+04  0.00000000000E+00 0. -1.
<mgrwt>
<rscale>  0 0.34251337E+04</rscale>
<asrwt>0</asrwt>
<pdfrwt beam="1">  1        1 0.10910345E+00 0.34251337E+04</pdfrwt>
<pdfrwt beam="2">  1       -1 0.63625301E+00 0.34251337E+04</pdfrwt>
<totfact> 0.70825294E-03</totfact>
</mgrwt>
</event>
<event>
 6    1  0.1885829E-005  0.2348447E+04  0.7818608E-02  0.8459060E-01
         -1   -1    0    0    0  501 -0.00000000000E+00  0.00000000000E+00  0.77942431158E+03  0.77942431158E+03  0.00000000000E+00 0.  1.
          1   -1    0    0  501    0  0.00000000000E+00 -0.00000000000E+00 -0.17689994527E+04  0.17689994527E+04  0.00000000000E+00 0. -1.
         23    2    1    2    0    0 -0.55801036571E+03 -0.61989765381E+03 -0.13897771679E+04  0.16233235904E+04  0.89723091884E+02 0.  0.
         13    1    3    3    0    0 -0.53226487213E+03 -0.55505425858E+03 -0.12802843334E+04  0.14934922492E+04  0.00000000000E+00 0. -1.
        -13    1    3    3    0    0 -0.25745493575E+02 -0.64843395230E+02 -0.10949283452E+03  0.12983134119E+03  0.00000000000E+00 0.  1.
         22    1    1    2    0    0  0.55801036571E+03  0.61989765381E+03  0.40020202682E+03  0.92510017387E+03  0.00000000000E+00 0. -1.
<mgrwt>
<rscale>  0 0.23484473E+04</rscale>
<asrwt>0</asrwt>
<pdfrwt beam="1">  1        1 0.27215376E+00 0.23484473E+04</pdfrwt>
<pdfrwt beam="2">  1       -1 0.11991143E+00 0.23484473E+04</pdfrwt>
<totfact> 0.23873249E+00</totfact>
</mgrwt>
</event>
<event>
 6    1  0.1885829E-005  0.1677347E+04  0.7818608E-02  0.8774391E-01
         -2   -1    0    0    0  501 -0.00000000000E+00  0.00000000000E+00  0.34225134504E+03  0.34225134504E+03  0.00000000000E+00 0.  1.
          2   -1    0    0  501    0  0.00000000000E+00 -0.00000000000E+00 -0.20551355660E+04  0.20551355660E+04  0.00000000000E+00 0. -1.
         23    2    1    2    0    0  0.59246125908E+03 -0.44214881738E+03 -0.30045444471E+03  0.80318999939E+03  0.91298310780E+02 0.  0.
         13    1    3    3    0    0  0.34692787682E+03 -0.22373802647E+03 -0.12881595208E+03  0.43244792255E+03  0.00000000000E+00 0. -1.
        -13    1    3    3    0    0  0.24553338226E+03 -0.21841079091E+03 -0.17163849263E+03  0.37074207685E+03  0.00000000000E+00 0.  1.
         22    1    1    2    0    0 -0.59246125908E+03  0.44214881738E+03 -0.14124297762E+04  0.15941969116E+04  0.00000000000E+00 0. -1.
<mgrwt>
<rscale>  0 0.16773466E+04</rscale>
<asrwt>0</asrwt>
<pdfrwt beam="1">  1        2 0.31617470E+00 0.16773466E+04</pdfrwt>
<pdfrwt beam="2">  1       -2 0.52654054E-01 0.16773466E+04</pdfrwt>
<totfact> 0.20196889E+01</totfact>
</mgrwt>
</event>
<event>
 6    1  0.1885829E-005  0.3265513E+04  0.7818608E-02  0.8171727E-01
          2   -1    0    0  501    0  0.00000000000E+00  0.00000000000E+00  0.37222506274E+04  0.37222506274E+04  0.00000000000E+00 0. -1.
         -2   -1    0    0    0  501 -0.00000000000E+00 -0.00000000000E+00 -0.71620460713E+03  0.71620460713E+03  0.00000000000E+00 0.  1.
         23    2    1    2    0    0  0.11523841529E+04  0.40428069620E+03  0.33800863646E+02  0.12250966507E+04  0.91033993103E+02 0.  0.
         11    1    3    3    0    0  0.86165571224E+03  0.30936932403E+03  0.64210868201E+02  0.91775976196E+03  0.00000000000E+00 0. -1.
        -11    1    3    3    0    0  0.29072844069E+03  0.94911372174E+02 -0.30410004555E+02  0.30733688872E+03  0.00000000000E+00 0.  1.
         22    1    1    2    0    0 -0.11523841529E+04 -0.40428069620E+03  0.29722451566E+04  0.32133585838E+04  0.00000000000E+00 0. -1.
<mgrwt>
<rscale>  0 0.32655125E+04</rscale>
<asrwt>0</asrwt>
<pdfrwt beam="1">  1        2 0.57265393E+00 0.32655125E+04</pdfrwt>
<pdfrwt beam="2">  1       -2 0.11018533E+00 0.32655125E+04</pdfrwt>
<totfact> 0.30745979E-01</totfact>
</mgrwt>
</event>
<event>
 6    1  0.1885829E-005  0.3087333E+04  0.7818608E-02  0.8219223E-01
         -1   -1    0    0    0  501 -0.00000000000E+00  0.00000000000E+00  0.99294901984E+03  0.99294901984E+03  0.00000000000E+00 0.  1.
          1   -1    0    0  501    0  0.00000000000E+00 -0.00000000000E+00 -0.23998270961E+04  0.23998270961E+04  0.00000000000E+00 0. -1.
         23    2    1    2    0    0 -0.52719556425E+03 -0.14190567771E+04 -0.37953563563E+03  0.15632707757E+04  0.90060645517E+02 0.  0.
         13    1    3    3    0    0 -0.10312125221E+03 -0.20153329431E+03 -0.38168906295E+02  0.22957902078E+03  0.00000000000E+00 0. -1.
        -13    1    3    3    0    0 -0.42407431205E+03 -0.12175234828E+04 -0.34136672934E+03  0.13336917549E+04  0.00000000000E+00 0.  1.
         22    1    1    2    0    0  0.52719556425E+03  0.14190567771E+04 -0.10273424406E+04  0.18295053402E+04  0.00000000000E+00 0. -1.
<mgrwt>
<rscale>  0 0.30873328E+04</rscale>
<asrwt>0</asrwt>
<pdfrwt beam="1">  1        1 0.36920417E+00 0.30873328E+04</pdfrwt>
<pdfrwt beam="2">  1       -1 0.15276139E+00 0.30873328E+04</pdfrwt>
<totfact> 0.44563968E-01</totfact>
</mgrwt>
</event>
<event>
 6    1  0.1885829E-005  0.4509187E+04  0.7818608E-02  0.7909030E-01
         -2   -1    0    0    0  501 -0.00000000000E+00  0.00000000000E+00  0.29389049311E+04  0.29389049311E+04  0.00000000000E+00 0.  1.
          2   -1    0    0  501    0  0.00000000000E+00 -0.00000000000E+00 -0.17296214286E+04  0.17296214286E+04  0.00000000000E+00 0. -1.
         23    2    1    2    0    0  0.60285436884E+03 -0.49689019372E+03  0.27935544538E+04  0.29021040711E+04  0.89040993716E+02 0.  0.
         11    1    3    3    0    0  0.21822611495E+03 -0.13120637039E+03  0.84037918814E+03  0.87810872261E+03  0.00000000000E+00 0.  1.
        -11    1    3    3    0    0  0.38462825390E+03 -0.36568382333E+03  0.19531752657E+04  0.20239953485E+04  0.00000000000E+00 0. -1.
         22    1    1    2    0    0 -0.60285436884E+03  0.49689019372E+03 -0.15842709513E+04  0.17664222887E+04  0.00000000000E+00 0. -1.
<mgrwt>
<rscale>  0 0.45091875E+04</rscale>
<asrwt>0</asrwt>
<pdfrwt beam="1">  1        2 0.26609560E+00 0.45091875E+04</pdfrwt>
<pdfrwt beam="2">  1       -2 0.45213922E+00 0.45091875E+04</pdfrwt>
<totfact> 0.24052067E-02</totfact>
</mgrwt>
</event>
<event>
 6    1  0.1885829E-005  0.2308427E+04  0.7818608E-02  0.8474606E-01
          2   -1    0    0  501    0  0.00000000000E+00  0.00000000000E+00  0.19921243812E+04  0.19921243812E+04  0.00000000000E+00 0. -1.
         -2   -1    0    0    0  501 -0.00000000000E+00 -0.00000000000E+00 -0.66873749247E+03  0.66873749247E+03  0.00000000000E+00 0.  1.
         23    2    1    2    0    0  0.18902264901E+03  0.11364477738E+04  0.63355862614E+03  0.13180639975E+04  0.93021849707E+02 0.  0.
         13    1    3    3    0    0  0.17290441394E+03  0.10029184951E+04  0.59160679189E+03  0.11771746006E+04  0.00000000000E+00 0.  1.
        -13    1    3    3    0    0  0.16118235073E+02  0.13352927869E+03  0.41951834253E+02  0.14088939693E+03  0.00000000000E+00 0. -1.
         22    1    1    2    0    0 -0.18902264901E+03 -0.11364477738E+04  0.68982826262E+03  0.13427978762E+04  0.00000000000E+00 0. -1.
<mgrwt>
<rscale>  0 0.23084265E+04</rscale>
<asrwt>0</asrwt>
<pdfrwt beam="1">  1        2 0.30648067E+00 0.23084265E+04</pdfrwt>
<pdfrwt beam="2">  1       -2 0.10288269E+00 0.23084265E+04</pdfrwt>
<totfact> 0.47194140E+00</totfact>
</mgrwt>
</event>
<event>
 6    1  0.1885829E-005  0.1366820E+04  0.7818608E-02  0.8978192E-01
         -2   -1    0    0    0  501 -0.00000000000E+00  0.00000000000E+00  0.22347414727E+03  0.22347414727E+03  0.00000000000E+00 0.  1.
          2   -1    0    0  501    0  0.00000000000E+00 -0.00000000000E+00 -0.20899471633E+04  0.20899471633E+04  0.00000000000E+00 0. -1.
         23    2    1    2    0    0  0.50582099745E+03  0.16611641468E+03 -0.22037121288E+03  0.58336330835E+03  0.91102872511E+02 0.  0.
         11    1    3    3    0    0  0.35116034158E+03  0.74989421095E+02 -0.12588840351E+03  0.38050609576E+03  0.00000000000E+00 0. -1.
        -11    1    3    3    0    0  0.15466065587E+03  0.91126993585E+02 -0.94482809362E+02  0.20285721259E+03  0.00000000000E+00 0.  1.
         22    1    1    2    0    0 -0.50582099745E+03 -0.16611641468E+03 -0.16461018031E+04  0.17300580022E+04  0.00000000000E+00 0. -1.
<mgrwt>
<rscale>  0 0.13668199E+04</rscale>
<asrwt>0</asrwt>
<pdfrwt beam="1">  1        2 0.32153035E+00 0.13668199E+04</pdfrwt>
<pdfrwt beam="2">  1       -2 0.34380637E-01 0.13668199E+04</pdfrwt>
<totfact> 0.46084896E+01</totfact>
</mgrwt>
</event>
<event>
 6    1  0.1885829E-005  0.3041656E+04  0.7818608E-02  0.8231935E-01
          2   -1    0    0  501    0  0.00000000000E+00  0.00000000000E+00  0.18833032889E+04  0.18833032889E+04  0.00000000000E+00 0.  1.
         -2   -1    0    0    0  501 -0.00000000000E+00 -0.00000000000E+00 -0.12281172411E+04  0.12281172411E+04  0.00000000000E+00 0. -1.
         23    2    1    2    0    0  0.55379305880E+03 -0.53527156306E+03 -0.10119106916E+04  0.12750071951E+04  0.92074435031E+02 0.  0.
         13    1    3    3    0    0  0.17420904126E+03 -0.11968507864E+03 -0.24211601646E+03  0.32139302036E+03  0.00000000000E+00 0. -1.
        -13    1    3    3    0    0  0.37958401754E+03 -0.41558648441E+03 -0.76979467510E+03  0.95361417471E+03  0.00000000000E+00 0.  1.
         22    1    1    2    0    0 -0.55379305880E+03  0.53527156306E+03  0.16670967394E+04  0.18364133349E+04  0.00000000000E+00 0.  1.
<mgrwt>
<rscale>  0 0.30416556E+04</rscale>
<asrwt>0</asrwt>
<pdfrwt beam="1">  1        2 0.28973897E+00 0.30416556E+04</pdfrwt>
<pdfrwt beam="2">  1       -2 0.18894111E+00 0.30416556E+04</pdfrwt>
<totfact> 0.10428210E+00</totfact>
</mgrwt>
</event>
<event>
 6    1  0.1885829E-005  0.2121053E+04  0.7818608E-02  0.8552026E-01
          2   -1    0    0  501    0  0.00000000000E+00  0.00000000000E+00  0.35684901641E+04  0.35684901641E+04  0.00000000000E+00 0.  1.
         -2   -1    0    0    0  501 -0.00000000000E+00 -0.00000000000E+00 -0.31517985691E+03  0.31517985691E+03  0.00000000000E+00 0. -1.
         23    2    1    2    0    0  0.30852648040E+03 -0.74221710466E+03  0.36833040897E+03  0.88881045290E+03  0.90784973682E+02 0.  0.
         11    1    3    3    0    0  0.17164437742E+03 -0.41544882853E+03  0.15619124814E+03  0.47587312114E+03  0.00000000000E+00 0.  1.
        -11    1    3    3    0    0  0.13688210298E+03 -0.32676827614E+03  0.21213916083E+03  0.41293733176E+03  0.00000000000E+00 0. -1.
         22    1    1    2    0    0 -0.30852648040E+03  0.74221710466E+03  0.28849798982E+04  0.29948595681E+04  0.00000000000E+00 0.  1.
<mgrwt>
<rscale>  0 0.21210528E+04</rscale>
<asrwt>0</asrwt>
<pdfrwt beam="1">  1        2 0.54899846E+00 0.21210528E+04</pdfrwt>
<pdfrwt beam="2">  1       -2 0.48489211E-01 0.21210528E+04</pdfrwt>
<totfact> 0.27079709E+00</totfact>
</mgrwt>
</event>
<event>
 6    1  0.1885829E-005  0.8091377E+03  0.7818608E-02  0.9546884E-01
         -2   -1    0    0    0  501 -0.00000000000E+00  0.00000000000E+00  0.25556208505E+03  0.25556208505E+03  0.00000000000E+00 0.  1.
          2   -1    0    0  501    0  0.00000000000E+00 -0.00000000000E+00 -0.64045474816E+03  0.64045474816E+03  0.00000000000E+00 0. -1.
         23    2    1    2    0    0  0.39546414412E+03 -0.10751019676E+02 -0.25528015743E+03  0.47971540955E+03  0.91931722864E+02 0.  0.
         11    1    3    3    0    0  0.12116537797E+03 -0.45451914805E+02 -0.73504985966E+02  0.14882845272E+03  0.00000000000E+00 0.  1.
        -11    1    3    3    0    0  0.27429876616E+03  0.34700895129E+02 -0.18177517146E+03  0.33088695683E+03  0.00000000000E+00 0. -1.
         22    1    1    2    0    0 -0.39546414412E+03  0.10751019676E+02 -0.12961250569E+03  0.41630142366E+03  0.00000000000E+00 0.  1.
<mgrwt>
<rscale>  0 0.80913769E+03</rscale>
<asrwt>0</asrwt>
<pdfrwt beam="1">  1        2 0.98531499E-01 0.80913769E+03</pdfrwt>
<pdfrwt beam="2">  1       -2 0.39317244E-01 0.80913769E+03</pdfrwt>
<totfact> 0.28166728E+02</totfact>
</mgrwt>
</event>
<event>
 6    1  0.1885829E-005  0.2296071E+04  0.7818608E-02  0.8479472E-01
         -2   -1    0    0    0  501 -0.00000000000E+00  0.00000000000E+00  0.12600096780E+04  0.12600096780E+04  0.00000000000E+00 0. -1.
          2   -1    0    0  501    0  0.00000000000E+00 -0.00000000000E+00 -0.10460118151E+04  0.10460118151E+04  0.00000000000E+00 0.  1.
         23    2    1    2    0    0  0.42055184913E+03 -0.37702279696E+03 -0.89445072324E+03  0.10619683128E+04  0.93405320660E+02 0.  0.
         11    1    3    3    0    0  0.22946771330E+03 -0.14387237781E+03 -0.40965753692E+03  0.49109468548E+03  0.00000000000E+00 0. -1.
        -11    1    3    3    0    0  0.19108413582E+03 -0.23315041915E+03 -0.48479318632E+03  0.57087362736E+03  0.00000000000E+00 0.  1.
         22    1    1    2    0    0 -0.42055184913E+03  0.37702279696E+03  0.11084485861E+04  0.12440531803E+04  0.00000000000E+00 0. -1.
<mgrwt>
<rscale>  0 0.22960706E+04</rscale>
<asrwt>0</asrwt>
<pdfrwt beam="1">  1        2 0.16092489E+00 0.22960706E+04</pdfrwt>
<pdfrwt beam="2">  1       -2 0.19384764E+00 0.22960706E+04</pdfrwt>
<totfact> 0.31185600E+00</totfact>
</mgrwt>
</event>
<event>
 6    1  0.1885829E-005  0.5562664E+04  0.7818608E-02  0.7747125E-01
         -2   -1    0    0    0  501 -0.00000000000E+00  0.00000000000E+00  0.41316428959E+04  0.41316428959E+04  0.00000000000E+00 0.  1.
          2   -1    0    0  501    0  0.00000000000E+00 -0.00000000000E+00 -0.18723318469E+04  0.18723318469E+04  0.00000000000E+00 0. -1.
         23    2    1    2    0    0 -0.27370100617E+04  0.48928588388E+03  0.10976638785E+04  0.29906627936E+04  0.92591582864E+02 0.  0.
         13    1    3    3    0    0 -0.43726575877E+03  0.97424412460E+02  0.14671212142E+03  0.47139930686E+03  0.00000000000E+00 0. -1.
        -13    1    3    3    0    0 -0.22997443029E+04  0.39186147142E+03  0.95095175707E+03  0.25192634868E+04  0.00000000000E+00 0.  1.
         22    1    1    2    0    0  0.27370100617E+04 -0.48928588388E+03  0.11616471705E+04  0.30133119491E+04  0.00000000000E+00 0. -1.
<mgrwt>
<rscale>  0 0.55626636E+04</rscale>
<asrwt>0</asrwt>
<pdfrwt beam="1">  1        2 0.28805105E+00 0.55626636E+04</pdfrwt>
<pdfrwt beam="2">  1       -2 0.63563737E+00 0.55626636E+04</pdfrwt>
<totfact> 0.20938028E-03</totfact>
</mgrwt>
</event>
<event>
 6    1  0.1885829E-005  0.3494180E+04  0.7818608E-02  0.8115171E-01
         -2   -1    0    0    0  501 -0.00000000000E+00  0.00000000000E+00  0.90912809447E+03  0.90912809447E+03  0.00000000000E+00 0.  1.
          2   -1    0    0  501    0  0.00000000000E+00 -0.00000000000E+00 -0.33574176794E+04  0.33574176794E+04  0.00000000000E+00 0. -1.
         23    2    1    2    0    0 -0.53463357951E+03 -0.15730518549E+04 -0.56976231951E+03  0.17587200444E+04  0.90232430619E+02 0.  0.
         13    1    3    3    0    0 -0.36539989777E+03 -0.99581204781E+03 -0.40048385552E+03  0.11338192265E+04  0.00000000000E+00 0. -1.
        -13    1    3    3    0    0 -0.16923368174E+03 -0.57723980705E+03 -0.16927846399E+03  0.62490081793E+03  0.00000000000E+00 0.  1.
         22    1    1    2    0    0  0.53463357951E+03  0.15730518549E+04 -0.18785272654E+04  0.25078257295E+04  0.00000000000E+00 0. -1.
<mgrwt>
<rscale>  0 0.34941796E+04</rscale>
<asrwt>0</asrwt>
<pdfrwt beam="1">  1        2 0.51652580E+00 0.34941796E+04</pdfrwt>
<pdfrwt beam="2">  1       -2 0.13986586E+00 0.34941796E+04</pdfrwt>
<totfact> 0.30127021E-01</totfact>
</mgrwt>
</event>
<event>
 6    1  0.1885829E-005  0.3909238E+04  0.7818608E-02  0.8023111E-01
          2   -1    0    0  501    0  0.00000000000E+00  0.00000000000E+00  0.30726280872E+04  0.30726280872E+04  0.00000000000E+00 0. -1.
         -2   -1    0    0    0  501 -0.00000000000E+00 -0.00000000000E+00 -0.12434098804E+04  0.12434098804E+04  0.00000000000E+00 0.  1.
         23    2    1    2    0    0  0.26743530905E+03 -0.16885145373E+04 -0.12858408975E+03  0.17168856405E+04  0.92517281757E+02 0.  0.
         13    1    3    3    0    0  0.11719686821E+03 -0.47337977224E+03 -0.34746141115E+02  0.48890777147E+03  0.00000000000E+00 0.  1.
        -13    1    3    3    0    0  0.15023844084E+03 -0.12151347650E+04 -0.93837948638E+02  0.12279778691E+04  0.00000000000E+00 0. -1.
         22    1    1    2    0    0 -0.26743530905E+03  0.16885145373E+04  0.19578022966E+04  0.25991523271E+04  0.00000000000E+00 0. -1.
<mgrwt>
<rscale>  0 0.39092384E+04</rscale>
<asrwt>0</asrwt>
<pdfrwt beam="1">  1        2 0.47271201E+00 0.39092384E+04</pdfrwt>
<pdfrwt beam="2">  1       -2 0.19129383E+00 0.39092384E+04</pdfrwt>
<totfact> 0.18900598E-01</totfact>
</mgrwt>
</event>
<event>
 6    1  0.1885829E-005  0.1122026E+04  0.7818608E-02  0.9183986E-01
         -2   -1    0    0    0  501 -0.00000000000E+00  0.00000000000E+00  0.13103799814E+04  0.13103799814E+04  0.00000000000E+00 0.  1.
          2   -1    0    0  501    0  0.00000000000E+00 -0.00000000000E+00 -0.24018643542E+03  0.24018643542E+03  0.00000000000E+00 0. -1.
         23    2    1    2    0    0  0.24640602151E+03  0.10220438545E+03  0.12160557344E+04  0.12465311528E+04  0.62343419025E+02 0.  0.
         13    1    3    3    0    0  0.50724349853E+01 -0.70390844963E+01  0.51473978997E+02  0.52200084493E+02  0.00000000000E+00 0. -1.
        -13    1    3    3    0    0  0.24133358652E+03  0.10924346994E+03  0.11645817554E+04  0.11943310683E+04  0.00000000000E+00 0.  1.
         22    1    1    2    0    0 -0.24640602151E+03 -0.10220438545E+03 -0.14586218833E+03  0.30403526411E+03  0.00000000000E+00 0. -1.
<mgrwt>
<rscale>  0 0.11220258E+04</rscale>
<asrwt>0</asrwt>
<pdfrwt beam="1">  1        2 0.36951760E-01 0.11220258E+04</pdfrwt>
<pdfrwt beam="2">  1       -2 0.20159692E+00 0.11220258E+04</pdfrwt>
<totfact> 0.18120781E+01</totfact>
</mgrwt>
</event>
<event>
 6    1  0.1885829E-005  0.1986788E+04  0.7818608E-02  0.8612823E-01
          2   -1    0    0  501    0  0.00000000000E+00  0.00000000000E+00  0.37161096085E+04  0.37161096085E+04  0.00000000000E+00 0. -1.
         -2   -1    0    0    0  501 -0.00000000000E+00 -0.00000000000E+00 -0.26555493906E+03  0.26555493906E+03  0.00000000000E+00 0.  1.
         23    2    1    2    0    0  0.23052040434E+03 -0.70194061544E+03  0.40449477380E+03  0.84728403904E+03  0.91727511468E+02 0.  0.
         13    1    3    3    0    0  0.57833942528E+02 -0.13879706682E+03  0.43878831774E+02  0.15663570010E+03  0.00000000000E+00 0.  1.
        -13    1    3    3    0    0  0.17268646181E+03 -0.56314354861E+03  0.36061594203E+03  0.69064833894E+03  0.00000000000E+00 0. -1.
         22    1    1    2    0    0 -0.23052040434E+03  0.70194061544E+03  0.30460598956E+04  0.31343805085E+04  0.00000000000E+00 0. -1.
<mgrwt>
<rscale>  0 0.19867876E+04</rscale>
<asrwt>0</asrwt>
<pdfrwt beam="1">  1        2 0.57170913E+00 0.19867876E+04</pdfrwt>
<pdfrwt beam="2">  1       -2 0.40854609E-01 0.19867876E+04</pdfrwt>
<totfact> 0.30198761E+00</totfact>
</mgrwt>
</event>
<event>
 6    1  0.1885829E-005  0.1161274E+04  0.7818608E-02  0.9147445E-01
         -2   -1    0    0    0  501 -0.00000000000E+00  0.00000000000E+00  0.88198772086E+03  0.88198772086E+03  0.00000000000E+00 0.  1.
          2   -1    0    0  501    0  0.00000000000E+00 -0.00000000000E+00 -0.38224971527E+03  0.38224971527E+03  0.00000000000E+00 0. -1.
         23    2    1    2    0    0 -0.42977982320E+03 -0.25789868075E+03  0.56325126019E+03  0.75900841927E+03  0.87289016835E+02 0.  0.
         13    1    3    3    0    0 -0.10097061320E+03 -0.84308594906E+02  0.19866711503E+03  0.23826797204E+03  0.00000000000E+00 0. -1.
        -13    1    3    3    0    0 -0.32880921000E+03 -0.17359008584E+03  0.36458414516E+03  0.52074044723E+03  0.00000000000E+00 0.  1.
         22    1    1    2    0    0  0.42977982320E+03  0.25789868075E+03 -0.63513254608E+02  0.50522901686E+03  0.00000000000E+00 0. -1.
<mgrwt>
<rscale>  0 0.11612744E+04</rscale>
<asrwt>0</asrwt>
<pdfrwt beam="1">  1        2 0.58807649E-01 0.11612744E+04</pdfrwt>
<pdfrwt beam="2">  1       -2 0.13569042E+00 0.11612744E+04</pdfrwt>
<totfact> 0.32212109E+01</totfact>
</mgrwt>
</event>
<event>
 6    1  0.2116478E-005  0.4938628E+04  0.7818608E-02  0.7838045E-01
         -2   -1    0    0    0  501 -0.00000000000E+00  0.00000000000E+00  0.24021892072E+04  0.24021892072E+04  0.00000000000E+00 0.  1.
          2   -1    0    0  501    0  0.00000000000E+00 -0.00000000000E+00 -0.25383147961E+04  0.25383147961E+04  0.00000000000E+00 0. -1.
         23    2    1    2    0    0 -0.16437251664E+04 -0.61017780951E+03 -0.18062406085E+04  0.25190512244E+04  0.94681326481E+02 0.  0.
         11    1    3    3    0    0 -0.56229809476E+03 -0.25693777620E+03 -0.63378948361E+03  0.88537295969E+03  0.00000000000E+00 0. -1.
        -11    1    3    3    0    0 -0.10814270717E+04 -0.35324003331E+03 -0.11724511249E+04  0.16336782647E+04  0.00000000000E+00 0.  1.
         22    1    1    2    0    0  0.16437251664E+04  0.61017780951E+03  0.16701150195E+04  0.24214527789E+04  0.00000000000E+00 0.  1.
<mgrwt>
<rscale>  0 0.49386283E+04</rscale>
<asrwt>0</asrwt>
<pdfrwt beam="1">  1        2 0.39050997E+00 0.49386283E+04</pdfrwt>
<pdfrwt beam="2">  1       -2 0.36956757E+00 0.49386283E+04</pdfrwt>
<totfact> 0.28273659E-02</totfact>
</mgrwt>
</event>
<event>
 6    1  0.1885829E-005  0.1381103E+04  0.7818608E-02  0.8967612E-01
         -2   -1    0    0    0  501 -0.00000000000E+00  0.00000000000E+00  0.47076154410E+03  0.47076154410E+03  0.00000000000E+00 0.  1.
          2   -1    0    0  501    0  0.00000000000E+00 -0.00000000000E+00 -0.10129567649E+04  0.10129567649E+04  0.00000000000E+00 0. -1.
         23    2    1    2    0    0  0.19036607206E+03 -0.59030327320E+03  0.46746680103E+02  0.62841148781E+03  0.89546357699E+02 0.  0.
         13    1    3    3    0    0  0.10958970970E+03 -0.36880326850E+03 -0.13812600508E+02  0.38498901707E+03  0.00000000000E+00 0.  1.
        -13    1    3    3    0    0  0.80776362360E+02 -0.22150000469E+03  0.60559280611E+02  0.24342247074E+03  0.00000000000E+00 0. -1.
         22    1    1    2    0    0 -0.19036607206E+03  0.59030327320E+03 -0.58894190093E+03  0.85530682121E+03  0.00000000000E+00 0. -1.
<mgrwt>
<rscale>  0 0.13811026E+04</rscale>
<asrwt>0</asrwt>
<pdfrwt beam="1">  1        2 0.15583950E+00 0.13811026E+04</pdfrwt>
<pdfrwt beam="2">  1       -2 0.72424853E-01 0.13811026E+04</pdfrwt>
<totfact> 0.41555686E+01</totfact>
</mgrwt>
</event>
<event>
 6    1  0.1885829E-005  0.1277835E+04  0.7818608E-02  0.9047329E-01
         -2   -1    0    0    0  501 -0.00000000000E+00  0.00000000000E+00  0.11865342805E+03  0.11865342805E+03  0.00000000000E+00 0.  1.
          2   -1    0    0  501    0  0.00000000000E+00 -0.00000000000E+00 -0.34404048242E+04  0.34404048242E+04  0.00000000000E+00 0. -1.
         23    2    1    2    0    0 -0.21421039178E+03 -0.22059189708E+03 -0.32190950650E+04  0.32348897785E+04  0.85976536766E+02 0.  0.
         11    1    3    3    0    0 -0.58355409808E+02 -0.11742669130E+03 -0.14699758564E+04  0.14758127930E+04  0.00000000000E+00 0. -1.
        -11    1    3    3    0    0 -0.15585498197E+03 -0.10316520578E+03 -0.17491192086E+04  0.17590769855E+04  0.00000000000E+00 0.  1.
         22    1    1    2    0    0  0.21421039178E+03  0.22059189708E+03 -0.10265633114E+03  0.32416847368E+03  0.00000000000E+00 0.  1.
<mgrwt>
<rscale>  0 0.12778354E+04</rscale>
<asrwt>0</asrwt>
<pdfrwt beam="1">  1        2 0.52929302E+00 0.12778354E+04</pdfrwt>
<pdfrwt beam="2">  1       -2 0.18254375E-01 0.12778354E+04</pdfrwt>
<totfact> 0.22471266E+01</totfact>
</mgrwt>
</event>
<event>
 6    1  0.1885829E-005  0.1115750E+04  0.7818608E-02  0.9189975E-01
         -2   -1    0    0    0  501 -0.00000000000E+00  0.00000000000E+00  0.15540848788E+03  0.15540848788E+03  0.00000000000E+00 0.  1.
          2   -1    0    0  501    0  0.00000000000E+00 -0.00000000000E+00 -0.20026232533E+04  0.20026232533E+04  0.00000000000E+00 0. -1.
         23    2    1    2    0    0  0.78904668009E+02 -0.12207289068E+03 -0.19640205254E+04  0.19715610389E+04  0.92458470643E+02 0.  0.
         13    1    3    3    0    0  0.88614574103E+02 -0.10531139811E+03 -0.13014534463E+04  0.13087108566E+04  0.00000000000E+00 0. -1.
        -13    1    3    3    0    0 -0.97099060942E+01 -0.16761492574E+02 -0.66256707906E+03  0.66285018229E+03  0.00000000000E+00 0.  1.
         22    1    1    2    0    0 -0.78904668009E+02  0.12207289068E+03  0.11680575990E+03  0.18647070231E+03  0.00000000000E+00 0.  1.
<mgrwt>
<rscale>  0 0.11157502E+04</rscale>
<asrwt>0</asrwt>
<pdfrwt beam="1">  1        2 0.30809587E+00 0.11157502E+04</pdfrwt>
<pdfrwt beam="2">  1       -2 0.23908999E-01 0.11157502E+04</pdfrwt>
<totfact> 0.10293760E+02</totfact>
</mgrwt>
</event>
<event>
 6    1  0.1885829E-005  0.4548523E+04  0.7818608E-02  0.7902196E-01
          2   -1    0    0  501    0  0.00000000000E+00  0.00000000000E+00  0.33399038464E+04  0.33399038464E+04  0.00000000000E+00 0. -1.
         -2   -1    0    0    0  501 -0.00000000000E+00 -0.00000000000E+00 -0.15486272725E+04  0.15486272725E+04  0.00000000000E+00 0.  1.
         23    2    1    2    0    0 -0.21052006853E+04 -0.39042592027E+03  0.74654457445E+02  0.21442472752E+04  0.88998676451E+02 0.  0.
         13    1    3    3    0    0 -0.36422895545E+03 -0.99096256778E+02  0.26822274778E+02  0.37842071101E+03  0.00000000000E+00 0.  1.
        -13    1    3    3    0    0 -0.17409717298E+04 -0.29132966349E+03  0.47832182668E+02  0.17658265641E+04  0.00000000000E+00 0. -1.
         22    1    1    2    0    0  0.21052006853E+04  0.39042592027E+03  0.17166221165E+04  0.27442838438E+04  0.00000000000E+00 0. -1.
<mgrwt>
<rscale>  0 0.45485234E+04</rscale>
<asrwt>0</asrwt>
<pdfrwt beam="1">  1        2 0.51383136E+00 0.45485234E+04</pdfrwt>
<pdfrwt beam="2">  1       -2 0.23825035E+00 0.45485234E+04</pdfrwt>
<totfact> 0.59950018E-02</totfact>
</mgrwt>
</event>
<event>
 6    1  0.1885829E-005  0.2043683E+04  0.7818608E-02  0.8586466E-01
          2   -1    0    0  501    0  0.00000000000E+00  0.00000000000E+00  0.16635864609E+04  0.16635864609E+04  0.00000000000E+00 0. -1.
         -2   -1    0    0    0  501 -0.00000000000E+00 -0.00000000000E+00 -0.62765593343E+03  0.62765593343E+03  0.00000000000E+00 0.  1.
         23    2    1    2    0    0 -0.29291513245E+03  0.88876007138E+03  0.97297202986E+03  0.13533418070E+04  0.95737852464E+02 0.  0.
         13    1    3    3    0    0 -0.27854883525E+02  0.65176640125E+02  0.41882983039E+02  0.82329054546E+02  0.00000000000E+00 0. -1.
        -13    1    3    3    0    0 -0.26506024893E+03  0.82358343126E+03  0.93108904682E+03  0.12710127525E+04  0.00000000000E+00 0.  1.
         22    1    1    2    0    0  0.29291513245E+03 -0.88876007138E+03  0.62958497616E+02  0.93790058734E+03  0.00000000000E+00 0.  1.
<mgrwt>
<rscale>  0 0.20436829E+04</rscale>
<asrwt>0</asrwt>
<pdfrwt beam="1">  1        2 0.25593638E+00 0.20436829E+04</pdfrwt>
<pdfrwt beam="2">  1       -2 0.96562452E-01 0.20436829E+04</pdfrwt>
<totfact> 0.85341593E+00</totfact>
</mgrwt>
</event>
<event>
 6    1  0.1885829E-005  0.9817469E+03  0.7818608E-02  0.9328794E-01
         -1   -1    0    0    0  501 -0.00000000000E+00  0.00000000000E+00  0.20164625557E+03  0.20164625557E+03  0.00000000000E+00 0.  1.
          1   -1    0    0  501    0  0.00000000000E+00 -0.00000000000E+00 -0.11949478725E+04  0.11949478725E+04  0.00000000000E+00 0. -1.
         23    2    1    2    0    0 -0.22394195856E+03 -0.43288373264E+03 -0.51632297501E+03  0.71465061749E+03  0.81226619826E+02 0.  0.
         13    1    3    3    0    0 -0.21691341908E+03 -0.43228856045E+03 -0.51649361551E+03  0.70759485989E+03  0.00000000000E+00 0. -1.
        -13    1    3    3    0    0 -0.70285394793E+01 -0.59517218629E+00  0.17064050299E+00  0.70557576010E+01  0.00000000000E+00 0.  1.
         22    1    1    2    0    0  0.22394195856E+03  0.43288373264E+03 -0.47697864197E+03  0.68194351063E+03  0.00000000000E+00 0.  1.
<mgrwt>
<rscale>  0 0.98174694E+03</rscale>
<asrwt>0</asrwt>
<pdfrwt beam="1">  1        1 0.18383813E+00 0.98174694E+03</pdfrwt>
<pdfrwt beam="2">  1       -1 0.31022501E-01 0.98174694E+03</pdfrwt>
<totfact> 0.10392367E+02</totfact>
</mgrwt>
</event>
<event>
 6    1  0.1885829E-005  0.4423320E+04  0.7818608E-02  0.7924200E-01
         -2   -1    0    0    0  501 -0.00000000000E+00  0.00000000000E+00  0.11817573837E+04  0.11817573837E+04  0.00000000000E+00 0.  1.
          2   -1    0    0  501    0  0.00000000000E+00 -0.00000000000E+00 -0.41391234666E+04  0.41391234666E+04  0.00000000000E+00 0. -1.
         23    2    1    2    0    0 -0.18415887437E+04 -0.77885507592E+02 -0.29471763355E+04  0.34776176883E+04  0.10227991273E+03 0.  0.
         11    1    3    3    0    0 -0.14734577564E+04 -0.87269409987E+02 -0.22959372292E+04  0.27294727459E+04  0.00000000000E+00 0.  1.
        -11    1    3    3    0    0 -0.36813098729E+03  0.93839023945E+01 -0.65123910625E+03  0.74814494247E+03  0.00000000000E+00 0. -1.
         22    1    1    2    0    0  0.18415887437E+04  0.77885507592E+02 -0.10189747414E+02  0.18432631620E+04  0.00000000000E+00 0.  1.
<mgrwt>
<rscale>  0 0.44233199E+04</rscale>
<asrwt>0</asrwt>
<pdfrwt beam="1">  1        2 0.63678822E+00 0.44233199E+04</pdfrwt>
<pdfrwt beam="2">  1       -2 0.18180883E+00 0.44233199E+04</pdfrwt>
<totfact> 0.35054264E-02</totfact>
</mgrwt>
</event>
<event>
 6    1  0.1885829E-005  0.2445595E+04  0.7818608E-02  0.8422628E-01
         -2   -1    0    0    0  501 -0.00000000000E+00  0.00000000000E+00  0.31447120301E+03  0.31447120301E+03  0.00000000000E+00 0.  1.
          2   -1    0    0  501    0  0.00000000000E+00 -0.00000000000E+00 -0.47547552182E+04  0.47547552182E+04  0.00000000000E+00 0. -1.
         23    2    1    2    0    0 -0.66087738185E+03 -0.10260999774E+04 -0.22945211579E+04  0.26006360710E+04  0.94024209984E+02 0.  0.
         11    1    3    3    0    0 -0.49497664655E+03 -0.80440583305E+03 -0.18443419180E+04  0.20721167282E+04  0.00000000000E+00 0.  1.
        -11    1    3    3    0    0 -0.16590073531E+03 -0.22169414440E+03 -0.45017923991E+03  0.52851934277E+03  0.00000000000E+00 0. -1.
         22    1    1    2    0    0  0.66087738185E+03  0.10260999774E+04 -0.21457628573E+04  0.24685903502E+04  0.00000000000E+00 0.  1.
<mgrwt>
<rscale>  0 0.24455949E+04</rscale>
<asrwt>0</asrwt>
<pdfrwt beam="1">  1        2 0.73150082E+00 0.24455949E+04</pdfrwt>
<pdfrwt beam="2">  1       -2 0.48380184E-01 0.24455949E+04</pdfrwt>
<totfact> 0.24462092E-01</totfact>
</mgrwt>
</event>
<event>
 6    1  0.1885829E-005  0.2168034E+04  0.7818608E-02  0.8531852E-01
          2   -1    0    0  501    0  0.00000000000E+00  0.00000000000E+00  0.23884341046E+04  0.23884341046E+04  0.00000000000E+00 0. -1.
         -2   -1    0    0    0  501 -0.00000000000E+00 -0.00000000000E+00 -0.49199292183E+03  0.49199292183E+03  0.00000000000E+00 0.  1.
         23    2    1    2    0    0  0.66865281225E+03  0.22158136983E+03  0.20412003397E+04  0.21612955362E+04  0.92220830185E+02 0.  0.
         13    1    3    3    0    0  0.36444687753E+03  0.82562467393E+02  0.99048867081E+03  0.10586339757E+04  0.00000000000E+00 0. -1.
        -13    1    3    3    0    0  0.30420593472E+03  0.13901890244E+03  0.10507116688E+04  0.11026615605E+04  0.00000000000E+00 0.  1.
         22    1    1    2    0    0 -0.66865281225E+03 -0.22158136983E+03 -0.14475915683E+03  0.71913149025E+03  0.00000000000E+00 0.  1.
<mgrwt>
<rscale>  0 0.21680338E+04</rscale>
<asrwt>0</asrwt>
<pdfrwt beam="1">  1        2 0.36745140E+00 0.21680338E+04</pdfrwt>
<pdfrwt beam="2">  1       -2 0.75691220E-01 0.21680338E+04</pdfrwt>
<totfact> 0.57880871E+00</totfact>
</mgrwt>
</event>
<event>
 6    1  0.1885829E-005  0.1136443E+04  0.7818608E-02  0.9170382E-01
         -2   -1    0    0    0  501 -0.00000000000E+00  0.00000000000E+00  0.21887878840E+03  0.21887878840E+03  0.00000000000E+00 0.  1.
          2   -1    0    0  501    0  0.00000000000E+00 -0.00000000000E+00 -0.14751352814E+04  0.14751352814E+04  0.00000000000E+00 0. -1.
         23    2    1    2    0    0  0.22282720765E+03  0.34212281746E+03 -0.51649030401E+02  0.42209460473E+03  0.93788305797E+02 0.  0.
         11    1    3    3    0    0  0.10266527853E+03  0.91783380865E+02 -0.43026387147E+02  0.14427618795E+03  0.00000000000E+00 0. -1.
        -11    1    3    3    0    0  0.12016192912E+03  0.25033943660E+03 -0.86226432541E+01  0.27781841678E+03  0.00000000000E+00 0.  1.
         22    1    1    2    0    0 -0.22282720765E+03 -0.34212281746E+03 -0.12046074626E+04  0.12719194651E+04  0.00000000000E+00 0. -1.
<mgrwt>
<rscale>  0 0.11364433E+04</rscale>
<asrwt>0</asrwt>
<pdfrwt beam="1">  1        2 0.22694389E+00 0.11364433E+04</pdfrwt>
<pdfrwt beam="2">  1       -2 0.33673659E-01 0.11364433E+04</pdfrwt>
<totfact> 0.10705377E+02</totfact>
</mgrwt>
</event>
<event>
 6    1  0.1931587E-005  0.2851053E+04  0.7818608E-02  0.8287591E-01
          2   -1    0    0  501    0  0.00000000000E+00  0.00000000000E+00  0.18922126946E+04  0.18922126946E+04  0.00000000000E+00 0.  1.
         -2   -1    0    0    0  501 -0.00000000000E+00 -0.00000000000E+00 -0.10739418407E+04  0.10739418407E+04  0.00000000000E+00 0. -1.
         23    2    1    2    0    0  0.36076516988E+03  0.10267598136E+04  0.13649643456E+04  0.17482625054E+04  0.94376375801E+02 0.  0.
         11    1    3    3    0    0  0.15576255606E+03  0.46094944096E+03  0.68525805630E+03  0.84042546649E+03  0.00000000000E+00 0. -1.
        -11    1    3    3    0    0  0.20500261382E+03  0.56581037265E+03  0.67970628926E+03  0.90783703887E+03  0.00000000000E+00 0.  1.
         22    1    1    2    0    0 -0.36076516988E+03 -0.10267598136E+04 -0.54669349166E+03  0.12178920299E+04  0.00000000000E+00 0. -1.
<mgrwt>
<rscale>  0 0.28510534E+04</rscale>
<asrwt>0</asrwt>
<pdfrwt beam="1">  1        2 0.29110965E+00 0.28510534E+04</pdfrwt>
<pdfrwt beam="2">  1       -2 0.16522182E+00 0.28510534E+04</pdfrwt>
<totfact> 0.15331115E+00</totfact>
</mgrwt>
</event>
<event>
 6    1  0.1885829E-005  0.1921295E+04  0.7818608E-02  0.8644329E-01
          2   -1    0    0  501    0  0.00000000000E+00  0.00000000000E+00  0.12317259554E+04  0.12317259554E+04  0.00000000000E+00 0. -1.
         -2   -1    0    0    0  501 -0.00000000000E+00 -0.00000000000E+00 -0.74922774079E+03  0.74922774079E+03  0.00000000000E+00 0.  1.
         23    2    1    2    0    0 -0.10855479669E+02  0.81769915531E+03  0.75721926971E+03  0.11182710152E+04  0.91647645614E+02 0.  0.
         13    1    3    3    0    0 -0.38238474116E+02  0.67518556009E+03  0.64833972083E+03  0.93684690055E+03  0.00000000000E+00 0. -1.
        -13    1    3    3    0    0  0.27382994447E+02  0.14251359522E+03  0.10887954887E+03  0.18142411463E+03  0.00000000000E+00 0.  1.
         22    1    1    2    0    0  0.10855479669E+02 -0.81769915531E+03 -0.27472105508E+03  0.86268268103E+03  0.00000000000E+00 0.  1.
<mgrwt>
<rscale>  0 0.19212946E+04</rscale>
<asrwt>0</asrwt>
<pdfrwt beam="1">  1        2 0.18949630E+00 0.19212946E+04</pdfrwt>
<pdfrwt beam="2">  1       -2 0.11526581E+00 0.19212946E+04</pdfrwt>
<totfact> 0.99427299E+00</totfact>
</mgrwt>
</event>
<event>
 6    1  0.1885829E-005  0.3485791E+04  0.7818608E-02  0.8117166E-01
         -1   -1    0    0    0  501 -0.00000000000E+00  0.00000000000E+00  0.21161952479E+04  0.21161952479E+04  0.00000000000E+00 0.  1.
          1   -1    0    0  501    0  0.00000000000E+00 -0.00000000000E+00 -0.14354465370E+04  0.14354465370E+04  0.00000000000E+00 0. -1.
         23    2    1    2    0    0 -0.75599030021E+02 -0.13794477630E+04  0.14212459075E+04  0.19841828724E+04  0.91926042392E+02 0.  0.
         11    1    3    3    0    0 -0.15157452282E+02 -0.10002204048E+04  0.10428654197E+04  0.14450740085E+04  0.00000000000E+00 0. -1.
        -11    1    3    3    0    0 -0.60441577739E+02 -0.37922735822E+03  0.37838048782E+03  0.53910886387E+03  0.00000000000E+00 0.  1.
         22    1    1    2    0    0  0.75599030021E+02  0.13794477630E+04 -0.74049719659E+03  0.15674589125E+04  0.00000000000E+00 0. -1.
<mgrwt>
<rscale>  0 0.34857912E+04</rscale>
<asrwt>0</asrwt>
<pdfrwt beam="1">  1        1 0.22083793E+00 0.34857912E+04</pdfrwt>
<pdfrwt beam="2">  1       -1 0.32556850E+00 0.34857912E+04</pdfrwt>
<totfact> 0.13334632E-01</totfact>
</mgrwt>
</event>
<event>
 6    1  0.1885829E-005  0.1741670E+04  0.7818608E-02  0.8737949E-01
         -2   -1    0    0    0  501 -0.00000000000E+00  0.00000000000E+00  0.50587677470E+03  0.50587677470E+03  0.00000000000E+00 0.  1.
          2   -1    0    0  501    0  0.00000000000E+00 -0.00000000000E+00 -0.14990876673E+04  0.14990876673E+04  0.00000000000E+00 0. -1.
         23    2    1    2    0    0 -0.14465518834E+03 -0.84837762439E+03 -0.62785657663E+03  0.10700026816E+04  0.10016057523E+03 0.  0.
         11    1    3    3    0    0 -0.86357247632E+02 -0.55229523504E+03 -0.46480955043E+03  0.72700448351E+03  0.00000000000E+00 0. -1.
        -11    1    3    3    0    0 -0.58297940712E+02 -0.29608238935E+03 -0.16304702620E+03  0.34299819813E+03  0.00000000000E+00 0.  1.
         22    1    1    2    0    0  0.14465518834E+03  0.84837762439E+03 -0.36535431592E+03  0.93496176031E+03  0.00000000000E+00 0.  1.
<mgrwt>
<rscale>  0 0.17416700E+04</rscale>
<asrwt>0</asrwt>
<pdfrwt beam="1">  1        2 0.23062887E+00 0.17416700E+04</pdfrwt>
<pdfrwt beam="2">  1       -2 0.77827196E-01 0.17416700E+04</pdfrwt>
<totfact> 0.17723517E+01</totfact>
</mgrwt>
</event>
<event>
 6    1  0.1885829E-005  0.1686879E+04  0.7818608E-02  0.8768884E-01
         -2   -1    0    0    0  501 -0.00000000000E+00  0.00000000000E+00  0.63036028426E+03  0.63036028426E+03  0.00000000000E+00 0.  1.
          2   -1    0    0  501    0  0.00000000000E+00 -0.00000000000E+00 -0.11285448110E+04  0.11285448110E+04  0.00000000000E+00 0. -1.
         23    2    1    2    0    0  0.75201112434E+01  0.44882965180E+03 -0.99139140348E+03  0.10920035796E+04  0.90057173582E+02 0.  0.
         11    1    3    3    0    0  0.27325141755E+02  0.32641136948E+03 -0.63235996525E+03  0.71215881034E+03  0.00000000000E+00 0.  1.
        -11    1    3    3    0    0 -0.19805030511E+02  0.12241828232E+03 -0.35903143823E+03  0.37984476924E+03  0.00000000000E+00 0. -1.
         22    1    1    2    0    0 -0.75201112434E+01 -0.44882965180E+03  0.49320687671E+03  0.66690151570E+03  0.00000000000E+00 0.  1.
<mgrwt>
<rscale>  0 0.16868786E+04</rscale>
<asrwt>0</asrwt>
<pdfrwt beam="1">  1        2 0.17362228E+00 0.16868786E+04</pdfrwt>
<pdfrwt beam="2">  1       -2 0.96978505E-01 0.16868786E+04</pdfrwt>
<totfact> 0.17701601E+01</totfact>
</mgrwt>
</event>
<event>
 6    1  0.1885829E-005  0.1315377E+04  0.7818608E-02  0.9017459E-01
          1   -1    0    0  501    0  0.00000000000E+00  0.00000000000E+00  0.77267576700E+03  0.77267576700E+03  0.00000000000E+00 0. -1.
         -1   -1    0    0    0  501 -0.00000000000E+00 -0.00000000000E+00 -0.55981368889E+03  0.55981368889E+03  0.00000000000E+00 0.  1.
         23    2    1    2    0    0  0.80338791105E+02 -0.23517925484E+03  0.71954713189E+03  0.76813730785E+03  0.10258287106E+03 0.  0.
         13    1    3    3    0    0 -0.25121330226E+01 -0.53704565326E+02  0.28444964018E+03  0.28948590457E+03  0.00000000000E+00 0. -1.
        -13    1    3    3    0    0  0.82850924128E+02 -0.18147468952E+03  0.43509749172E+03  0.47865140328E+03  0.00000000000E+00 0.  1.
         22    1    1    2    0    0 -0.80338791105E+02  0.23517925484E+03 -0.50668505379E+03  0.56435214804E+03  0.00000000000E+00 0.  1.
<mgrwt>
<rscale>  0 0.13153775E+04</rscale>
<asrwt>0</asrwt>
<pdfrwt beam="1">  1        1 0.11887320E+00 0.13153775E+04</pdfrwt>
<pdfrwt beam="2">  1       -1 0.86125183E-01 0.13153775E+04</pdfrwt>
<totfact> 0.30529571E+01</totfact>
</mgrwt>
</event>
<event>
 6    1  0.1885829E-005  0.1868477E+04  0.7818608E-02  0.8670708E-01
         -2   -1    0    0    0  501 -0.00000000000E+00  0.00000000000E+00  0.66650079051E+03  0.66650079051E+03  0.00000000000E+00 0.  1.
          2   -1    0    0  501    0  0.00000000000E+00 -0.00000000000E+00 -0.13095283538E+04  0.13095283538E+04  0.00000000000E+00 0. -1.
         23    2    1    2    0    0 -0.30857343042E+03 -0.36395686202E+03 -0.11689466943E+04  0.12659072592E+04  0.91665999167E+02 0.  0.
         11    1    3    3    0    0 -0.42089737855E+02 -0.32013718726E+02 -0.21304144057E+03  0.21950644551E+03  0.00000000000E+00 0.  1.
        -11    1    3    3    0    0 -0.26648369256E+03 -0.33194314329E+03 -0.95590525373E+03  0.10464008137E+04  0.00000000000E+00 0. -1.
         22    1    1    2    0    0  0.30857343042E+03  0.36395686202E+03  0.52591913100E+03  0.71012188512E+03  0.00000000000E+00 0.  1.
<mgrwt>
<rscale>  0 0.18684771E+04</rscale>
<asrwt>0</asrwt>
<pdfrwt beam="1">  1        2 0.20146590E+00 0.18684771E+04</pdfrwt>
<pdfrwt beam="2">  1       -2 0.10253858E+00 0.18684771E+04</pdfrwt>
<totfact> 0.11925675E+01</totfact>
</mgrwt>
</event>
<event>
 6    1  0.1885829E-005  0.2052206E+04  0.7818608E-02  0.8582594E-01
          2   -1    0    0  501    0  0.00000000000E+00  0.00000000000E+00  0.17913837004E+04  0.17913837004E+04  0.00000000000E+00 0.  1.
         -2   -1    0    0    0  501 -0.00000000000E+00 -0.00000000000E+00 -0.58775062700E+03  0.58775062700E+03  0.00000000000E+00 0. -1.
         23    2    1    2    0    0  0.16986548395E+02 -0.73423768414E+03 -0.22416137025E+03  0.77352214105E+03  0.93245177622E+02 0.  0.
         11    1    3    3    0    0  0.48764283918E+01 -0.17050928749E+03 -0.94274445058E+02  0.19489706941E+03  0.00000000000E+00 0.  1.
        -11    1    3    3    0    0  0.12110120003E+02 -0.56372839665E+03 -0.12988692519E+03  0.57862507164E+03  0.00000000000E+00 0. -1.
         22    1    1    2    0    0 -0.16986548395E+02  0.73423768414E+03  0.14277944436E+04  0.16056121863E+04  0.00000000000E+00 0.  1.
<mgrwt>
<rscale>  0 0.20522055E+04</rscale>
<asrwt>0</asrwt>
<pdfrwt beam="1">  1        2 0.27559749E+00 0.20522055E+04</pdfrwt>
<pdfrwt beam="2">  1       -2 0.90423174E-01 0.20522055E+04</pdfrwt>
<totfact> 0.84375682E+00</totfact>
</mgrwt>
</event>
<event>
 6    1  0.1885829E-005  0.1796332E+04  0.7818608E-02  0.8708252E-01
         -2   -1    0    0    0  501 -0.00000000000E+00  0.00000000000E+00  0.64783752117E+03  0.64783752117E+03  0.00000000000E+00 0.  1.
          2   -1    0    0  501    0  0.00000000000E+00 -0.00000000000E+00 -0.12452232911E+04  0.12452232911E+04  0.00000000000E+00 0. -1.
         23    2    1    2    0    0  0.14789944619E+03  0.78830433828E+02 -0.12269037275E+04  0.12416152334E+04  0.90703625544E+02 0.  0.
         11    1    3    3    0    0  0.15756667486E+03  0.60392997414E+02 -0.10470002246E+04  0.10605112170E+04  0.00000000000E+00 0.  1.
        -11    1    3    3    0    0 -0.96672286681E+01  0.18437436413E+02 -0.17990350291E+03  0.18110401633E+03  0.00000000000E+00 0. -1.
         22    1    1    2    0    0 -0.14789944619E+03 -0.78830433828E+02  0.62951795753E+03  0.65144557895E+03  0.00000000000E+00 0.  1.
<mgrwt>
<rscale>  0 0.17963322E+04</rscale>
<asrwt>0</asrwt>
<pdfrwt beam="1">  1        2 0.19157281E+00 0.17963322E+04</pdfrwt>
<pdfrwt beam="2">  1       -2 0.99667312E-01 0.17963322E+04</pdfrwt>
<totfact> 0.13999528E+01</totfact>
</mgrwt>
</event>
<event>
 6    1  0.1885829E-005  0.3609029E+04  0.7818608E-02  0.8088427E-01
         -1   -1    0    0    0  501 -0.00000000000E+00  0.00000000000E+00  0.11406737409E+04  0.11406737409E+04  0.00000000000E+00 0.  1.
          1   -1    0    0  501    0  0.00000000000E+00 -0.00000000000E+00 -0.28546919637E+04  0.28546919637E+04  0.00000000000E+00 0. -1.
         23    2    1    2    0    0 -0.93525970990E+03 -0.32529052261E+03 -0.25260734563E+04  0.27147571184E+04  0.91293241530E+02 0.  0.
         11    1    3    3    0    0 -0.36210917401E+03 -0.11489515901E+03 -0.10890730098E+04  0.11534313903E+04  0.00000000000E+00 0. -1.
        -11    1    3    3    0    0 -0.57315053588E+03 -0.21039536360E+03 -0.14370004465E+04  0.15613257280E+04  0.00000000000E+00 0.  1.
         22    1    1    2    0    0  0.93525970990E+03  0.32529052261E+03  0.81205523347E+03  0.12806085863E+04  0.00000000000E+00 0.  1.
<mgrwt>
<rscale>  0 0.36090288E+04</rscale>
<asrwt>0</asrwt>
<pdfrwt beam="1">  1        1 0.43918338E+00 0.36090288E+04</pdfrwt>
<pdfrwt beam="2">  1       -1 0.17548827E+00 0.36090288E+04</pdfrwt>
<totfact> 0.13805613E-01</totfact>
</mgrwt>
</event>
<event>
 6    1  0.1885829E-005  0.3446632E+04  0.7818608E-02  0.8126555E-01
          2   -1    0    0  501    0  0.00000000000E+00  0.00000000000E+00  0.33943038333E+04  0.33943038333E+04  0.00000000000E+00 0. -1.
         -2   -1    0    0    0  501 -0.00000000000E+00 -0.00000000000E+00 -0.87494155935E+03  0.87494155935E+03  0.00000000000E+00 0.  1.
         23    2    1    2    0    0 -0.49476065488E+03  0.73950210863E+03  0.30869601574E+04  0.32138692362E+04  0.89336329991E+02 0.  0.
         13    1    3    3    0    0 -0.38512237201E+03  0.56756439441E+03  0.25055484567E+04  0.25977339456E+04  0.00000000000E+00 0. -1.
        -13    1    3    3    0    0 -0.10963828287E+03  0.17193771422E+03  0.58141170069E+03  0.61613529062E+03  0.00000000000E+00 0.  1.
         22    1    1    2    0    0  0.49476065488E+03 -0.73950210863E+03 -0.56759788345E+03  0.10553761564E+04  0.00000000000E+00 0.  1.
<mgrwt>
<rscale>  0 0.34466317E+04</rscale>
<asrwt>0</asrwt>
<pdfrwt beam="1">  1        2 0.52220058E+00 0.34466317E+04</pdfrwt>
<pdfrwt beam="2">  1       -2 0.13460640E+00 0.34466317E+04</pdfrwt>
<totfact> 0.31512677E-01</totfact>
</mgrwt>
</event>
<event>
 6    1  0.1885829E-005  0.1687887E+04  0.7818608E-02  0.8768303E-01
          2   -1    0    0  501    0  0.00000000000E+00  0.00000000000E+00  0.43070419031E+03  0.43070419031E+03  0.00000000000E+00 0. -1.
         -2   -1    0    0    0  501 -0.00000000000E+00 -0.00000000000E+00 -0.16536644994E+04  0.16536644994E+04  0.00000000000E+00 0.  1.
         23    2    1    2    0    0 -0.39890757846E+03  0.52692421464E+02  0.29905528718E+03  0.51006401058E+03  0.93954684152E+02 0.  0.
         13    1    3    3    0    0 -0.26592570953E+03 -0.68687606845E+01  0.21347650755E+03  0.34108046285E+03  0.00000000000E+00 0. -1.
        -13    1    3    3    0    0 -0.13298186892E+03  0.59561182148E+02  0.85578779628E+02  0.16898354773E+03  0.00000000000E+00 0.  1.
         22    1    1    2    0    0  0.39890757846E+03 -0.52692421464E+02 -0.15220155963E+04  0.15743046792E+04  0.00000000000E+00 0.  1.
<mgrwt>
<rscale>  0 0.16878865E+04</rscale>
<asrwt>0</asrwt>
<pdfrwt beam="1">  1        2 0.66262184E-01 0.16878865E+04</pdfrwt>
<pdfrwt beam="2">  1       -2 0.25440992E+00 0.16878865E+04</pdfrwt>
<totfact> 0.42055855E+00</totfact>
</mgrwt>
</event>
<event>
 6    1  0.2095756E-005  0.3224336E+04  0.7818608E-02  0.8182420E-01
         -2   -1    0    0    0  501 -0.00000000000E+00  0.00000000000E+00  0.11393470941E+04  0.11393470941E+04  0.00000000000E+00 0.  1.
          2   -1    0    0  501    0  0.00000000000E+00 -0.00000000000E+00 -0.22812058330E+04  0.22812058330E+04  0.00000000000E+00 0. -1.
         23    2    1    2    0    0 -0.89515711880E+03  0.98262567450E+02 -0.19879859592E+04  0.21848777786E+04  0.10315490455E+03 0.  0.
         13    1    3    3    0    0 -0.39627559513E+03  0.92614680780E+02 -0.93124489361E+03  0.10162818892E+04  0.00000000000E+00 0.  1.
        -13    1    3    3    0    0 -0.49888152366E+03  0.56478866703E+01 -0.10567410656E+04  0.11685958895E+04  0.00000000000E+00 0. -1.
         22    1    1    2    0    0  0.89515711880E+03 -0.98262567450E+02  0.84612722024E+03  0.12356751484E+04  0.00000000000E+00 0.  1.
<mgrwt>
<rscale>  0 0.32243357E+04</rscale>
<asrwt>0</asrwt>
<pdfrwt beam="1">  1        2 0.35095474E+00 0.32243357E+04</pdfrwt>
<pdfrwt beam="2">  1       -2 0.17528417E+00 0.32243357E+04</pdfrwt>
<totfact> 0.76362873E-01</totfact>
</mgrwt>
</event>
<event>
 6    1  0.1885829E-005  0.4146959E+04  0.7818608E-02  0.7975539E-01
         -2   -1    0    0    0  501 -0.00000000000E+00  0.00000000000E+00  0.18634076527E+04  0.18634076527E+04  0.00000000000E+00 0.  1.
          2   -1    0    0  501    0  0.00000000000E+00 -0.00000000000E+00 -0.23072333967E+04  0.23072333967E+04  0.00000000000E+00 0. -1.
         23    2    1    2    0    0 -0.32593106758E+03  0.91673752186E+03 -0.20623494073E+04  0.22821872921E+04  0.91951148713E+02 0.  0.
         13    1    3    3    0    0 -0.12479610733E+03  0.35397272516E+03 -0.90217989748E+03  0.97713833513E+03  0.00000000000E+00 0. -1.
        -13    1    3    3    0    0 -0.20113496025E+03  0.56276479670E+03 -0.11601695098E+04  0.13050489570E+04  0.00000000000E+00 0.  1.
         22    1    1    2    0    0  0.32593106758E+03 -0.91673752186E+03  0.16185236633E+04  0.18884537573E+04  0.00000000000E+00 0.  1.
<mgrwt>
<rscale>  0 0.41469586E+04</rscale>
<asrwt>0</asrwt>
<pdfrwt beam="1">  1        2 0.35495898E+00 0.41469586E+04</pdfrwt>
<pdfrwt beam="2">  1       -2 0.28667810E+00 0.41469586E+04</pdfrwt>
<totfact> 0.13423897E-01</totfact>
</mgrwt>
</event>
<event>
 6    1  0.1885829E-005  0.2986703E+04  0.7818608E-02  0.8247538E-01
         -2   -1    0    0    0  501 -0.00000000000E+00  0.00000000000E+00  0.29207567113E+04  0.29207567113E+04  0.00000000000E+00 0.  1.
          2   -1    0    0  501    0  0.00000000000E+00 -0.00000000000E+00 -0.76353455956E+03  0.76353455956E+03  0.00000000000E+00 0. -1.
         23    2    1    2    0    0 -0.94091141637E+03  0.85466697557E+01  0.25078595462E+04  0.26801329559E+04  0.91464850342E+02 0.  0.
         11    1    3    3    0    0 -0.71226841493E+03  0.47442031514E+01  0.17810769567E+04  0.19182241600E+04  0.00000000000E+00 0. -1.
        -11    1    3    3    0    0 -0.22864300144E+03  0.38024666043E+01  0.72678258948E+03  0.76190879587E+03  0.00000000000E+00 0.  1.
         22    1    1    2    0    0  0.94091141637E+03 -0.85466697557E+01 -0.35063739448E+03  0.10041583149E+04  0.00000000000E+00 0. -1.
<mgrwt>
<rscale>  0 0.29867030E+04</rscale>
<asrwt>0</asrwt>
<pdfrwt beam="1">  1        2 0.11746686E+00 0.29867030E+04</pdfrwt>
<pdfrwt beam="2">  1       -2 0.44934718E+00 0.29867030E+04</pdfrwt>
<totfact> 0.10989395E-01</totfact>
</mgrwt>
</event>
<event>
 6    1  0.1885829E-005  0.1044266E+04  0.7818608E-02  0.9261285E-01
          2   -1    0    0  501    0  0.00000000000E+00  0.00000000000E+00  0.23379271834E+04  0.23379271834E+04  0.00000000000E+00 0. -1.
         -2   -1    0    0    0  501 -0.00000000000E+00 -0.00000000000E+00 -0.11660868753E+03  0.11660868753E+03  0.00000000000E+00 0.  1.
         23    2    1    2    0    0  0.43452695477E+03  0.48608292836E+02  0.17725613926E+04  0.18279902794E+04  0.91641313606E+02 0.  0.
         13    1    3    3    0    0  0.16502487227E+03  0.61094223004E+02  0.75958745084E+03  0.77970430807E+03  0.00000000000E+00 0. -1.
        -13    1    3    3    0    0  0.26950208250E+03 -0.12485930167E+02  0.10129739418E+04  0.10482859713E+04  0.00000000000E+00 0.  1.
         22    1    1    2    0    0 -0.43452695477E+03 -0.48608292836E+02  0.44875710320E+03  0.62654559150E+03  0.00000000000E+00 0.  1.
<mgrwt>
<rscale>  0 0.10442655E+04</rscale>
<asrwt>0</asrwt>
<pdfrwt beam="1">  1        2 0.35968107E+00 0.10442655E+04</pdfrwt>
<pdfrwt beam="2">  1       -2 0.17939800E-01 0.10442655E+04</pdfrwt>
<totfact> 0.11189432E+02</totfact>
</mgrwt>
</event>
<event>
 6    1  0.1885829E-005  0.3925595E+04  0.7818608E-02  0.8019727E-01
          2   -1    0    0  501    0  0.00000000000E+00  0.00000000000E+00  0.45335939057E+04  0.45335939057E+04  0.00000000000E+00 0. -1.
         -2   -1    0    0    0  501 -0.00000000000E+00 -0.00000000000E+00 -0.84978345307E+03  0.84978345307E+03  0.00000000000E+00 0.  1.
         23    2    1    2    0    0  0.16839951029E+04 -0.67815823904E+03  0.82340206894E+03  0.19955057223E+04  0.91181231318E+02 0.  0.
         13    1    3    3    0    0  0.11213585183E+04 -0.48425117587E+03  0.58664507266E+03  0.13550264090E+04  0.00000000000E+00 0. -1.
        -13    1    3    3    0    0  0.56263658456E+03 -0.19390706317E+03  0.23675699628E+03  0.64047931326E+03  0.00000000000E+00 0.  1.
         22    1    1    2    0    0 -0.16839951029E+04  0.67815823904E+03  0.28604083837E+04  0.33878716364E+04  0.00000000000E+00 0. -1.
<mgrwt>
<rscale>  0 0.39255945E+04</rscale>
<asrwt>0</asrwt>
<pdfrwt beam="1">  1        2 0.69747597E+00 0.39255945E+04</pdfrwt>
<pdfrwt beam="2">  1       -2 0.13073592E+00 0.39255945E+04</pdfrwt>
<totfact> 0.38468045E-02</totfact>
</mgrwt>
</event>
<event>
 6    1  0.1885829E-005  0.1812571E+04  0.7818608E-02  0.8699643E-01
         -2   -1    0    0    0  501 -0.00000000000E+00  0.00000000000E+00  0.21022220058E+03  0.21022220058E+03  0.00000000000E+00 0.  1.
          2   -1    0    0  501    0  0.00000000000E+00 -0.00000000000E+00 -0.39070740511E+04  0.39070740511E+04  0.00000000000E+00 0. -1.
         23    2    1    2    0    0  0.35708166625E+03 -0.73667490619E+03 -0.98326250500E+03  0.12829066578E+04  0.94059051130E+02 0.  0.
         11    1    3    3    0    0  0.13312367930E+03 -0.33192180092E+03 -0.49062564058E+03  0.60713055854E+03  0.00000000000E+00 0. -1.
        -11    1    3    3    0    0  0.22395798694E+03 -0.40475310527E+03 -0.49263686441E+03  0.67577609926E+03  0.00000000000E+00 0.  1.
         22    1    1    2    0    0 -0.35708166625E+03  0.73667490619E+03 -0.27135893455E+04  0.28343895939E+04  0.00000000000E+00 0. -1.
<mgrwt>
<rscale>  0 0.18125713E+04</rscale>
<asrwt>0</asrwt>
<pdfrwt beam="1">  1        2 0.60108837E+00 0.18125713E+04</pdfrwt>
<pdfrwt beam="2">  1       -2 0.32341874E-01 0.18125713E+04</pdfrwt>
<totfact> 0.34525649E+00</totfact>
</mgrwt>
</event>
<event>
 6    1  0.1885829E-005  0.2028337E+04  0.7818608E-02  0.8593486E-01
          2   -1    0    0  501    0  0.00000000000E+00  0.00000000000E+00  0.90960221693E+03  0.90960221693E+03  0.00000000000E+00 0. -1.
         -2   -1    0    0    0  501 -0.00000000000E+00 -0.00000000000E+00 -0.11307552020E+04  0.11307552020E+04  0.00000000000E+00 0.  1.
         23    2    1    2    0    0 -0.41616771857E+03 -0.90405920733E+03 -0.29651371887E+03  0.10422602992E+04  0.88699072001E+02 0.  0.
         13    1    3    3    0    0 -0.17405984670E+03 -0.36220955902E+03 -0.75065960012E+02  0.40881229584E+03  0.00000000000E+00 0. -1.
        -13    1    3    3    0    0 -0.24210787186E+03 -0.54184964831E+03 -0.22144775886E+03  0.63344800331E+03  0.00000000000E+00 0.  1.
         22    1    1    2    0    0  0.41616771857E+03  0.90405920733E+03  0.75360733786E+02  0.99809711979E+03  0.00000000000E+00 0.  1.
<mgrwt>
<rscale>  0 0.20283367E+04</rscale>
<asrwt>0</asrwt>
<pdfrwt beam="1">  1        2 0.13993880E+00 0.20283367E+04</pdfrwt>
<pdfrwt beam="2">  1       -2 0.17396234E+00 0.20283367E+04</pdfrwt>
<totfact> 0.53483762E+00</totfact>
</mgrwt>
</event>
<event>
 6    1  0.1885829E-005  0.3174780E+04  0.7818608E-02  0.8195510E-01
         -2   -1    0    0    0  501 -0.00000000000E+00  0.00000000000E+00  0.11831999516E+04  0.11831999516E+04  0.00000000000E+00 0.  1.
          2   -1    0    0  501    0  0.00000000000E+00 -0.00000000000E+00 -0.21296545050E+04  0.21296545050E+04  0.00000000000E+00 0. -1.
         23    2    1    2    0    0  0.20752037306E+03  0.85413905050E+03  0.90345190685E+03  0.12647401691E+04  0.10355734897E+03 0.  0.
         13    1    3    3    0    0  0.49872506906E+02  0.18896406981E+03  0.26574088603E+03  0.32986801169E+03  0.00000000000E+00 0. -1.
        -13    1    3    3    0    0  0.15764786616E+03  0.66517498069E+03  0.63771102081E+03  0.93487215741E+03  0.00000000000E+00 0.  1.
         22    1    1    2    0    0 -0.20752037306E+03 -0.85413905050E+03 -0.18499064603E+04  0.20481142875E+04  0.00000000000E+00 0. -1.
<mgrwt>
<rscale>  0 0.31747801E+04</rscale>
<asrwt>0</asrwt>
<pdfrwt beam="1">  1        2 0.32763915E+00 0.31747801E+04</pdfrwt>
<pdfrwt beam="2">  1       -2 0.18203076E+00 0.31747801E+04</pdfrwt>
<totfact> 0.83791191E-01</totfact>
</mgrwt>
</event>
<event>
 6    1  0.1885829E-005  0.8824707E+03  0.7818608E-02  0.9447763E-01
          2   -1    0    0  501    0  0.00000000000E+00  0.00000000000E+00  0.12232813031E+04  0.12232813031E+04  0.00000000000E+00 0. -1.
         -2   -1    0    0    0  501 -0.00000000000E+00 -0.00000000000E+00 -0.15915277829E+03  0.15915277829E+03  0.00000000000E+00 0.  1.
         23    2    1    2    0    0 -0.24663332727E+03  0.31202598767E+01  0.11018780106E+04  0.11329090169E+04  0.92249423289E+02 0.  0.
         11    1    3    3    0    0 -0.12574673924E+03  0.39774843550E+02  0.67360236117E+03  0.68639232337E+03  0.00000000000E+00 0.  1.
        -11    1    3    3    0    0 -0.12088658803E+03 -0.36654583673E+02  0.42827564943E+03  0.44651669348E+03  0.00000000000E+00 0. -1.
         22    1    1    2    0    0  0.24663332727E+03 -0.31202598767E+01 -0.37749485803E+02  0.24952506451E+03  0.00000000000E+00 0.  1.
<mgrwt>
<rscale>  0 0.88247066E+03</rscale>
<asrwt>0</asrwt>
<pdfrwt beam="1">  1        2 0.18819712E+00 0.88247066E+03</pdfrwt>
<pdfrwt beam="2">  1       -2 0.24485044E-01 0.88247066E+03</pdfrwt>
<totfact> 0.27377912E+02</totfact>
</mgrwt>
</event>
<event>
 6    1  0.1885829E-005  0.1957400E+04  0.7818608E-02  0.8626801E-01
          2   -1    0    0  501    0  0.00000000000E+00  0.00000000000E+00  0.60213355673E+03  0.60213355673E+03  0.00000000000E+00 0. -1.
         -2   -1    0    0    0  501 -0.00000000000E+00 -0.00000000000E+00 -0.15907659015E+04  0.15907659015E+04  0.00000000000E+00 0.  1.
         23    2    1    2    0    0  0.47073267651E+03 -0.26258511599E+03  0.41713488623E+03  0.68733587485E+03  0.88819455453E+02 0.  0.
         13    1    3    3    0    0  0.10363070256E+03 -0.24227877352E+02  0.58286232376E+02  0.12134083170E+03  0.00000000000E+00 0.  1.
        -13    1    3    3    0    0  0.36710197395E+03 -0.23835723864E+03  0.35884865386E+03  0.56599504314E+03  0.00000000000E+00 0. -1.
         22    1    1    2    0    0 -0.47073267651E+03  0.26258511599E+03 -0.14057672310E+04  0.15055635834E+04  0.00000000000E+00 0.  1.
<mgrwt>
<rscale>  0 0.19573998E+04</rscale>
<asrwt>0</asrwt>
<pdfrwt beam="1">  1        2 0.92635933E-01 0.19573998E+04</pdfrwt>
<pdfrwt beam="2">  1       -2 0.24473321E+00 0.19573998E+04</pdfrwt>
<totfact> 0.31872082E+00</totfact>
</mgrwt>
</event>
<event>
 6    1  0.1885829E-005  0.2470636E+04  0.7818608E-02  0.8413522E-01
         -2   -1    0    0    0  501 -0.00000000000E+00  0.00000000000E+00  0.34389433691E+04  0.34389433691E+04  0.00000000000E+00 0.  1.
          2   -1    0    0  501    0  0.00000000000E+00 -0.00000000000E+00 -0.44374385821E+03  0.44374385821E+03  0.00000000000E+00 0. -1.
         23    2    1    2    0    0  0.12200455750E+04 -0.13921245196E+03  0.13147106613E+04  0.18013573434E+04  0.92373394088E+02 0.  0.
         13    1    3    3    0    0  0.50764241121E+03 -0.10356532422E+03  0.54614938932E+03  0.75279861151E+03  0.00000000000E+00 0. -1.
        -13    1    3    3    0    0  0.71240316381E+03 -0.35647127742E+02  0.76856127194E+03  0.10485587319E+04  0.00000000000E+00 0.  1.
         22    1    1    2    0    0 -0.12200455750E+04  0.13921245196E+03  0.16804888497E+04  0.20813298839E+04  0.00000000000E+00 0.  1.
<mgrwt>
<rscale>  0 0.24706355E+04</rscale>
<asrwt>0</asrwt>
<pdfrwt beam="1">  1        2 0.68268288E-01 0.24706355E+04</pdfrwt>
<pdfrwt beam="2">  1       -2 0.52906819E+00 0.24706355E+04</pdfrwt>
<totfact> 0.69447793E-02</totfact>
</mgrwt>
</event>
<event>
 6    1  0.1885829E-005  0.9527575E+03  0.7818608E-02  0.9361933E-01
         -3   -1    0    0    0  501 -0.00000000000E+00  0.00000000000E+00  0.51839395822E+03  0.51839395822E+03  0.00000000000E+00 0.  1.
          3   -1    0    0  501    0  0.00000000000E+00 -0.00000000000E+00 -0.43776886343E+03  0.43776886343E+03  0.00000000000E+00 0. -1.
         23    2    1    2    0    0 -0.11405429171E+03 -0.41212216686E+03 -0.15993813327E+03  0.46552677674E+03  0.91005008180E+02 0.  0.
         11    1    3    3    0    0  0.20118868782E+01 -0.70487009732E+02  0.82258734101E+00  0.70520513893E+02  0.00000000000E+00 0.  1.
        -11    1    3    3    0    0 -0.11606617859E+03 -0.34163515713E+03 -0.16076072061E+03  0.39500626285E+03  0.00000000000E+00 0. -1.
         22    1    1    2    0    0  0.11405429171E+03  0.41212216686E+03  0.24056322806E+03  0.49063604492E+03  0.00000000000E+00 0.  1.
<mgrwt>
<rscale>  0 0.95275754E+03</rscale>
<asrwt>0</asrwt>
<pdfrwt beam="1">  1        3 0.67349056E-01 0.95275754E+03</pdfrwt>
<pdfrwt beam="2">  1       -3 0.79752917E-01 0.95275754E+03</pdfrwt>
<totfact> 0.81478416E+00</totfact>
</mgrwt>
</event>
<event>
 6    1  0.1885829E-005  0.3061670E+04  0.7818608E-02  0.8226337E-01
         -2   -1    0    0    0  501 -0.00000000000E+00  0.00000000000E+00  0.10718270625E+04  0.10718270625E+04  0.00000000000E+00 0.  1.
          2   -1    0    0  501    0  0.00000000000E+00 -0.00000000000E+00 -0.21864121190E+04  0.21864121190E+04  0.00000000000E+00 0. -1.
         23    2    1    2    0    0 -0.92464250673E+03 -0.11924406459E+04 -0.29182949326E+03  0.15395754052E+04  0.90826846123E+02 0.  0.
         11    1    3    3    0    0 -0.66323200421E+03 -0.80057136137E+03 -0.17490367362E+03  0.10542212724E+04  0.00000000000E+00 0.  1.
        -11    1    3    3    0    0 -0.26141050252E+03 -0.39186928448E+03 -0.11692581964E+03  0.48535413282E+03  0.00000000000E+00 0. -1.
         22    1    1    2    0    0  0.92464250673E+03  0.11924406459E+04 -0.82275556325E+03  0.17186637763E+04  0.00000000000E+00 0.  1.
<mgrwt>
<rscale>  0 0.30616699E+04</rscale>
<asrwt>0</asrwt>
<pdfrwt beam="1">  1        2 0.33637109E+00 0.30616699E+04</pdfrwt>
<pdfrwt beam="2">  1       -2 0.16489647E+00 0.30616699E+04</pdfrwt>
<totfact> 0.10380893E+00</totfact>
</mgrwt>
</event>
<event>
 6    1  0.1885829E-005  0.3268905E+04  0.7818608E-02  0.8170853E-01
         -2   -1    0    0    0  501 -0.00000000000E+00  0.00000000000E+00  0.90494512403E+03  0.90494512403E+03  0.00000000000E+00 0.  1.
          2   -1    0    0  501    0  0.00000000000E+00 -0.00000000000E+00 -0.29520404292E+04  0.29520404292E+04  0.00000000000E+00 0. -1.
         23    2    1    2    0    0 -0.88792411499E+03 -0.11799624832E+04 -0.20129496226E+03  0.14931540022E+04  0.90931383945E+02 0.  0.
         11    1    3    3    0    0 -0.13254405105E+03 -0.13263357327E+03 -0.40867919255E+02  0.19191085704E+03  0.00000000000E+00 0. -1.
        -11    1    3    3    0    0 -0.75538006393E+03 -0.10473289100E+04 -0.16042704301E+03  0.13012431451E+04  0.00000000000E+00 0.  1.
         22    1    1    2    0    0  0.88792411499E+03  0.11799624832E+04 -0.18458003429E+04  0.23638315511E+04  0.00000000000E+00 0. -1.
<mgrwt>
<rscale>  0 0.32689048E+04</rscale>
<asrwt>0</asrwt>
<pdfrwt beam="1">  1        2 0.45416007E+00 0.32689048E+04</pdfrwt>
<pdfrwt beam="2">  1       -2 0.13922233E+00 0.32689048E+04</pdfrwt>
<totfact> 0.56881273E-01</totfact>
</mgrwt>
</event>
<event>
 6    1  0.1885829E-005  0.2657589E+04  0.7818608E-02  0.8348898E-01
         -2   -1    0    0    0  501 -0.00000000000E+00  0.00000000000E+00  0.10024146001E+04  0.10024146001E+04  0.00000000000E+00 0. -1.
          2   -1    0    0  501    0  0.00000000000E+00 -0.00000000000E+00 -0.17614418521E+04  0.17614418521E+04  0.00000000000E+00 0.  1.
         23    2    1    2    0    0  0.91557495509E+03  0.19380251995E+02  0.61897929391E+03  0.11093005803E+04  0.93591231264E+02 0.  0.
         11    1    3    3    0    0  0.78019496723E+03  0.29776514601E+01  0.56183097423E+03  0.96144011613E+03  0.00000000000E+00 0. -1.
        -11    1    3    3    0    0  0.13537998786E+03  0.16402600534E+02  0.57148319682E+02  0.14786046415E+03  0.00000000000E+00 0.  1.
         22    1    1    2    0    0 -0.91557495509E+03 -0.19380251995E+02 -0.13780065459E+04  0.16545558719E+04  0.00000000000E+00 0.  1.
<mgrwt>
<rscale>  0 0.26575892E+04</rscale>
<asrwt>0</asrwt>
<pdfrwt beam="1">  1        2 0.27099106E+00 0.26575892E+04</pdfrwt>
<pdfrwt beam="2">  1       -2 0.15421763E+00 0.26575892E+04</pdfrwt>
<totfact> 0.22210723E+00</totfact>
</mgrwt>
</event>
<event>
 6    1  0.1885829E-005  0.2193489E+04  0.7818608E-02  0.8521143E-01
         -2   -1    0    0    0  501 -0.00000000000E+00  0.00000000000E+00  0.12820459825E+04  0.12820459825E+04  0.00000000000E+00 0. -1.
          2   -1    0    0  501    0  0.00000000000E+00 -0.00000000000E+00 -0.93822586491E+03  0.93822586491E+03  0.00000000000E+00 0.  1.
         23    2    1    2    0    0  0.20316015006E+03  0.41291254020E+03  0.11777493857E+04  0.12677967368E+04  0.91891990482E+02 0.  0.
         13    1    3    3    0    0  0.84335645122E+00  0.49834672735E+01  0.69040353218E+02  0.69225115158E+02  0.00000000000E+00 0. -1.
        -13    1    3    3    0    0  0.20231679361E+03  0.40792907292E+03  0.11087090324E+04  0.11985716216E+04  0.00000000000E+00 0.  1.
         22    1    1    2    0    0 -0.20316015006E+03 -0.41291254020E+03 -0.83392926802E+03  0.95247511069E+03  0.00000000000E+00 0.  1.
<mgrwt>
<rscale>  0 0.21934892E+04</rscale>
<asrwt>0</asrwt>
<pdfrwt beam="1">  1        2 0.14434244E+00 0.21934892E+04</pdfrwt>
<pdfrwt beam="2">  1       -2 0.19723784E+00 0.21934892E+04</pdfrwt>
<totfact> 0.35049805E+00</totfact>
</mgrwt>
</event>
<event>
 6    1  0.1885829E-005  0.3530895E+04  0.7818608E-02  0.8106507E-01
          2   -1    0    0  501    0  0.00000000000E+00  0.00000000000E+00  0.45921393622E+04  0.45921393622E+04  0.00000000000E+00 0. -1.
         -2   -1    0    0    0  501 -0.00000000000E+00 -0.00000000000E+00 -0.67872591843E+03  0.67872591843E+03  0.00000000000E+00 0.  1.
         23    2    1    2    0    0 -0.15739428020E+04  0.23450743294E+03  0.30956454381E+04  0.34817218567E+04  0.84123295020E+02 0.  0.
         11    1    3    3    0    0 -0.90909718849E+03  0.13953751474E+03  0.18788685722E+04  0.20919071508E+04  0.00000000000E+00 0. -1.
        -11    1    3    3    0    0 -0.66484561356E+03  0.94969918201E+02  0.12167768659E+04  0.13898147059E+04  0.00000000000E+00 0.  1.
         22    1    1    2    0    0  0.15739428020E+04 -0.23450743294E+03  0.81776800563E+03  0.17891434239E+04  0.00000000000E+00 0.  1.
<mgrwt>
<rscale>  0 0.35308945E+04</rscale>
<asrwt>0</asrwt>
<pdfrwt beam="1">  1        2 0.70648296E+00 0.35308945E+04</pdfrwt>
<pdfrwt beam="2">  1       -2 0.10441938E+00 0.35308945E+04</pdfrwt>
<totfact> 0.60453109E-02</totfact>
</mgrwt>
</event>
<event>
 6    1  0.1885829E-005  0.1636737E+04  0.7818608E-02  0.8798291E-01
         -2   -1    0    0    0  501 -0.00000000000E+00  0.00000000000E+00  0.51927091097E+03  0.51927091097E+03  0.00000000000E+00 0.  1.
          2   -1    0    0  501    0  0.00000000000E+00 -0.00000000000E+00 -0.12897454973E+04  0.12897454973E+04  0.00000000000E+00 0. -1.
         23    2    1    2    0    0  0.33466790108E+03  0.72894426278E+03 -0.22258709440E+03  0.83765496880E+03  0.93586804114E+02 0.  0.
         11    1    3    3    0    0  0.21398167398E+03  0.36969296296E+03 -0.14256665850E+03  0.45031799406E+03  0.00000000000E+00 0. -1.
        -11    1    3    3    0    0  0.12068622710E+03  0.35925129983E+03 -0.80020435898E+02  0.38733697474E+03  0.00000000000E+00 0.  1.
         22    1    1    2    0    0 -0.33466790108E+03 -0.72894426278E+03 -0.54788749191E+03  0.97136143945E+03  0.00000000000E+00 0. -1.
<mgrwt>
<rscale>  0 0.16367374E+04</rscale>
<asrwt>0</asrwt>
<pdfrwt beam="1">  1        2 0.19842238E+00 0.16367374E+04</pdfrwt>
<pdfrwt beam="2">  1       -2 0.79887833E-01 0.16367374E+04</pdfrwt>
<totfact> 0.22226849E+01</totfact>
</mgrwt>
</event>
<event>
 6    1  0.1885829E-005  0.1383831E+04  0.7818608E-02  0.8965607E-01
         -2   -1    0    0    0  501 -0.00000000000E+00  0.00000000000E+00  0.25044437333E+03  0.25044437333E+03  0.00000000000E+00 0. -1.
          2   -1    0    0  501    0  0.00000000000E+00 -0.00000000000E+00 -0.19115895425E+04  0.19115895425E+04  0.00000000000E+00 0.  1.
         23    2    1    2    0    0 -0.22057200548E+03 -0.61636308083E+03 -0.11697716678E+04  0.13434965771E+04  0.89787754640E+02 0.  0.
         11    1    3    3    0    0 -0.16041127005E+03 -0.32175691519E+03 -0.66440851253E+03  0.75544553712E+03  0.00000000000E+00 0.  1.
        -11    1    3    3    0    0 -0.60160735436E+02 -0.29460616564E+03 -0.50536315532E+03  0.58805104002E+03  0.00000000000E+00 0. -1.
         22    1    1    2    0    0  0.22057200548E+03  0.61636308083E+03 -0.49137350132E+03  0.81853733868E+03  0.00000000000E+00 0. -1.
<mgrwt>
<rscale>  0 0.13838307E+04</rscale>
<asrwt>0</asrwt>
<pdfrwt beam="1">  1        2 0.29409070E+00 0.13838307E+04</pdfrwt>
<pdfrwt beam="2">  1       -2 0.38529903E-01 0.13838307E+04</pdfrwt>
<totfact> 0.46406670E+01</totfact>
</mgrwt>
</event>
<event>
 6    1  0.1885829E-005  0.2075776E+04  0.7818608E-02  0.8571990E-01
          2   -1    0    0  501    0  0.00000000000E+00  0.00000000000E+00  0.68635471824E+03  0.68635471824E+03  0.00000000000E+00 0.  1.
         -2   -1    0    0    0  501 -0.00000000000E+00 -0.00000000000E+00 -0.15694676487E+04  0.15694676487E+04  0.00000000000E+00 0. -1.
         23    2    1    2    0    0  0.17821658983E+03  0.68787437827E+03  0.37682170114E+03  0.80932052142E+03  0.89848754966E+02 0.  0.
         13    1    3    3    0    0  0.56223340561E+02  0.26512021182E+03  0.19168786709E+03  0.33195486008E+03  0.00000000000E+00 0. -1.
        -13    1    3    3    0    0  0.12199324927E+03  0.42275416645E+03  0.18513383405E+03  0.47736566134E+03  0.00000000000E+00 0.  1.
         22    1    1    2    0    0 -0.17821658983E+03 -0.68787437827E+03 -0.12599346316E+04  0.14465018455E+04  0.00000000000E+00 0. -1.
<mgrwt>
<rscale>  0 0.20757760E+04</rscale>
<asrwt>0</asrwt>
<pdfrwt beam="1">  1        2 0.10559303E+00 0.20757760E+04</pdfrwt>
<pdfrwt beam="2">  1       -2 0.24145656E+00 0.20757760E+04</pdfrwt>
<totfact> 0.28132326E+00</totfact>
</mgrwt>
</event>
<event>
 6    1  0.1885829E-005  0.4168933E+04  0.7818608E-02  0.7971308E-01
          2   -1    0    0  501    0  0.00000000000E+00  0.00000000000E+00  0.37476788829E+04  0.37476788829E+04  0.00000000000E+00 0. -1.
         -2   -1    0    0    0  501 -0.00000000000E+00 -0.00000000000E+00 -0.11593844111E+04  0.11593844111E+04  0.00000000000E+00 0.  1.
         23    2    1    2    0    0 -0.12846015361E+04  0.14081381742E+04  0.22850573052E+04  0.29770355731E+04  0.90552147493E+02 0.  0.
         13    1    3    3    0    0 -0.94157763564E+03  0.10572342719E+04  0.17517253732E+04  0.22522998319E+04  0.00000000000E+00 0. -1.
        -13    1    3    3    0    0 -0.34302390042E+03  0.35090390228E+03  0.53333193200E+03  0.72473574121E+03  0.00000000000E+00 0.  1.
         22    1    1    2    0    0  0.12846015361E+04 -0.14081381742E+04  0.30323716662E+03  0.19300277209E+04  0.00000000000E+00 0.  1.
<mgrwt>
<rscale>  0 0.41689329E+04</rscale>
<asrwt>0</asrwt>
<pdfrwt beam="1">  1        2 0.57656598E+00 0.41689329E+04</pdfrwt>
<pdfrwt beam="2">  1       -2 0.17836683E+00 0.41689329E+04</pdfrwt>
<totfact> 0.77695746E-02</totfact>
</mgrwt>
</event>
<event>
 6    1  0.2038747E-005  0.4700961E+04  0.7818608E-02  0.7876369E-01
         -2   -1    0    0    0  501 -0.00000000000E+00  0.00000000000E+00  0.19851714843E+04  0.19851714843E+04  0.00000000000E+00 0.  1.
          2   -1    0    0  501    0  0.00000000000E+00 -0.00000000000E+00 -0.27830126801E+04  0.27830126801E+04  0.00000000000E+00 0. -1.
         23    2    1    2    0    0  0.12504247085E+03 -0.87441201903E+03 -0.26074412998E+04  0.27545097778E+04  0.91334471139E+02 0.  0.
         11    1    3    3    0    0  0.10480965909E+03 -0.48415754410E+03 -0.15455729241E+04  0.16230185630E+04  0.00000000000E+00 0. -1.
        -11    1    3    3    0    0  0.20232811759E+02 -0.39025447493E+03 -0.10618683758E+04  0.11314912149E+04  0.00000000000E+00 0.  1.
         22    1    1    2    0    0 -0.12504247085E+03  0.87441201903E+03  0.18096001040E+04  0.20136743865E+04  0.00000000000E+00 0.  1.
<mgrwt>
<rscale>  0 0.47009605E+04</rscale>
<asrwt>0</asrwt>
<pdfrwt beam="1">  1        2 0.42815579E+00 0.47009605E+04</pdfrwt>
<pdfrwt beam="2">  1       -2 0.30541100E+00 0.47009605E+04</pdfrwt>
<totfact> 0.51969192E-02</totfact>
</mgrwt>
</event>
<event>
 6    1  0.1885829E-005  0.2982670E+04  0.7818608E-02  0.8248697E-01
         -2   -1    0    0    0  501 -0.00000000000E+00  0.00000000000E+00  0.14330061708E+04  0.14330061708E+04  0.00000000000E+00 0.  1.
          2   -1    0    0  501    0  0.00000000000E+00 -0.00000000000E+00 -0.15520381617E+04  0.15520381617E+04  0.00000000000E+00 0. -1.
         23    2    1    2    0    0  0.17581793234E+03  0.75681378349E+03  0.12127863781E+04  0.14431561340E+04  0.90386835459E+02 0.  0.
         11    1    3    3    0    0  0.14570515426E+03  0.43021453793E+03  0.70182806688E+03  0.83598874161E+03  0.00000000000E+00 0. -1.
        -11    1    3    3    0    0  0.30112778083E+02  0.32659924556E+03  0.51095831125E+03  0.60716739243E+03  0.00000000000E+00 0.  1.
         22    1    1    2    0    0 -0.17581793234E+03 -0.75681378349E+03 -0.13318183691E+04  0.15418881984E+04  0.00000000000E+00 0. -1.
<mgrwt>
<rscale>  0 0.29826701E+04</rscale>
<asrwt>0</asrwt>
<pdfrwt beam="1">  1        2 0.23877510E+00 0.29826701E+04</pdfrwt>
<pdfrwt beam="2">  1       -2 0.22046249E+00 0.29826701E+04</pdfrwt>
<totfact> 0.99855626E-01</totfact>
</mgrwt>
</event>
<event>
 6    1  0.1885829E-005  0.1690004E+04  0.7818608E-02  0.8767086E-01
          2   -1    0    0  501    0  0.00000000000E+00  0.00000000000E+00  0.15365194962E+04  0.15365194962E+04  0.00000000000E+00 0. -1.
         -2   -1    0    0    0  501 -0.00000000000E+00 -0.00000000000E+00 -0.46470488145E+03  0.46470488145E+03  0.00000000000E+00 0.  1.
         23    2    1    2    0    0 -0.35340562145E+03 -0.98215370686E+02  0.14356585887E+04  0.14845772740E+04  0.91171853000E+02 0.  0.
         13    1    3    3    0    0 -0.10731440927E+03 -0.21889074572E+00  0.54047800790E+03  0.55102895330E+03  0.00000000000E+00 0.  1.
        -13    1    3    3    0    0 -0.24609121218E+03 -0.97996479940E+02  0.89518058079E+03  0.93354832067E+03  0.00000000000E+00 0. -1.
         22    1    1    2    0    0  0.35340562145E+03  0.98215370686E+02 -0.36384397398E+03  0.51664710365E+03  0.00000000000E+00 0.  1.
<mgrwt>
<rscale>  0 0.16900037E+04</rscale>
<asrwt>0</asrwt>
<pdfrwt beam="1">  1        2 0.23638761E+00 0.16900037E+04</pdfrwt>
<pdfrwt beam="2">  1       -2 0.71493060E-01 0.16900037E+04</pdfrwt>
<totfact> 0.20459926E+01</totfact>
</mgrwt>
</event>
<event>
 6    1  0.1885829E-005  0.2296688E+04  0.7818608E-02  0.8479228E-01
         -1   -1    0    0    0  501 -0.00000000000E+00  0.00000000000E+00  0.36038437332E+03  0.36038437332E+03  0.00000000000E+00 0.  1.
          1   -1    0    0  501    0  0.00000000000E+00 -0.00000000000E+00 -0.36591329899E+04  0.36591329899E+04  0.00000000000E+00 0. -1.
         23    2    1    2    0    0 -0.57758401236E+03 -0.59338779635E+03 -0.26301533377E+03  0.87287011058E+03  0.83742438166E+02 0.  0.
         11    1    3    3    0    0 -0.10989852194E+03 -0.14564161972E+03 -0.30853744924E+02  0.18504356270E+03  0.00000000000E+00 0.  1.
        -11    1    3    3    0    0 -0.46768549041E+03 -0.44774617663E+03 -0.23216158884E+03  0.68782654788E+03  0.00000000000E+00 0. -1.
         22    1    1    2    0    0  0.57758401236E+03  0.59338779635E+03 -0.30357332828E+04  0.31466472527E+04  0.00000000000E+00 0. -1.
<mgrwt>
<rscale>  0 0.22966884E+04</rscale>
<asrwt>0</asrwt>
<pdfrwt beam="1">  1        1 0.56294354E+00 0.22966884E+04</pdfrwt>
<pdfrwt beam="2">  1       -1 0.55443749E-01 0.22966884E+04</pdfrwt>
<totfact> 0.55564038E-01</totfact>
</mgrwt>
</event>
<event>
 6    1  0.1885829E-005  0.7027391E+04  0.7818608E-02  0.7574617E-01
          2   -1    0    0  501    0  0.00000000000E+00  0.00000000000E+00  0.40271151622E+04  0.40271151622E+04  0.00000000000E+00 0. -1.
         -2   -1    0    0    0  501 -0.00000000000E+00 -0.00000000000E+00 -0.30657323641E+04  0.30657323641E+04  0.00000000000E+00 0.  1.
         23    2    1    2    0    0  0.17716035800E+04  0.12983462132E+04  0.32481570663E+04  0.39221033411E+04  0.89934179007E+02 0.  0.
         11    1    3    3    0    0  0.12022859577E+04  0.90224192509E+03  0.22899155050E+04  0.27392051832E+04  0.00000000000E+00 0. -1.
        -11    1    3    3    0    0  0.56931762229E+03  0.39610428814E+03  0.95824156130E+03  0.11828981579E+04  0.00000000000E+00 0.  1.
         22    1    1    2    0    0 -0.17716035800E+04 -0.12983462132E+04 -0.22867742682E+04  0.31707441852E+04  0.00000000000E+00 0.  1.
<mgrwt>
<rscale>  0 0.70273913E+04</rscale>
<asrwt>0</asrwt>
<pdfrwt beam="1">  1        2 0.61955618E+00 0.70273913E+04</pdfrwt>
<pdfrwt beam="2">  1       -2 0.47165113E+00 0.70273913E+04</pdfrwt>
<totfact> 0.50786495E-04</totfact>
</mgrwt>
</event>
<event>
 6    1  0.2485602E-005  0.3432765E+04  0.7818608E-02  0.8129911E-01
         -2   -1    0    0    0  501 -0.00000000000E+00  0.00000000000E+00  0.18304858484E+04  0.18304858484E+04  0.00000000000E+00 0.  1.
          2   -1    0    0  501    0  0.00000000000E+00 -0.00000000000E+00 -0.16093916020E+04  0.16093916020E+04  0.00000000000E+00 0. -1.
         23    2    1    2    0    0  0.16248126681E+04  0.54063913128E+03  0.11921932820E+02  0.17147513872E+04  0.89012980442E+02 0.  0.
         11    1    3    3    0    0  0.69863256430E+03  0.22842773543E+03  0.49013658974E+02  0.73666072855E+03  0.00000000000E+00 0. -1.
        -11    1    3    3    0    0  0.92618010384E+03  0.31221139585E+03 -0.37091726154E+02  0.97809065868E+03  0.00000000000E+00 0.  1.
         22    1    1    2    0    0 -0.16248126681E+04 -0.54063913128E+03  0.20917231355E+03  0.17251260631E+04  0.00000000000E+00 0.  1.
<mgrwt>
<rscale>  0 0.34327648E+04</rscale>
<asrwt>0</asrwt>
<pdfrwt beam="1">  1        2 0.24759871E+00 0.34327648E+04</pdfrwt>
<pdfrwt beam="2">  1       -2 0.28161321E+00 0.34327648E+04</pdfrwt>
<totfact> 0.37475642E-01</totfact>
</mgrwt>
</event>
<event>
 6    1  0.1885829E-005  0.3055326E+04  0.7818608E-02  0.8228106E-01
          2   -1    0    0  501    0  0.00000000000E+00  0.00000000000E+00  0.32014409030E+04  0.32014409030E+04  0.00000000000E+00 0. -1.
         -2   -1    0    0    0  501 -0.00000000000E+00 -0.00000000000E+00 -0.72896998760E+03  0.72896998760E+03  0.00000000000E+00 0.  1.
         23    2    1    2    0    0 -0.14347689212E+04 -0.73430993543E+02  0.57452163770E+03  0.15500400311E+04  0.92709319007E+02 0.  0.
         11    1    3    3    0    0 -0.11229675520E+04 -0.20561477382E+02  0.45964831132E+03  0.12135713689E+04  0.00000000000E+00 0. -1.
        -11    1    3    3    0    0 -0.31180136918E+03 -0.52869516161E+02  0.11487332638E+03  0.33646866224E+03  0.00000000000E+00 0.  1.
         22    1    1    2    0    0  0.14347689212E+04  0.73430993543E+02  0.18979492777E+04  0.23803708595E+04  0.00000000000E+00 0. -1.
<mgrwt>
<rscale>  0 0.30553261E+04</rscale>
<asrwt>0</asrwt>
<pdfrwt beam="1">  1        2 0.49252936E+00 0.30553261E+04</pdfrwt>
<pdfrwt beam="2">  1       -2 0.11214923E+00 0.30553261E+04</pdfrwt>
<totfact> 0.69064825E-01</totfact>
</mgrwt>
</event>
<event>
 6    1  0.1885829E-005  0.2909117E+04  0.7818608E-02  0.8270170E-01
         -2   -1    0    0    0  501 -0.00000000000E+00  0.00000000000E+00  0.13857067765E+04  0.13857067765E+04  0.00000000000E+00 0. -1.
          2   -1    0    0  501    0  0.00000000000E+00 -0.00000000000E+00 -0.15268315765E+04  0.15268315765E+04  0.00000000000E+00 0.  1.
         23    2    1    2    0    0  0.59994682377E+03 -0.11017754773E+04  0.66355394888E+03  0.14221178476E+04  0.90939186246E+02 0.  0.
         11    1    3    3    0    0  0.62861468521E+02 -0.18342664106E+03  0.10687744301E+03  0.22140389495E+03  0.00000000000E+00 0. -1.
        -11    1    3    3    0    0  0.53708535525E+03 -0.91834883627E+03  0.55667650588E+03  0.12007139527E+04  0.00000000000E+00 0.  1.
         22    1    1    2    0    0 -0.59994682377E+03  0.11017754773E+04 -0.80467874891E+03  0.14904205053E+04  0.00000000000E+00 0.  1.
<mgrwt>
<rscale>  0 0.29091173E+04</rscale>
<asrwt>0</asrwt>
<pdfrwt beam="1">  1        2 0.23489717E+00 0.29091173E+04</pdfrwt>
<pdfrwt beam="2">  1       -2 0.21318566E+00 0.29091173E+04</pdfrwt>
<totfact> 0.11549440E+00</totfact>
</mgrwt>
</event>
<event>
 6    1  0.1885829E-005  0.2735338E+04  0.7818608E-02  0.8323629E-01
         -1   -1    0    0    0  501 -0.00000000000E+00  0.00000000000E+00  0.21407293039E+04  0.21407293039E+04  0.00000000000E+00 0. -1.
          1   -1    0    0  501    0  0.00000000000E+00 -0.00000000000E+00 -0.87377618125E+03  0.87377618125E+03  0.00000000000E+00 0.  1.
         23    2    1    2    0    0 -0.10932747395E+04 -0.53413951796E+03 -0.48956653684E+02  0.12222518145E+04  0.10463299397E+03 0.  0.
         11    1    3    3    0    0 -0.71372306308E+03 -0.32511190591E+03 -0.76930814161E+02  0.78804613590E+03  0.00000000000E+00 0. -1.
        -11    1    3    3    0    0 -0.37955167639E+03 -0.20902761205E+03  0.27974160477E+02  0.43420567857E+03  0.00000000000E+00 0.  1.
         22    1    1    2    0    0  0.10932747395E+04  0.53413951796E+03  0.13159097763E+04  0.17922536707E+04  0.00000000000E+00 0. -1.
<mgrwt>
<rscale>  0 0.27353378E+04</rscale>
<asrwt>0</asrwt>
<pdfrwt beam="1">  1        1 0.13442710E+00 0.27353378E+04</pdfrwt>
<pdfrwt beam="2">  1       -1 0.32934297E+00 0.27353378E+04</pdfrwt>
<totfact> 0.35402790E-01</totfact>
</mgrwt>
</event>
<event>
 6    1  0.1885829E-005  0.1518673E+04  0.7818608E-02  0.8872130E-01
          1   -1    0    0  501    0  0.00000000000E+00  0.00000000000E+00  0.41572551167E+04  0.41572551167E+04  0.00000000000E+00 0. -1.
         -1   -1    0    0    0  501 -0.00000000000E+00 -0.00000000000E+00 -0.13869533206E+03  0.13869533206E+03  0.00000000000E+00 0.  1.
         23    2    1    2    0    0 -0.54187133188E+03 -0.17337391674E+03  0.34272351688E+04  0.34753726910E+04  0.92689715801E+02 0.  0.
         13    1    3    3    0    0 -0.36206020636E+03 -0.84850879545E+02  0.24181697524E+04  0.24465960468E+04  0.00000000000E+00 0. -1.
        -13    1    3    3    0    0 -0.17981112552E+03 -0.88523037196E+02  0.10090654164E+04  0.10287766442E+04  0.00000000000E+00 0.  1.
         22    1    1    2    0    0  0.54187133188E+03  0.17337391674E+03  0.59132461586E+03  0.82057775783E+03  0.00000000000E+00 0.  1.
<mgrwt>
<rscale>  0 0.15186729E+04</rscale>
<asrwt>0</asrwt>
<pdfrwt beam="1">  1        1 0.63957762E+00 0.15186729E+04</pdfrwt>
<pdfrwt beam="2">  1       -1 0.21337747E-01 0.15186729E+04</pdfrwt>
<totfact> 0.12544045E+00</totfact>
</mgrwt>
</event>
<event>
 6    1  0.1885829E-005  0.5014107E+04  0.7818608E-02  0.7826335E-01
         -1   -1    0    0    0  501 -0.00000000000E+00  0.00000000000E+00  0.25144336362E+04  0.25144336362E+04  0.00000000000E+00 0.  1.
          1   -1    0    0  501    0  0.00000000000E+00 -0.00000000000E+00 -0.24996951990E+04  0.24996951990E+04  0.00000000000E+00 0. -1.
         23    2    1    2    0    0  0.16809933586E+04 -0.41803204466E+03  0.18186708819E+04  0.25131966636E+04  0.90023504757E+02 0.  0.
         13    1    3    3    0    0  0.11533984754E+04 -0.25574896714E+03  0.11968762273E+04  0.16817396590E+04  0.00000000000E+00 0.  1.
        -13    1    3    3    0    0  0.52759488318E+03 -0.16228307752E+03  0.62179465461E+03  0.83145700461E+03  0.00000000000E+00 0. -1.
         22    1    1    2    0    0 -0.16809933586E+04  0.41803204466E+03 -0.18039324446E+04  0.25009321716E+04  0.00000000000E+00 0. -1.
<mgrwt>
<rscale>  0 0.50141072E+04</rscale>
<asrwt>0</asrwt>
<pdfrwt beam="1">  1        1 0.38456849E+00 0.50141072E+04</pdfrwt>
<pdfrwt beam="2">  1       -1 0.38683595E+00 0.50141072E+04</pdfrwt>
<totfact> 0.85989616E-03</totfact>
</mgrwt>
</event>
<event>
 6    1  0.1885829E-005  0.3909141E+04  0.7818608E-02  0.8023131E-01
          2   -1    0    0  501    0  0.00000000000E+00  0.00000000000E+00  0.21423816821E+04  0.21423816821E+04  0.00000000000E+00 0. -1.
         -2   -1    0    0    0  501 -0.00000000000E+00 -0.00000000000E+00 -0.17832236851E+04  0.17832236851E+04  0.00000000000E+00 0.  1.
         23    2    1    2    0    0 -0.13399608622E+04 -0.10565325038E+04  0.11347600733E+04  0.20512215686E+04  0.89852410837E+02 0.  0.
         11    1    3    3    0    0 -0.69004805709E+03 -0.60031587873E+03  0.59820773287E+03  0.10928851573E+04  0.00000000000E+00 0. -1.
        -11    1    3    3    0    0 -0.64991280510E+03 -0.45621662506E+03  0.53655234044E+03  0.95833641131E+03  0.00000000000E+00 0.  1.
         22    1    1    2    0    0  0.13399608622E+04  0.10565325038E+04 -0.77560207631E+03  0.18743837986E+04  0.00000000000E+00 0.  1.
<mgrwt>
<rscale>  0 0.39091410E+04</rscale>
<asrwt>0</asrwt>
<pdfrwt beam="1">  1        2 0.32959718E+00 0.39091410E+04</pdfrwt>
<pdfrwt beam="2">  1       -2 0.27434211E+00 0.39091410E+04</pdfrwt>
<totfact> 0.20160364E-01</totfact>
</mgrwt>
</event>
<event>
 6    1  0.1885829E-005  0.1627972E+04  0.7818608E-02  0.8803545E-01
          2   -1    0    0  501    0  0.00000000000E+00  0.00000000000E+00  0.21621325582E+04  0.21621325582E+04  0.00000000000E+00 0. -1.
         -2   -1    0    0    0  501 -0.00000000000E+00 -0.00000000000E+00 -0.30644447803E+03  0.30644447803E+03  0.00000000000E+00 0.  1.
         23    2    1    2    0    0 -0.42210000051E+03  0.53789676038E+03  0.26907354572E+03  0.74090605593E+03  0.95078259565E+02 0.  0.
         11    1    3    3    0    0 -0.21262854704E+03  0.30535601710E+03  0.19141037528E+03  0.41843891783E+03  0.00000000000E+00 0.  1.
        -11    1    3    3    0    0 -0.20947145347E+03  0.23254074328E+03  0.77663170441E+02  0.32246713809E+03  0.00000000000E+00 0. -1.
         22    1    1    2    0    0  0.42210000051E+03 -0.53789676038E+03  0.15866145344E+04  0.17276709803E+04  0.00000000000E+00 0. -1.
<mgrwt>
<rscale>  0 0.16279725E+04</rscale>
<asrwt>0</asrwt>
<pdfrwt beam="1">  1        2 0.33263577E+00 0.16279725E+04</pdfrwt>
<pdfrwt beam="2">  1       -2 0.47145306E-01 0.16279725E+04</pdfrwt>
<totfact> 0.22142265E+01</totfact>
</mgrwt>
</event>
<event>
 6    1  0.1885829E-005  0.1966393E+04  0.7818608E-02  0.8622496E-01
          1   -1    0    0  501    0  0.00000000000E+00  0.00000000000E+00  0.18302739953E+04  0.18302739953E+04  0.00000000000E+00 0. -1.
         -1   -1    0    0    0  501 -0.00000000000E+00 -0.00000000000E+00 -0.52815863687E+03  0.52815863687E+03  0.00000000000E+00 0.  1.
         23    2    1    2    0    0  0.41422446540E+03  0.47821269097E+03 -0.24647814376E+03  0.68558741502E+03  0.94917557630E+02 0.  0.
         13    1    3    3    0    0  0.27962317054E+03  0.35505986850E+03 -0.13455434279E+03  0.47155222286E+03  0.00000000000E+00 0.  1.
        -13    1    3    3    0    0  0.13460129486E+03  0.12315282247E+03 -0.11192380097E+03  0.21403519216E+03  0.00000000000E+00 0. -1.
         22    1    1    2    0    0 -0.41422446540E+03 -0.47821269097E+03  0.15485935022E+04  0.16728452172E+04  0.00000000000E+00 0. -1.
<mgrwt>
<rscale>  0 0.19663927E+04</rscale>
<asrwt>0</asrwt>
<pdfrwt beam="1">  1        1 0.28158061E+00 0.19663927E+04</pdfrwt>
<pdfrwt beam="2">  1       -1 0.81255176E-01 0.19663927E+04</pdfrwt>
<totfact> 0.54535374E+00</totfact>
</mgrwt>
</event>
<event>
 6    1  0.1885829E-005  0.2912869E+04  0.7818608E-02  0.8269059E-01
         -1   -1    0    0    0  501 -0.00000000000E+00  0.00000000000E+00  0.87103009095E+03  0.87103009095E+03  0.00000000000E+00 0.  1.
          1   -1    0    0  501    0  0.00000000000E+00 -0.00000000000E+00 -0.24352791353E+04  0.24352791353E+04  0.00000000000E+00 0. -1.
         23    2    1    2    0    0  0.64826846276E+03  0.12309399382E+04 -0.12671346180E+04  0.18837263240E+04  0.85613039734E+02 0.  0.
         13    1    3    3    0    0  0.28576999611E+03  0.62509824810E+03 -0.59960868602E+03  0.91210903230E+03  0.00000000000E+00 0. -1.
        -13    1    3    3    0    0  0.36249846665E+03  0.60584169008E+03 -0.66752593195E+03  0.97161729173E+03  0.00000000000E+00 0.  1.
         22    1    1    2    0    0 -0.64826846276E+03 -0.12309399382E+04 -0.29711442633E+03  0.14225829022E+04  0.00000000000E+00 0. -1.
<mgrwt>
<rscale>  0 0.29128690E+04</rscale>
<asrwt>0</asrwt>
<pdfrwt beam="1">  1        1 0.37465833E+00 0.29128690E+04</pdfrwt>
<pdfrwt beam="2">  1       -1 0.13400463E+00 0.29128690E+04</pdfrwt>
<totfact> 0.60439783E-01</totfact>
</mgrwt>
</event>
<event>
 6    1  0.2197875E-005  0.3629447E+04  0.7818608E-02  0.8083780E-01
          2   -1    0    0  501    0  0.00000000000E+00  0.00000000000E+00  0.20173620855E+04  0.20173620855E+04  0.00000000000E+00 0. -1.
         -2   -1    0    0    0  501 -0.00000000000E+00 -0.00000000000E+00 -0.16324397900E+04  0.16324397900E+04  0.00000000000E+00 0.  1.
         23    2    1    2    0    0  0.91066922107E+03 -0.71444405497E+03  0.15967185472E+04  0.19740337252E+04  0.86892412249E+02 0.  0.
         11    1    3    3    0    0  0.49773438612E+03 -0.34403807365E+03  0.79312430831E+03  0.99757099180E+03  0.00000000000E+00 0. -1.
        -11    1    3    3    0    0  0.41293483495E+03 -0.37040598132E+03  0.80359423888E+03  0.97646273337E+03  0.00000000000E+00 0.  1.
         22    1    1    2    0    0 -0.91066922107E+03  0.71444405497E+03 -0.12117962518E+04  0.16757681503E+04  0.00000000000E+00 0.  1.
<mgrwt>
<rscale>  0 0.36294474E+04</rscale>
<asrwt>0</asrwt>
<pdfrwt beam="1">  1        2 0.31036340E+00 0.36294474E+04</pdfrwt>
<pdfrwt beam="2">  1       -2 0.25114458E+00 0.36294474E+04</pdfrwt>
<totfact> 0.33593630E-01</totfact>
</mgrwt>
</event>
<event>
 6    1  0.1885829E-005  0.2534425E+04  0.7818608E-02  0.8390823E-01
         -2   -1    0    0    0  501 -0.00000000000E+00  0.00000000000E+00  0.48356997317E+03  0.48356997317E+03  0.00000000000E+00 0.  1.
          2   -1    0    0  501    0  0.00000000000E+00 -0.00000000000E+00 -0.33207761406E+04  0.33207761406E+04  0.00000000000E+00 0. -1.
         23    2    1    2    0    0  0.12285583158E+04 -0.26686829430E+03 -0.16388383100E+04  0.20674927108E+04  0.90337595059E+02 0.  0.
         11    1    3    3    0    0  0.96025236825E+03 -0.18533056947E+03 -0.12230124679E+04  0.15659474855E+04  0.00000000000E+00 0.  1.
        -11    1    3    3    0    0  0.26830594751E+03 -0.81537724831E+02 -0.41582584215E+03  0.50154522531E+03  0.00000000000E+00 0. -1.
         22    1    1    2    0    0 -0.12285583158E+04  0.26686829430E+03 -0.11983678574E+04  0.17368534029E+04  0.00000000000E+00 0.  1.
<mgrwt>
<rscale>  0 0.25344251E+04</rscale>
<asrwt>0</asrwt>
<pdfrwt beam="1">  1        2 0.51088865E+00 0.25344251E+04</pdfrwt>
<pdfrwt beam="2">  1       -2 0.74395378E-01 0.25344251E+04</pdfrwt>
<totfact> 0.15606982E+00</totfact>
</mgrwt>
</event>
<event>
 6    1  0.1885829E-005  0.1746378E+04  0.7818608E-02  0.8735347E-01
          2   -1    0    0  501    0  0.00000000000E+00  0.00000000000E+00  0.17747744651E+04  0.17747744651E+04  0.00000000000E+00 0. -1.
         -2   -1    0    0    0  501 -0.00000000000E+00 -0.00000000000E+00 -0.42960896696E+03  0.42960896696E+03  0.00000000000E+00 0.  1.
         23    2    1    2    0    0 -0.18823096153E+03  0.67039500145E+03  0.14286287990E+02  0.70235153332E+03  0.90737122956E+02 0.  0.
         13    1    3    3    0    0 -0.11501201773E+02  0.36306265019E+02 -0.20357248380E+02  0.43183794223E+02  0.00000000000E+00 0. -1.
        -13    1    3    3    0    0 -0.17672975976E+03  0.63408873643E+03  0.34643536370E+02  0.65916773909E+03  0.00000000000E+00 0.  1.
         22    1    1    2    0    0  0.18823096153E+03 -0.67039500145E+03  0.13308792101E+04  0.15020318987E+04  0.00000000000E+00 0.  1.
<mgrwt>
<rscale>  0 0.17463780E+04</rscale>
<asrwt>0</asrwt>
<pdfrwt beam="1">  1        2 0.27304222E+00 0.17463780E+04</pdfrwt>
<pdfrwt beam="2">  1       -2 0.66093688E-01 0.17463780E+04</pdfrwt>
<totfact> 0.17791853E+01</totfact>
</mgrwt>
</event>
<event>
 6    1  0.1885829E-005  0.1885645E+04  0.7818608E-02  0.8662035E-01
          2   -1    0    0  501    0  0.00000000000E+00  0.00000000000E+00  0.51054828986E+03  0.51054828986E+03  0.00000000000E+00 0. -1.
         -2   -1    0    0    0  501 -0.00000000000E+00 -0.00000000000E+00 -0.17410973487E+04  0.17410973487E+04  0.00000000000E+00 0.  1.
         23    2    1    2    0    0  0.57834940325E+03 -0.59760939149E+03 -0.11414898588E+04  0.14152506612E+04  0.91160952620E+02 0.  0.
         13    1    3    3    0    0  0.36870996988E+03 -0.42203217216E+03 -0.81981232397E+03  0.99305107762E+03  0.00000000000E+00 0. -1.
        -13    1    3    3    0    0  0.20963943336E+03 -0.17557721933E+03 -0.32167753479E+03  0.42219958356E+03  0.00000000000E+00 0.  1.
         22    1    1    2    0    0 -0.57834940325E+03  0.59760939149E+03 -0.89059200039E+02  0.83639497735E+03  0.00000000000E+00 0. -1.
<mgrwt>
<rscale>  0 0.18856450E+04</rscale>
<asrwt>0</asrwt>
<pdfrwt beam="1">  1        2 0.78545889E-01 0.18856450E+04</pdfrwt>
<pdfrwt beam="2">  1       -2 0.26786113E+00 0.18856450E+04</pdfrwt>
<totfact> 0.28154375E+00</totfact>
</mgrwt>
</event>
<event>
 6    1  0.1885829E-005  0.6974760E+03  0.7818608E-02  0.9721558E-01
         -2   -1    0    0    0  501 -0.00000000000E+00  0.00000000000E+00  0.52396934624E+03  0.52396934624E+03  0.00000000000E+00 0. -1.
          2   -1    0    0  501    0  0.00000000000E+00 -0.00000000000E+00 -0.23210935085E+03  0.23210935085E+03  0.00000000000E+00 0.  1.
         23    2    1    2    0    0 -0.82555698997E+02 -0.30296474024E+03  0.52664467499E+00  0.32773514514E+03  0.93845461980E+02 0.  0.
         13    1    3    3    0    0 -0.13500758777E+02 -0.20963749006E+03  0.15665505645E+02  0.21065506354E+03  0.00000000000E+00 0.  1.
        -13    1    3    3    0    0 -0.69054940220E+02 -0.93327250181E+02 -0.15138860970E+02  0.11708008160E+03  0.00000000000E+00 0. -1.
         22    1    1    2    0    0  0.82555698997E+02  0.30296474024E+03  0.29133335072E+03  0.42834355196E+03  0.00000000000E+00 0. -1.
<mgrwt>
<rscale>  0 0.69747598E+03</rscale>
<asrwt>0</asrwt>
<pdfrwt beam="1">  1        2 0.35709131E-01 0.69747598E+03</pdfrwt>
<pdfrwt beam="2">  1       -2 0.80610669E-01 0.69747598E+03</pdfrwt>
<totfact> 0.20071558E+02</totfact>
</mgrwt>
</event>
<event>
 6    1  0.1885829E-005  0.2808604E+04  0.7818608E-02  0.8300602E-01
         -2   -1    0    0    0  501 -0.00000000000E+00  0.00000000000E+00  0.63797427989E+03  0.63797427989E+03  0.00000000000E+00 0.  1.
          2   -1    0    0  501    0  0.00000000000E+00 -0.00000000000E+00 -0.30911333967E+04  0.30911333967E+04  0.00000000000E+00 0. -1.
         23    2    1    2    0    0  0.77063421614E+03  0.98088573332E+03 -0.20799867430E+04  0.24270817408E+04  0.91471353397E+02 0.  0.
         11    1    3    3    0    0  0.10895325091E+03  0.99501926223E+02 -0.21431331293E+03  0.26019538870E+03  0.00000000000E+00 0. -1.
        -11    1    3    3    0    0  0.66168096524E+03  0.88138380710E+03 -0.18656734301E+04  0.21668863521E+04  0.00000000000E+00 0.  1.
         22    1    1    2    0    0 -0.77063421614E+03 -0.98088573332E+03 -0.37317237380E+03  0.13020259358E+04  0.00000000000E+00 0.  1.
<mgrwt>
<rscale>  0 0.28086036E+04</rscale>
<asrwt>0</asrwt>
<pdfrwt beam="1">  1        2 0.47555897E+00 0.28086036E+04</pdfrwt>
<pdfrwt beam="2">  1       -2 0.98149892E-01 0.28086036E+04</pdfrwt>
<totfact> 0.11439951E+00</totfact>
</mgrwt>
</event>
<event>
 6    1  0.1885829E-005  0.1241431E+04  0.7818608E-02  0.9077346E-01
          1   -1    0    0  501    0  0.00000000000E+00  0.00000000000E+00  0.14288018338E+04  0.14288018338E+04  0.00000000000E+00 0. -1.
         -1   -1    0    0    0  501 -0.00000000000E+00 -0.00000000000E+00 -0.26965784008E+03  0.26965784008E+03  0.00000000000E+00 0.  1.
         23    2    1    2    0    0  0.21669779642E+03 -0.37590629101E+03  0.11835694668E+04  0.12638793265E+04  0.91053800936E+02 0.  0.
         13    1    3    3    0    0  0.13860628028E+03 -0.15000123426E+03  0.53285395339E+03  0.57065349106E+03  0.00000000000E+00 0.  1.
        -13    1    3    3    0    0  0.78091516144E+02 -0.22590505675E+03  0.65071551337E+03  0.69322583542E+03  0.00000000000E+00 0. -1.
         22    1    1    2    0    0 -0.21669779642E+03  0.37590629101E+03 -0.24425473063E+02  0.43458034738E+03  0.00000000000E+00 0.  1.
<mgrwt>
<rscale>  0 0.12414308E+04</rscale>
<asrwt>0</asrwt>
<pdfrwt beam="1">  1        1 0.21981566E+00 0.12414308E+04</pdfrwt>
<pdfrwt beam="2">  1       -1 0.41485822E-01 0.12414308E+04</pdfrwt>
<totfact> 0.41206262E+01</totfact>
</mgrwt>
</event>
<event>
 6    1  0.1885829E-005  0.3914860E+04  0.7818608E-02  0.8021946E-01
          2   -1    0    0  501    0  0.00000000000E+00  0.00000000000E+00  0.18879557997E+04  0.18879557997E+04  0.00000000000E+00 0. -1.
         -2   -1    0    0    0  501 -0.00000000000E+00 -0.00000000000E+00 -0.20294608710E+04  0.20294608710E+04  0.00000000000E+00 0.  1.
         23    2    1    2    0    0  0.11364645677E+04  0.15829969653E+04 -0.24491971016E+03  0.19659747183E+04  0.87406080084E+02 0.  0.
         11    1    3    3    0    0  0.70454633992E+03  0.93411988695E+03 -0.17999157810E+03  0.11837915680E+04  0.00000000000E+00 0. -1.
        -11    1    3    3    0    0  0.43191822782E+03  0.64887707834E+03 -0.64928132059E+02  0.78218315033E+03  0.00000000000E+00 0.  1.
         22    1    1    2    0    0 -0.11364645677E+04 -0.15829969653E+04  0.10341463883E+03  0.19514419523E+04  0.00000000000E+00 0.  1.
<mgrwt>
<rscale>  0 0.39148601E+04</rscale>
<asrwt>0</asrwt>
<pdfrwt beam="1">  1        2 0.29045474E+00 0.39148601E+04</pdfrwt>
<pdfrwt beam="2">  1       -2 0.31222475E+00 0.39148601E+04</pdfrwt>
<totfact> 0.16377401E-01</totfact>
</mgrwt>
</event>
<event>
 6    1  0.1885829E-005  0.1220907E+04  0.7818608E-02  0.9094751E-01
         -2   -1    0    0    0  501 -0.00000000000E+00  0.00000000000E+00  0.19037671914E+03  0.19037671914E+03  0.00000000000E+00 0.  1.
          2   -1    0    0  501    0  0.00000000000E+00 -0.00000000000E+00 -0.19574535184E+04  0.19574535184E+04  0.00000000000E+00 0. -1.
         23    2    1    2    0    0  0.28492423545E+03 -0.62365964370E+02 -0.18249800313E+04  0.18504683070E+04  0.92787429116E+02 0.  0.
         11    1    3    3    0    0  0.16774569020E+03 -0.15656230940E+02 -0.78563624482E+03  0.80349738227E+03  0.00000000000E+00 0. -1.
        -11    1    3    3    0    0  0.11717854525E+03 -0.46709733431E+02 -0.10393437865E+04  0.10469709247E+04  0.00000000000E+00 0.  1.
         22    1    1    2    0    0 -0.28492423545E+03  0.62365964370E+02  0.57903232061E+02  0.29736193055E+03  0.00000000000E+00 0.  1.
<mgrwt>
<rscale>  0 0.12209072E+04</rscale>
<asrwt>0</asrwt>
<pdfrwt beam="1">  1        2 0.30114667E+00 0.12209072E+04</pdfrwt>
<pdfrwt beam="2">  1       -2 0.29288728E-01 0.12209072E+04</pdfrwt>
<totfact> 0.74628094E+01</totfact>
</mgrwt>
</event>
<event>
 6    1  0.1885829E-005  0.2941322E+04  0.7818608E-02  0.8260688E-01
          2   -1    0    0  501    0  0.00000000000E+00  0.00000000000E+00  0.19350000411E+04  0.19350000411E+04  0.00000000000E+00 0. -1.
         -2   -1    0    0    0  501 -0.00000000000E+00 -0.00000000000E+00 -0.11177483254E+04  0.11177483254E+04  0.00000000000E+00 0.  1.
         23    2    1    2    0    0 -0.95049675842E+03 -0.96236116169E+03  0.10041328090E+04  0.16872786172E+04  0.95096480280E+02 0.  0.
         11    1    3    3    0    0 -0.65964595666E+03 -0.71400252362E+03  0.68536204515E+03  0.11893920820E+04  0.00000000000E+00 0.  1.
        -11    1    3    3    0    0 -0.29085080176E+03 -0.24835863807E+03  0.31877076382E+03  0.49788653512E+03  0.00000000000E+00 0. -1.
         22    1    1    2    0    0  0.95049675842E+03  0.96236116169E+03 -0.18688109322E+03  0.13654697493E+04  0.00000000000E+00 0.  1.
<mgrwt>
<rscale>  0 0.29413215E+04</rscale>
<asrwt>0</asrwt>
<pdfrwt beam="1">  1        2 0.29769231E+00 0.29413215E+04</pdfrwt>
<pdfrwt beam="2">  1       -2 0.17196128E+00 0.29413215E+04</pdfrwt>
<totfact> 0.12892936E+00</totfact>
</mgrwt>
</event>
<event>
 6    1  0.1885829E-005  0.2031968E+04  0.7818608E-02  0.8591819E-01
         -1   -1    0    0    0  501 -0.00000000000E+00  0.00000000000E+00  0.62846840765E+03  0.62846840765E+03  0.00000000000E+00 0.  1.
          1   -1    0    0  501    0  0.00000000000E+00 -0.00000000000E+00 -0.16424425034E+04  0.16424425034E+04  0.00000000000E+00 0. -1.
         23    2    1    2    0    0  0.52745668831E+02 -0.84580710473E+03 -0.11300777528E+04  0.14155444263E+04  0.92295890787E+02 0.  0.
         13    1    3    3    0    0  0.25511660150E+02 -0.25783187640E+03 -0.27892721429E+03  0.38069477559E+03  0.00000000000E+00 0.  1.
        -13    1    3    3    0    0  0.27234008681E+02 -0.58797522834E+03 -0.85115053854E+03  0.10348496507E+04  0.00000000000E+00 0. -1.
         22    1    1    2    0    0 -0.52745668831E+02  0.84580710473E+03  0.11610365709E+03  0.85536648472E+03  0.00000000000E+00 0.  1.
<mgrwt>
<rscale>  0 0.20319677E+04</rscale>
<asrwt>0</asrwt>
<pdfrwt beam="1">  1        1 0.25268346E+00 0.20319677E+04</pdfrwt>
<pdfrwt beam="2">  1       -1 0.96687449E-01 0.20319677E+04</pdfrwt>
<totfact> 0.49672210E+00</totfact>
</mgrwt>
</event>
<event>
 6    1  0.1885829E-005  0.3311175E+04  0.7818608E-02  0.8160058E-01
          2   -1    0    0  501    0  0.00000000000E+00  0.00000000000E+00  0.13404946776E+04  0.13404946776E+04  0.00000000000E+00 0. -1.
         -2   -1    0    0    0  501 -0.00000000000E+00 -0.00000000000E+00 -0.20447453852E+04  0.20447453852E+04  0.00000000000E+00 0.  1.
         23    2    1    2    0    0  0.11063585155E+04  0.58936940245E+03 -0.14560768045E+04  0.19235191806E+04  0.91547365584E+02 0.  0.
         13    1    3    3    0    0  0.55167751892E+03  0.26261085502E+03 -0.65323109693E+03  0.89444027864E+03  0.00000000000E+00 0. -1.
        -13    1    3    3    0    0  0.55468099658E+03  0.32675854743E+03 -0.80284570754E+03  0.10290789019E+04  0.00000000000E+00 0.  1.
         22    1    1    2    0    0 -0.11063585155E+04 -0.58936940245E+03  0.75182609690E+03  0.14617208822E+04  0.00000000000E+00 0. -1.
<mgrwt>
<rscale>  0 0.33111752E+04</rscale>
<asrwt>0</asrwt>
<pdfrwt beam="1">  1        2 0.20622995E+00 0.33111752E+04</pdfrwt>
<pdfrwt beam="2">  1       -2 0.31457621E+00 0.33111752E+04</pdfrwt>
<totfact> 0.33786770E-01</totfact>
</mgrwt>
</event>
<event>
 6    1  0.1885829E-005  0.2182037E+04  0.7818608E-02  0.8525942E-01
         -2   -1    0    0    0  501 -0.00000000000E+00  0.00000000000E+00  0.58687463846E+03  0.58687463846E+03  0.00000000000E+00 0.  1.
          2   -1    0    0  501    0  0.00000000000E+00 -0.00000000000E+00 -0.20282381737E+04  0.20282381737E+04  0.00000000000E+00 0. -1.
         23    2    1    2    0    0  0.17244840636E+03 -0.10429510499E+04 -0.40784463691E+03  0.11367195429E+04  0.91152212748E+02 0.  0.
         13    1    3    3    0    0 -0.98075668651E+01 -0.28456669943E+02 -0.79798179876E+01  0.31139170303E+02  0.00000000000E+00 0. -1.
        -13    1    3    3    0    0  0.18225597322E+03 -0.10144943800E+04 -0.39986481892E+03  0.11055803726E+04  0.00000000000E+00 0.  1.
         22    1    1    2    0    0 -0.17244840636E+03  0.10429510499E+04 -0.10335188983E+04  0.14783932693E+04  0.00000000000E+00 0. -1.
<mgrwt>
<rscale>  0 0.21820372E+04</rscale>
<asrwt>0</asrwt>
<pdfrwt beam="1">  1        2 0.31203664E+00 0.21820372E+04</pdfrwt>
<pdfrwt beam="2">  1       -2 0.90288406E-01 0.21820372E+04</pdfrwt>
<totfact> 0.61869860E+00</totfact>
</mgrwt>
</event>
<event>
 6    1  0.1885829E-005  0.3853798E+04  0.7818608E-02  0.8034707E-01
          2   -1    0    0  501    0  0.00000000000E+00  0.00000000000E+00  0.17349359555E+04  0.17349359555E+04  0.00000000000E+00 0. -1.
         -2   -1    0    0    0  501 -0.00000000000E+00 -0.00000000000E+00 -0.21401023071E+04  0.21401023071E+04  0.00000000000E+00 0.  1.
         23    2    1    2    0    0  0.24947886796E+03 -0.14459652237E+04  0.10513934106E+04  0.18075224889E+04  0.93028545607E+02 0.  0.
         11    1    3    3    0    0  0.62732654083E+02 -0.20722534566E+03  0.13151215008E+03  0.25332424951E+03  0.00000000000E+00 0.  1.
        -11    1    3    3    0    0  0.18674621387E+03 -0.12387398781E+04  0.91988126050E+03  0.15541982394E+04  0.00000000000E+00 0. -1.
         22    1    1    2    0    0 -0.24947886796E+03  0.14459652237E+04 -0.14565597622E+04  0.20675157737E+04  0.00000000000E+00 0.  1.
<mgrwt>
<rscale>  0 0.38537984E+04</rscale>
<asrwt>0</asrwt>
<pdfrwt beam="1">  1        2 0.26691323E+00 0.38537984E+04</pdfrwt>
<pdfrwt beam="2">  1       -2 0.32924651E+00 0.38537984E+04</pdfrwt>
<totfact> 0.15705949E-01</totfact>
</mgrwt>
</event>
<event>
 6    1  0.1885829E-005  0.1766880E+04  0.7818608E-02  0.8724114E-01
          2   -1    0    0  501    0  0.00000000000E+00  0.00000000000E+00  0.63546830942E+03  0.63546830942E+03  0.00000000000E+00 0. -1.
         -2   -1    0    0    0  501 -0.00000000000E+00 -0.00000000000E+00 -0.12281743115E+04  0.12281743115E+04  0.00000000000E+00 0.  1.
         23    2    1    2    0    0 -0.66468423605E+03  0.43074033542E+03 -0.70344864474E+03  0.10638887193E+04  0.98370936017E+02 0.  0.
         13    1    3    3    0    0 -0.18593286150E+03  0.17479413562E+03 -0.21850531340E+03  0.33595921005E+03  0.00000000000E+00 0.  1.
        -13    1    3    3    0    0 -0.47875137455E+03  0.25594619981E+03 -0.48494333134E+03  0.72792950925E+03  0.00000000000E+00 0. -1.
         22    1    1    2    0    0  0.66468423605E+03 -0.43074033542E+03  0.11074264268E+03  0.79975390160E+03  0.00000000000E+00 0. -1.
<mgrwt>
<rscale>  0 0.17668796E+04</rscale>
<asrwt>0</asrwt>
<pdfrwt beam="1">  1        2 0.97764355E-01 0.17668796E+04</pdfrwt>
<pdfrwt beam="2">  1       -2 0.18894989E+00 0.17668796E+04</pdfrwt>
<totfact> 0.68890309E+00</totfact>
</mgrwt>
</event>
<event>
 6    1  0.1885829E-005  0.3047460E+04  0.7818608E-02  0.8230307E-01
          2   -1    0    0  501    0  0.00000000000E+00  0.00000000000E+00  0.15037355620E+04  0.15037355620E+04  0.00000000000E+00 0. -1.
         -2   -1    0    0    0  501 -0.00000000000E+00 -0.00000000000E+00 -0.15439904028E+04  0.15439904028E+04  0.00000000000E+00 0.  1.
         23    2    1    2    0    0 -0.10567840701E+04 -0.26059379054E+03  0.10443381829E+04  0.15111571504E+04  0.90840510649E+02 0.  0.
         13    1    3    3    0    0 -0.66312031173E+03 -0.13112871641E+03  0.68976192737E+03  0.96576125650E+03  0.00000000000E+00 0. -1.
        -13    1    3    3    0    0 -0.39366375835E+03 -0.12946507413E+03  0.35457625552E+03  0.54539589386E+03  0.00000000000E+00 0.  1.
         22    1    1    2    0    0  0.10567840701E+04  0.26059379054E+03 -0.10845930237E+04  0.15365688144E+04  0.00000000000E+00 0.  1.
<mgrwt>
<rscale>  0 0.30474601E+04</rscale>
<asrwt>0</asrwt>
<pdfrwt beam="1">  1        2 0.23134393E+00 0.30474601E+04</pdfrwt>
<pdfrwt beam="2">  1       -2 0.23753698E+00 0.30474601E+04</pdfrwt>
<totfact> 0.82650404E-01</totfact>
</mgrwt>
</event>
<event>
 6    1  0.1885829E-005  0.2966990E+04  0.7818608E-02  0.8253220E-01
          2   -1    0    0  501    0  0.00000000000E+00  0.00000000000E+00  0.13901323269E+04  0.13901323269E+04  0.00000000000E+00 0. -1.
         -2   -1    0    0    0  501 -0.00000000000E+00 -0.00000000000E+00 -0.15831282954E+04  0.15831282954E+04  0.00000000000E+00 0.  1.
         23    2    1    2    0    0 -0.52397226201E+03  0.12873710012E+04 -0.61147343252E+03  0.15217116517E+04  0.99174423555E+02 0.  0.
         13    1    3    3    0    0 -0.40544670187E+03  0.10302085886E+04 -0.44475718430E+03  0.11931159697E+04  0.00000000000E+00 0.  1.
        -13    1    3    3    0    0 -0.11852556014E+03  0.25716241260E+03 -0.16671624822E+03  0.32859568208E+03  0.00000000000E+00 0. -1.
         22    1    1    2    0    0  0.52397226201E+03 -0.12873710012E+04  0.41847746396E+03  0.14515489706E+04  0.00000000000E+00 0. -1.
<mgrwt>
<rscale>  0 0.29669903E+04</rscale>
<asrwt>0</asrwt>
<pdfrwt beam="1">  1        2 0.21386651E+00 0.29669903E+04</pdfrwt>
<pdfrwt beam="2">  1       -2 0.24355820E+00 0.29669903E+04</pdfrwt>
<totfact> 0.88609445E-01</totfact>
</mgrwt>
</event>
<event>
 6    1  0.1885829E-005  0.2864136E+04  0.7818608E-02  0.8283629E-01
          2   -1    0    0  501    0  0.00000000000E+00  0.00000000000E+00  0.12419688111E+04  0.12419688111E+04  0.00000000000E+00 0.  1.
         -2   -1    0    0    0  501 -0.00000000000E+00 -0.00000000000E+00 -0.16512638643E+04  0.16512638643E+04  0.00000000000E+00 0. -1.
         23    2    1    2    0    0  0.12158334658E+03  0.85093137356E+03 -0.13600740750E+04  0.16114965634E+04  0.90845867490E+02 0.  0.
         11    1    3    3    0    0  0.16609953364E+02  0.35219677229E+03 -0.50142694847E+03  0.61298241541E+03  0.00000000000E+00 0. -1.
        -11    1    3    3    0    0  0.10497339322E+03  0.49873460127E+03 -0.85864712654E+03  0.99851414797E+03  0.00000000000E+00 0.  1.
         22    1    1    2    0    0 -0.12158334658E+03 -0.85093137356E+03  0.95077902173E+03  0.12817361120E+04  0.00000000000E+00 0.  1.
<mgrwt>
<rscale>  0 0.28641356E+04</rscale>
<asrwt>0</asrwt>
<pdfrwt beam="1">  1        2 0.19107213E+00 0.28641356E+04</pdfrwt>
<pdfrwt beam="2">  1       -2 0.25404059E+00 0.28641356E+04</pdfrwt>
<totfact> 0.93938835E-01</totfact>
</mgrwt>
</event>
<event>
 6    1  0.1885829E-005  0.1205140E+04  0.7818608E-02  0.9108369E-01
         -2   -1    0    0    0  501 -0.00000000000E+00  0.00000000000E+00  0.39719206853E+03  0.39719206853E+03  0.00000000000E+00 0.  1.
          2   -1    0    0  501    0  0.00000000000E+00 -0.00000000000E+00 -0.91414417745E+03  0.91414417745E+03  0.00000000000E+00 0. -1.
         23    2    1    2    0    0 -0.32419461570E+03  0.38626140972E+03 -0.61152373867E+03  0.79826332850E+03  0.94673297155E+02 0.  0.
         13    1    3    3    0    0 -0.10650936100E+03  0.12217881832E+03 -0.13144604756E+03  0.20868629818E+03  0.00000000000E+00 0.  1.
        -13    1    3    3    0    0 -0.21768525470E+03  0.26408259140E+03 -0.48007769110E+03  0.58957703033E+03  0.00000000000E+00 0. -1.
         22    1    1    2    0    0  0.32419461570E+03 -0.38626140972E+03  0.94571629747E+02  0.51307291747E+03  0.00000000000E+00 0.  1.
<mgrwt>
<rscale>  0 0.12051404E+04</rscale>
<asrwt>0</asrwt>
<pdfrwt beam="1">  1        2 0.14063757E+00 0.12051404E+04</pdfrwt>
<pdfrwt beam="2">  1       -2 0.61106472E-01 0.12051404E+04</pdfrwt>
<totfact> 0.70510291E+01</totfact>
</mgrwt>
</event>
<event>
 6    1  0.1885829E-005  0.2320780E+04  0.7818608E-02  0.8469773E-01
          2   -1    0    0  501    0  0.00000000000E+00  0.00000000000E+00  0.34426937418E+04  0.34426937418E+04  0.00000000000E+00 0. -1.
         -2   -1    0    0    0  501 -0.00000000000E+00 -0.00000000000E+00 -0.39111948193E+03  0.39111948193E+03  0.00000000000E+00 0.  1.
         23    2    1    2    0    0  0.80166968155E+03 -0.61809413639E+03  0.24590242467E+04  0.26608553567E+04  0.92931929546E+02 0.  0.
         13    1    3    3    0    0  0.22880274024E+03 -0.12668633374E+03  0.60742874264E+03  0.66133939734E+03  0.00000000000E+00 0.  1.
        -13    1    3    3    0    0  0.57286694131E+03 -0.49140780265E+03  0.18515955041E+04  0.19995159593E+04  0.00000000000E+00 0. -1.
         22    1    1    2    0    0 -0.80166968155E+03  0.61809413639E+03  0.59255001316E+03  0.11729578670E+04  0.00000000000E+00 0.  1.
<mgrwt>
<rscale>  0 0.23207797E+04</rscale>
<asrwt>0</asrwt>
<pdfrwt beam="1">  1        2 0.52964517E+00 0.23207797E+04</pdfrwt>
<pdfrwt beam="2">  1       -2 0.60172230E-01 0.23207797E+04</pdfrwt>
<totfact> 0.20809759E+00</totfact>
</mgrwt>
</event>
<event>
 6    1  0.1885829E-005  0.5852630E+03  0.7818608E-02  0.9936461E-01
          2   -1    0    0  501    0  0.00000000000E+00  0.00000000000E+00  0.25573303846E+03  0.25573303846E+03  0.00000000000E+00 0. -1.
         -2   -1    0    0    0  501 -0.00000000000E+00 -0.00000000000E+00 -0.33485387407E+03  0.33485387407E+03  0.00000000000E+00 0.  1.
         23    2    1    2    0    0 -0.24107928720E+03  0.13844984510E+03 -0.10379396452E+03  0.31148774446E+03  0.94677587373E+02 0.  0.
         13    1    3    3    0    0 -0.35750471184E+02  0.62953311185E+02 -0.85995068871E+01  0.72905192529E+02  0.00000000000E+00 0. -1.
        -13    1    3    3    0    0 -0.20532881602E+03  0.75496533910E+02 -0.95194457637E+02  0.23858255193E+03  0.00000000000E+00 0.  1.
         22    1    1    2    0    0  0.24107928720E+03 -0.13844984510E+03  0.24673128916E+02  0.27909916807E+03  0.00000000000E+00 0. -1.
<mgrwt>
<rscale>  0 0.58526301E+03</rscale>
<asrwt>0</asrwt>
<pdfrwt beam="1">  1        2 0.39343544E-01 0.58526301E+03</pdfrwt>
<pdfrwt beam="2">  1       -2 0.51515981E-01 0.58526301E+03</pdfrwt>
<totfact> 0.47110540E+02</totfact>
</mgrwt>
</event>
<event>
 6    1  0.1885829E-005  0.2490620E+04  0.7818608E-02  0.8406335E-01
          2   -1    0    0  501    0  0.00000000000E+00  0.00000000000E+00  0.87520799646E+03  0.87520799646E+03  0.00000000000E+00 0. -1.
         -2   -1    0    0    0  501 -0.00000000000E+00 -0.00000000000E+00 -0.17719175176E+04  0.17719175176E+04  0.00000000000E+00 0.  1.
         23    2    1    2    0    0  0.82062770921E+03  0.18583346492E+03 -0.14223482800E+04  0.16550267192E+04  0.89860435999E+02 0.  0.
         13    1    3    3    0    0  0.42116212574E+03  0.63794891672E+02 -0.65413094988E+03  0.78059888800E+03  0.00000000000E+00 0. -1.
        -13    1    3    3    0    0  0.39946558347E+03  0.12203857325E+03 -0.76821733010E+03  0.87442783121E+03  0.00000000000E+00 0.  1.
         22    1    1    2    0    0 -0.82062770921E+03 -0.18583346492E+03  0.52563875888E+03  0.99209879480E+03  0.00000000000E+00 0. -1.
<mgrwt>
<rscale>  0 0.24906195E+04</rscale>
<asrwt>0</asrwt>
<pdfrwt beam="1">  1        2 0.13464738E+00 0.24906195E+04</pdfrwt>
<pdfrwt beam="2">  1       -2 0.27260269E+00 0.24906195E+04</pdfrwt>
<totfact> 0.12714404E+00</totfact>
</mgrwt>
</event>
<event>
 6    1  0.1885829E-005  0.2638142E+04  0.7818608E-02  0.8355360E-01
         -2   -1    0    0    0  501 -0.00000000000E+00  0.00000000000E+00  0.93041453742E+03  0.93041453742E+03  0.00000000000E+00 0.  1.
          2   -1    0    0  501    0  0.00000000000E+00 -0.00000000000E+00 -0.18700779779E+04  0.18700779779E+04  0.00000000000E+00 0. -1.
         23    2    1    2    0    0  0.13825812258E+03  0.55385801952E+03 -0.17310955118E+04  0.18246653085E+04  0.82691007936E+02 0.  0.
         13    1    3    3    0    0  0.36719322227E+02  0.31523257933E+03 -0.93429659338E+03  0.98672691870E+03  0.00000000000E+00 0.  1.
        -13    1    3    3    0    0  0.10153880036E+03  0.23862544020E+03 -0.79679891842E+03  0.83793838978E+03  0.00000000000E+00 0. -1.
         22    1    1    2    0    0 -0.13825812258E+03 -0.55385801952E+03  0.79143207127E+03  0.97582720688E+03  0.00000000000E+00 0.  1.
<mgrwt>
<rscale>  0 0.26381416E+04</rscale>
<asrwt>0</asrwt>
<pdfrwt beam="1">  1        2 0.28770430E+00 0.26381416E+04</pdfrwt>
<pdfrwt beam="2">  1       -2 0.14314070E+00 0.26381416E+04</pdfrwt>
<totfact> 0.23583297E+00</totfact>
</mgrwt>
</event>
<event>
 6    1  0.1885829E-005  0.2522437E+04  0.7818608E-02  0.8395036E-01
         -2   -1    0    0    0  501 -0.00000000000E+00  0.00000000000E+00  0.78412050880E+03  0.78412050880E+03  0.00000000000E+00 0.  1.
          2   -1    0    0  501    0  0.00000000000E+00 -0.00000000000E+00 -0.20286063137E+04  0.20286063137E+04  0.00000000000E+00 0. -1.
         23    2    1    2    0    0  0.11719019696E+04 -0.43262344509E+03 -0.44321315619E+03  0.13286260411E+04  0.91060329990E+02 0.  0.
         11    1    3    3    0    0  0.10959122825E+04 -0.38678183721E+03 -0.42863978218E+03  0.12386912381E+04  0.00000000000E+00 0. -1.
        -11    1    3    3    0    0  0.75989687141E+02 -0.45841607882E+02 -0.14573374009E+02  0.89934803024E+02  0.00000000000E+00 0.  1.
         22    1    1    2    0    0 -0.11719019696E+04  0.43262344509E+03 -0.80127264874E+03  0.14841007814E+04  0.00000000000E+00 0.  1.
<mgrwt>
<rscale>  0 0.25224368E+04</rscale>
<asrwt>0</asrwt>
<pdfrwt beam="1">  1        2 0.31209328E+00 0.25224368E+04</pdfrwt>
<pdfrwt beam="2">  1       -2 0.12063392E+00 0.25224368E+04</pdfrwt>
<totfact> 0.30048604E+00</totfact>
</mgrwt>
</event>
<event>
 6    1  0.1885829E-005  0.1500014E+04  0.7818608E-02  0.8884443E-01
         -4   -1    0    0    0  501 -0.00000000000E+00  0.00000000000E+00  0.68455715559E+03  0.68455715559E+03  0.00000000000E+00 0.  1.
          4   -1    0    0  501    0  0.00000000000E+00 -0.00000000000E+00 -0.82171474950E+03  0.82171474950E+03  0.00000000000E+00 0. -1.
         23    2    1    2    0    0 -0.50417790174E+03  0.31305879609E+03 -0.52456829810E+03  0.79754895490E+03  0.93334182803E+02 0.  0.
         11    1    3    3    0    0 -0.10516963424E+03  0.45015589302E+02 -0.60520850217E+02  0.12942112872E+03  0.00000000000E+00 0.  1.
        -11    1    3    3    0    0 -0.39900826750E+03  0.26804320679E+03 -0.46404744788E+03  0.66812782618E+03  0.00000000000E+00 0. -1.
         22    1    1    2    0    0  0.50417790174E+03 -0.31305879609E+03  0.38741070419E+03  0.70872295020E+03  0.00000000000E+00 0.  1.
<mgrwt>
<rscale>  0 0.15000143E+04</rscale>
<asrwt>0</asrwt>
<pdfrwt beam="1">  1        4 0.12641765E+00 0.15000143E+04</pdfrwt>
<pdfrwt beam="2">  1       -4 0.10531649E+00 0.15000143E+04</pdfrwt>
<totfact> 0.65391032E-01</totfact>
</mgrwt>
</event>
<event>
 6    1  0.1885829E-005  0.1861019E+04  0.7818608E-02  0.8674507E-01
         -2   -1    0    0    0  501 -0.00000000000E+00  0.00000000000E+00  0.86876008058E+03  0.86876008058E+03  0.00000000000E+00 0.  1.
          2   -1    0    0  501    0  0.00000000000E+00 -0.00000000000E+00 -0.99664762721E+03  0.99664762721E+03  0.00000000000E+00 0. -1.
         23    2    1    2    0    0 -0.35341215729E+03 -0.85330229000E+03  0.24377278592E+02  0.92934706443E+03  0.10033326182E+03 0.  0.
         11    1    3    3    0    0 -0.24858271133E+03 -0.49229392947E+03  0.41355179728E+02  0.55304333307E+03  0.00000000000E+00 0. -1.
        -11    1    3    3    0    0 -0.10482944596E+03 -0.36100836053E+03 -0.16977901136E+02  0.37630373136E+03  0.00000000000E+00 0.  1.
         22    1    1    2    0    0  0.35341215729E+03  0.85330229000E+03 -0.15226482522E+03  0.93606064335E+03  0.00000000000E+00 0. -1.
<mgrwt>
<rscale>  0 0.18610187E+04</rscale>
<asrwt>0</asrwt>
<pdfrwt beam="1">  1        2 0.15333040E+00 0.18610187E+04</pdfrwt>
<pdfrwt beam="2">  1       -2 0.13365540E+00 0.18610187E+04</pdfrwt>
<totfact> 0.96251803E+00</totfact>
</mgrwt>
</event>
<event>
 6    1  0.1885829E-005  0.2337001E+04  0.7818608E-02  0.8463474E-01
         -1   -1    0    0    0  501 -0.00000000000E+00  0.00000000000E+00  0.12398586188E+04  0.12398586188E+04  0.00000000000E+00 0.  1.
          1   -1    0    0  501    0  0.00000000000E+00 -0.00000000000E+00 -0.11012489756E+04  0.11012489756E+04  0.00000000000E+00 0. -1.
         23    2    1    2    0    0 -0.82409861905E+03  0.37199289931E+03  0.80880351184E+03  0.12156401036E+04  0.78105632017E+02 0.  0.
         13    1    3    3    0    0 -0.65595759345E+03  0.28258271391E+03  0.59768223991E+03  0.93132025346E+03  0.00000000000E+00 0.  1.
        -13    1    3    3    0    0 -0.16814102560E+03  0.89410185408E+02  0.21112127193E+03  0.28431985018E+03  0.00000000000E+00 0. -1.
         22    1    1    2    0    0  0.82409861905E+03 -0.37199289931E+03 -0.67019386869E+03  0.11254674907E+04  0.00000000000E+00 0. -1.
<mgrwt>
<rscale>  0 0.23370007E+04</rscale>
<asrwt>0</asrwt>
<pdfrwt beam="1">  1        1 0.16942292E+00 0.23370007E+04</pdfrwt>
<pdfrwt beam="2">  1       -1 0.19074748E+00 0.23370007E+04</pdfrwt>
<totfact> 0.19900149E+00</totfact>
</mgrwt>
</event>
<event>
 6    1  0.1885829E-005  0.7933787E+03  0.7818608E-02  0.9569651E-01
          1   -1    0    0  501    0  0.00000000000E+00  0.00000000000E+00  0.26430133322E+04  0.26430133322E+04  0.00000000000E+00 0. -1.
         -1   -1    0    0    0  501 -0.00000000000E+00 -0.00000000000E+00 -0.59539025240E+02  0.59539025240E+02  0.00000000000E+00 0.  1.
         23    2    1    2    0    0 -0.52947949768E+02  0.55627862878E+02  0.26163668782E+04  0.26190067666E+04  0.89010436035E+02 0.  0.
         13    1    3    3    0    0 -0.60919059690E+02  0.42113741167E+02  0.10698232315E+04  0.10723835348E+04  0.00000000000E+00 0.  1.
        -13    1    3    3    0    0  0.79711099218E+01  0.13514121711E+02  0.15465436467E+04  0.15466232318E+04  0.00000000000E+00 0. -1.
         22    1    1    2    0    0  0.52947949768E+02 -0.55627862878E+02 -0.32892571199E+02  0.83545590866E+02  0.00000000000E+00 0.  1.
<mgrwt>
<rscale>  0 0.79337869E+03</rscale>
<asrwt>0</asrwt>
<pdfrwt beam="1">  1        1 0.40661734E+00 0.79337869E+03</pdfrwt>
<pdfrwt beam="2">  1       -1 0.91598521E-02 0.79337869E+03</pdfrwt>
<totfact> 0.81281764E+01</totfact>
</mgrwt>
</event>
<event>
 6    1  0.1885829E-005  0.3828234E+04  0.7818608E-02  0.8040123E-01
         -2   -1    0    0    0  501 -0.00000000000E+00  0.00000000000E+00  0.17708470164E+04  0.17708470164E+04  0.00000000000E+00 0.  1.
          2   -1    0    0  501    0  0.00000000000E+00 -0.00000000000E+00 -0.20689779372E+04  0.20689779372E+04  0.00000000000E+00 0. -1.
         23    2    1    2    0    0  0.10673477467E+04  0.25356197807E+03  0.14227786144E+04  0.17989784337E+04  0.92192896777E+02 0.  0.
         11    1    3    3    0    0  0.55709765559E+03  0.16825193259E+03  0.80202611619E+03  0.99091493164E+03  0.00000000000E+00 0.  1.
        -11    1    3    3    0    0  0.51025009113E+03  0.85310045477E+02  0.62075249824E+03  0.80806350210E+03  0.00000000000E+00 0. -1.
         22    1    1    2    0    0 -0.10673477467E+04 -0.25356197807E+03 -0.17209095353E+04  0.20408465199E+04  0.00000000000E+00 0. -1.
<mgrwt>
<rscale>  0 0.38282337E+04</rscale>
<asrwt>0</asrwt>
<pdfrwt beam="1">  1        2 0.31830430E+00 0.38282337E+04</pdfrwt>
<pdfrwt beam="2">  1       -2 0.27243800E+00 0.38282337E+04</pdfrwt>
<totfact> 0.22911889E-01</totfact>
</mgrwt>
</event>
<event>
 6    1  0.1885829E-005  0.2238489E+04  0.7818608E-02  0.8502577E-01
         -2   -1    0    0    0  501 -0.00000000000E+00  0.00000000000E+00  0.11746771770E+04  0.11746771770E+04  0.00000000000E+00 0.  1.
          2   -1    0    0  501    0  0.00000000000E+00 -0.00000000000E+00 -0.10664273252E+04  0.10664273252E+04  0.00000000000E+00 0. -1.
         23    2    1    2    0    0 -0.92888419489E+03  0.46339995263E+03 -0.36095844591E+03  0.11019285762E+04  0.79938874856E+02 0.  0.
         11    1    3    3    0    0 -0.43062956600E+03  0.22404287199E+03 -0.12753514706E+03  0.50189864051E+03  0.00000000000E+00 0. -1.
        -11    1    3    3    0    0 -0.49825462889E+03  0.23935708064E+03 -0.23342329884E+03  0.60002993567E+03  0.00000000000E+00 0.  1.
         22    1    1    2    0    0  0.92888419489E+03 -0.46339995263E+03  0.46920829771E+03  0.11391759259E+04  0.00000000000E+00 0. -1.
<mgrwt>
<rscale>  0 0.22384886E+04</rscale>
<asrwt>0</asrwt>
<pdfrwt beam="1">  1        2 0.16406574E+00 0.22384886E+04</pdfrwt>
<pdfrwt beam="2">  1       -2 0.18071957E+00 0.22384886E+04</pdfrwt>
<totfact> 0.37333149E+00</totfact>
</mgrwt>
</event>
<event>
 6    1  0.1885829E-005  0.1367231E+04  0.7818608E-02  0.8977886E-01
         -2   -1    0    0    0  501 -0.00000000000E+00  0.00000000000E+00  0.34015593596E+03  0.34015593596E+03  0.00000000000E+00 0.  1.
          2   -1    0    0  501    0  0.00000000000E+00 -0.00000000000E+00 -0.13738700282E+04  0.13738700282E+04  0.00000000000E+00 0. -1.
         23    2    1    2    0    0  0.34676011282E+03  0.25111783005E+03 -0.11824124487E+04  0.12607998157E+04  0.90632422401E+02 0.  0.
         11    1    3    3    0    0  0.17150618888E+03  0.17954692614E+03 -0.66428478505E+03  0.70917257925E+03  0.00000000000E+00 0.  1.
        -11    1    3    3    0    0  0.17525392394E+03  0.71570903907E+02 -0.51812766367E+03  0.55162723646E+03  0.00000000000E+00 0. -1.
         22    1    1    2    0    0 -0.34676011282E+03 -0.25111783005E+03  0.14869835649E+03  0.45322614844E+03  0.00000000000E+00 0.  1.
<mgrwt>
<rscale>  0 0.13672308E+04</rscale>
<asrwt>0</asrwt>
<pdfrwt beam="1">  1        2 0.21136461E+00 0.13672308E+04</pdfrwt>
<pdfrwt beam="2">  1       -2 0.52331684E-01 0.13672308E+04</pdfrwt>
<totfact> 0.50353103E+01</totfact>
</mgrwt>
</event>
<event>
 6    1  0.1885829E-005  0.1780053E+04  0.7818608E-02  0.8716979E-01
         -2   -1    0    0    0  501 -0.00000000000E+00  0.00000000000E+00  0.11165931117E+04  0.11165931117E+04  0.00000000000E+00 0. -1.
          2   -1    0    0  501    0  0.00000000000E+00 -0.00000000000E+00 -0.70943252887E+03  0.70943252887E+03  0.00000000000E+00 0.  1.
         23    2    1    2    0    0  0.56581807927E+03 -0.37161815076E+03  0.79135421179E+03  0.10476588291E+04  0.11444380614E+03 0.  0.
         11    1    3    3    0    0  0.56732417609E+03 -0.37331643529E+03  0.77213708017E+03  0.10283081018E+04  0.00000000000E+00 0.  1.
        -11    1    3    3    0    0 -0.15060968161E+01  0.16982845239E+01  0.19217131616E+02  0.19350727260E+02  0.00000000000E+00 0. -1.
         22    1    1    2    0    0 -0.56581807927E+03  0.37161815076E+03 -0.38419362893E+03  0.77836681155E+03  0.00000000000E+00 0.  1.
<mgrwt>
<rscale>  0 0.17800533E+04</rscale>
<asrwt>0</asrwt>
<pdfrwt beam="1">  1        2 0.10914347E+00 0.17800533E+04</pdfrwt>
<pdfrwt beam="2">  1       -2 0.17178355E+00 0.17800533E+04</pdfrwt>
<totfact> 0.78794039E+00</totfact>
</mgrwt>
</event>
<event>
 6    1  0.1885829E-005  0.3444709E+03  0.7818608E-02  0.1064908E+00
         -2   -1    0    0    0  501 -0.00000000000E+00  0.00000000000E+00  0.25421805047E+02  0.25421805047E+02  0.00000000000E+00 0.  1.
          2   -1    0    0  501    0  0.00000000000E+00 -0.00000000000E+00 -0.11669138478E+04  0.11669138478E+04  0.00000000000E+00 0. -1.
         23    2    1    2    0    0 -0.78787303902E+02 -0.31621002397E+02 -0.10813589295E+04  0.10883004744E+04  0.88619755442E+02 0.  0.
         13    1    3    3    0    0 -0.19810890607E+02 -0.53279980337E+02 -0.63540359497E+03  0.63794118553E+03  0.00000000000E+00 0. -1.
        -13    1    3    3    0    0 -0.58976413295E+02  0.21658977940E+02 -0.44595533456E+03  0.45035928887E+03  0.00000000000E+00 0.  1.
         22    1    1    2    0    0  0.78787303902E+02  0.31621002397E+02 -0.60133113220E+02  0.10403517845E+03  0.00000000000E+00 0.  1.
<mgrwt>
<rscale>  0 0.34447094E+03</rscale>
<asrwt>0</asrwt>
<pdfrwt beam="1">  1        2 0.17952522E+00 0.34447094E+03</pdfrwt>
<pdfrwt beam="2">  1       -2 0.39110467E-02 0.34447094E+03</pdfrwt>
<totfact> 0.59586357E+03</totfact>
</mgrwt>
</event>
<event>
 6    1  0.2083482E-005  0.4632191E+04  0.7818608E-02  0.7887894E-01
          2   -1    0    0  501    0  0.00000000000E+00  0.00000000000E+00  0.28243825286E+04  0.28243825286E+04  0.00000000000E+00 0. -1.
         -2   -1    0    0    0  501 -0.00000000000E+00 -0.00000000000E+00 -0.18992821719E+04  0.18992821719E+04  0.00000000000E+00 0.  1.
         23    2    1    2    0    0  0.84587380018E+03  0.18420344810E+04 -0.67803786897E+03  0.21393571171E+04  0.92303888482E+02 0.  0.
         11    1    3    3    0    0  0.66490710648E+03  0.14007150409E+04 -0.55392382530E+03  0.16464919345E+04  0.00000000000E+00 0. -1.
        -11    1    3    3    0    0  0.18096669370E+03  0.44131944007E+03 -0.12411404367E+03  0.49286518263E+03  0.00000000000E+00 0.  1.
         22    1    1    2    0    0 -0.84587380018E+03 -0.18420344810E+04  0.16031382256E+04  0.25843075834E+04  0.00000000000E+00 0. -1.
<mgrwt>
<rscale>  0 0.46321914E+04</rscale>
<asrwt>0</asrwt>
<pdfrwt beam="1">  1        2 0.43452039E+00 0.46321914E+04</pdfrwt>
<pdfrwt beam="2">  1       -2 0.29219726E+00 0.46321914E+04</pdfrwt>
<totfact> 0.59424577E-02</totfact>
</mgrwt>
</event>
<event>
 6    1  0.1885829E-005  0.2550753E+04  0.7818608E-02  0.8385124E-01
         -1   -1    0    0    0  501 -0.00000000000E+00  0.00000000000E+00  0.69213438818E+03  0.69213438818E+03  0.00000000000E+00 0.  1.
          1   -1    0    0  501    0  0.00000000000E+00 -0.00000000000E+00 -0.23501008896E+04  0.23501008896E+04  0.00000000000E+00 0. -1.
         23    2    1    2    0    0 -0.36276863901E+03 -0.11244505403E+04 -0.13970321325E+04  0.18322448447E+04  0.97119970422E+02 0.  0.
         13    1    3    3    0    0 -0.30079628389E+03 -0.80466359553E+03 -0.10411004939E+04  0.13497600323E+04  0.00000000000E+00 0.  1.
        -13    1    3    3    0    0 -0.61972355114E+02 -0.31978694481E+03 -0.35593163861E+03  0.48248481244E+03  0.00000000000E+00 0. -1.
         22    1    1    2    0    0  0.36276863901E+03  0.11244505403E+04 -0.26093436886E+03  0.12099904330E+04  0.00000000000E+00 0. -1.
<mgrwt>
<rscale>  0 0.25507533E+04</rscale>
<asrwt>0</asrwt>
<pdfrwt beam="1">  1        1 0.36155399E+00 0.25507533E+04</pdfrwt>
<pdfrwt beam="2">  1       -1 0.10648221E+00 0.25507533E+04</pdfrwt>
<totfact> 0.12526476E+00</totfact>
</mgrwt>
</event>
<event>
 6    1  0.1885829E-005  0.1977150E+04  0.7818608E-02  0.8617379E-01
          2   -1    0    0  501    0  0.00000000000E+00  0.00000000000E+00  0.51437717035E+04  0.51437717035E+04  0.00000000000E+00 0.  1.
         -2   -1    0    0    0  501 -0.00000000000E+00 -0.00000000000E+00 -0.18999301430E+03  0.18999301430E+03  0.00000000000E+00 0. -1.
         23    2    1    2    0    0  0.11787723441E+02  0.77111943901E+03  0.82287813256E+03  0.11314911012E+04  0.91539889967E+02 0.  0.
         13    1    3    3    0    0 -0.11712225236E+02  0.34288957418E+03  0.30476353020E+03  0.45890221795E+03  0.00000000000E+00 0.  1.
        -13    1    3    3    0    0  0.23499948677E+02  0.42822986483E+03  0.51811460235E+03  0.67258888327E+03  0.00000000000E+00 0. -1.
         22    1    1    2    0    0 -0.11787723441E+02 -0.77111943901E+03  0.41309005566E+04  0.42022736165E+04  0.00000000000E+00 0. -1.
<mgrwt>
<rscale>  0 0.19771502E+04</rscale>
<asrwt>0</asrwt>
<pdfrwt beam="1">  1        2 0.79134939E+00 0.19771502E+04</pdfrwt>
<pdfrwt beam="2">  1       -2 0.29229698E-01 0.19771502E+04</pdfrwt>
<totfact> 0.22852620E-01</totfact>
</mgrwt>
</event>
<event>
 6    1  0.1885829E-005  0.1400611E+04  0.7818608E-02  0.8953376E-01
          2   -1    0    0  501    0  0.00000000000E+00  0.00000000000E+00  0.19589235343E+04  0.19589235343E+04  0.00000000000E+00 0.  1.
         -2   -1    0    0    0  501 -0.00000000000E+00 -0.00000000000E+00 -0.25035582771E+03  0.25035582771E+03  0.00000000000E+00 0. -1.
         23    2    1    2    0    0  0.35282463144E+03  0.42896452204E+03  0.15230203422E+04  0.16236825671E+04  0.90875378466E+02 0.  0.
         13    1    3    3    0    0  0.67702743599E+02  0.11246633662E+03  0.46356159885E+03  0.48179009360E+03  0.00000000000E+00 0. -1.
        -13    1    3    3    0    0  0.28512188784E+03  0.31649818542E+03  0.10594587433E+04  0.11418924735E+04  0.00000000000E+00 0.  1.
         22    1    1    2    0    0 -0.35282463144E+03 -0.42896452204E+03  0.18554736438E+03  0.58559679486E+03  0.00000000000E+00 0.  1.
<mgrwt>
<rscale>  0 0.14006112E+04</rscale>
<asrwt>0</asrwt>
<pdfrwt beam="1">  1        2 0.30137284E+00 0.14006112E+04</pdfrwt>
<pdfrwt beam="2">  1       -2 0.38516282E-01 0.14006112E+04</pdfrwt>
<totfact> 0.43662739E+01</totfact>
</mgrwt>
</event>
<event>
 6    1  0.1885829E-005  0.3705960E+04  0.7818608E-02  0.8066642E-01
          2   -1    0    0  501    0  0.00000000000E+00  0.00000000000E+00  0.24150019306E+04  0.24150019306E+04  0.00000000000E+00 0. -1.
         -2   -1    0    0    0  501 -0.00000000000E+00 -0.00000000000E+00 -0.14217526803E+04  0.14217526803E+04  0.00000000000E+00 0.  1.
         23    2    1    2    0    0  0.78965457260E+03  0.67249131970E+03  0.20852229917E+04  0.23306983136E+04  0.90558183830E+02 0.  0.
         13    1    3    3    0    0  0.63803145260E+03  0.58758373619E+03  0.17366407941E+04  0.19412006669E+04  0.00000000000E+00 0. -1.
        -13    1    3    3    0    0  0.15162312000E+03  0.84907583501E+02  0.34858219764E+03  0.38949764667E+03  0.00000000000E+00 0.  1.
         22    1    1    2    0    0 -0.78965457260E+03 -0.67249131970E+03 -0.10919737414E+04  0.15060562974E+04  0.00000000000E+00 0.  1.
<mgrwt>
<rscale>  0 0.37059603E+04</rscale>
<asrwt>0</asrwt>
<pdfrwt beam="1">  1        2 0.37153876E+00 0.37059603E+04</pdfrwt>
<pdfrwt beam="2">  1       -2 0.21873118E+00 0.37059603E+04</pdfrwt>
<totfact> 0.31706947E-01</totfact>
</mgrwt>
</event>
<event>
 6    1  0.1885829E-005  0.3593452E+04  0.7818608E-02  0.8091993E-01
          2   -1    0    0  501    0  0.00000000000E+00  0.00000000000E+00  0.16090105840E+04  0.16090105840E+04  0.00000000000E+00 0. -1.
         -2   -1    0    0    0  501 -0.00000000000E+00 -0.00000000000E+00 -0.20063415342E+04  0.20063415342E+04  0.00000000000E+00 0.  1.
         23    2    1    2    0    0 -0.28861184419E+03  0.11259731577E+04 -0.15754603463E+04  0.19603290905E+04  0.98501225926E+02 0.  0.
         13    1    3    3    0    0 -0.14198169102E+03  0.73920734498E+03 -0.10337001197E+04  0.12787189828E+04  0.00000000000E+00 0.  1.
        -13    1    3    3    0    0 -0.14663015317E+03  0.38676581275E+03 -0.54176022662E+03  0.68161010767E+03  0.00000000000E+00 0. -1.
         22    1    1    2    0    0  0.28861184419E+03 -0.11259731577E+04  0.11781293961E+04  0.16550230278E+04  0.00000000000E+00 0. -1.
<mgrwt>
<rscale>  0 0.35934522E+04</rscale>
<asrwt>0</asrwt>
<pdfrwt beam="1">  1        2 0.24754009E+00 0.35934522E+04</pdfrwt>
<pdfrwt beam="2">  1       -2 0.30866793E+00 0.35934522E+04</pdfrwt>
<totfact> 0.25274476E-01</totfact>
</mgrwt>
</event>
<event>
 6    1  0.1885829E-005  0.1150639E+04  0.7818608E-02  0.9157195E-01
          2   -1    0    0  501    0  0.00000000000E+00  0.00000000000E+00  0.56024010255E+03  0.56024010255E+03  0.00000000000E+00 0. -1.
         -2   -1    0    0    0  501 -0.00000000000E+00 -0.00000000000E+00 -0.59080434692E+03  0.59080434692E+03  0.00000000000E+00 0.  1.
         23    2    1    2    0    0 -0.33374343468E+03 -0.27594873531E+02 -0.47898809864E+03  0.59137480556E+03  0.90268514849E+02 0.  0.
         13    1    3    3    0    0 -0.97494173885E+02 -0.22414900883E+02 -0.81873405470E+02  0.12927024502E+03  0.00000000000E+00 0.  1.
        -13    1    3    3    0    0 -0.23624926080E+03 -0.51799726477E+01 -0.39711469317E+03  0.46210456054E+03  0.00000000000E+00 0. -1.
         22    1    1    2    0    0  0.33374343468E+03  0.27594873531E+02  0.44842385427E+03  0.55966964391E+03  0.00000000000E+00 0. -1.
<mgrwt>
<rscale>  0 0.11506386E+04</rscale>
<asrwt>0</asrwt>
<pdfrwt beam="1">  1        2 0.86190786E-01 0.11506386E+04</pdfrwt>
<pdfrwt beam="2">  1       -2 0.90892976E-01 0.11506386E+04</pdfrwt>
<totfact> 0.55090196E+01</totfact>
</mgrwt>
</event>
<event>
 6    1  0.1885829E-005  0.3600852E+04  0.7818608E-02  0.8090296E-01
         -2   -1    0    0    0  501 -0.00000000000E+00  0.00000000000E+00  0.10604319464E+04  0.10604319464E+04  0.00000000000E+00 0.  1.
          2   -1    0    0  501    0  0.00000000000E+00 -0.00000000000E+00 -0.30568058394E+04  0.30568058394E+04  0.00000000000E+00 0. -1.
         23    2    1    2    0    0 -0.78852669695E+03  0.16146400677E+04 -0.11052842069E+04  0.21115265083E+04  0.89744733205E+02 0.  0.
         13    1    3    3    0    0 -0.77245415597E+02  0.22173127605E+03 -0.15802128315E+03  0.28302356605E+03  0.00000000000E+00 0. -1.
        -13    1    3    3    0    0 -0.71128128135E+03  0.13929087916E+04 -0.94726292379E+03  0.18285029423E+04  0.00000000000E+00 0.  1.
         22    1    1    2    0    0  0.78852669695E+03 -0.16146400677E+04 -0.89108968603E+03  0.20057112775E+04  0.00000000000E+00 0. -1.
<mgrwt>
<rscale>  0 0.36008524E+04</rscale>
<asrwt>0</asrwt>
<pdfrwt beam="1">  1        2 0.47027781E+00 0.36008524E+04</pdfrwt>
<pdfrwt beam="2">  1       -2 0.16314338E+00 0.36008524E+04</pdfrwt>
<totfact> 0.31182431E-01</totfact>
</mgrwt>
</event>
<event>
 6    1  0.4166536E-005  0.3730463E+04  0.7818608E-02  0.8061244E-01
          2   -1    0    0  501    0  0.00000000000E+00  0.00000000000E+00  0.21103664063E+04  0.21103664063E+04  0.00000000000E+00 0. -1.
         -2   -1    0    0    0  501 -0.00000000000E+00 -0.00000000000E+00 -0.16485708197E+04  0.16485708197E+04  0.00000000000E+00 0.  1.
         23    2    1    2    0    0 -0.90924249694E+03 -0.97623362866E+03  0.15429584987E+04  0.20417688423E+04  0.91351303431E+02 0.  0.
         11    1    3    3    0    0 -0.29472773229E+03 -0.32704912470E+03  0.44567533571E+03  0.62645995164E+03  0.00000000000E+00 0. -1.
        -11    1    3    3    0    0 -0.61451476466E+03 -0.64918450396E+03  0.10972831630E+04  0.14153088906E+04  0.00000000000E+00 0.  1.
         22    1    1    2    0    0  0.90924249694E+03  0.97623362866E+03 -0.10811629121E+04  0.17171683838E+04  0.00000000000E+00 0.  1.
<mgrwt>
<rscale>  0 0.37304630E+04</rscale>
<asrwt>0</asrwt>
<pdfrwt beam="1">  1        2 0.32467176E+00 0.37304630E+04</pdfrwt>
<pdfrwt beam="2">  1       -2 0.25362628E+00 0.37304630E+04</pdfrwt>
<totfact> 0.28543229E-01</totfact>
</mgrwt>
</event>
<event>
 6    1  0.1885829E-005  0.4503485E+04  0.7818608E-02  0.7910027E-01
          2   -1    0    0  501    0  0.00000000000E+00  0.00000000000E+00  0.30736242486E+04  0.30736242486E+04  0.00000000000E+00 0. -1.
         -2   -1    0    0    0  501 -0.00000000000E+00 -0.00000000000E+00 -0.16496307594E+04  0.16496307594E+04  0.00000000000E+00 0.  1.
         23    2    1    2    0    0 -0.13934625705E+04 -0.11560759196E+04  0.21146870547E+04  0.27853935402E+04  0.90919565498E+02 0.  0.
         11    1    3    3    0    0 -0.80202389757E+03 -0.65251296133E+03  0.12745920193E+04  0.16412191544E+04  0.00000000000E+00 0. -1.
        -11    1    3    3    0    0 -0.59143867292E+03 -0.50356295824E+03  0.84009503533E+03  0.11441743858E+04  0.00000000000E+00 0.  1.
         22    1    1    2    0    0  0.13934625705E+04  0.11560759196E+04 -0.69069356539E+03  0.19378614678E+04  0.00000000000E+00 0.  1.
<mgrwt>
<rscale>  0 0.45034854E+04</rscale>
<asrwt>0</asrwt>
<pdfrwt beam="1">  1        2 0.47286527E+00 0.45034854E+04</pdfrwt>
<pdfrwt beam="2">  1       -2 0.25378935E+00 0.45034854E+04</pdfrwt>
<totfact> 0.72120491E-02</totfact>
</mgrwt>
</event>
<event>
 6    1  0.1885829E-005  0.2538073E+04  0.7818608E-02  0.8389546E-01
          2   -1    0    0  501    0  0.00000000000E+00  0.00000000000E+00  0.30683626797E+04  0.30683626797E+04  0.00000000000E+00 0. -1.
         -2   -1    0    0    0  501 -0.00000000000E+00 -0.00000000000E+00 -0.52485768425E+03  0.52485768425E+03  0.00000000000E+00 0.  1.
         23    2    1    2    0    0  0.42094949821E+03  0.11595492887E+04  0.86165534887E+03  0.15074660000E+04  0.90833737333E+02 0.  0.
         11    1    3    3    0    0  0.16532837089E+03  0.57452266350E+03  0.44132701341E+03  0.74308767576E+03  0.00000000000E+00 0.  1.
        -11    1    3    3    0    0  0.25562112732E+03  0.58502662524E+03  0.42032833546E+03  0.76437832424E+03  0.00000000000E+00 0. -1.
         22    1    1    2    0    0 -0.42094949821E+03 -0.11595492887E+04  0.16818496466E+04  0.20857543640E+04  0.00000000000E+00 0. -1.
<mgrwt>
<rscale>  0 0.25380731E+04</rscale>
<asrwt>0</asrwt>
<pdfrwt beam="1">  1        2 0.47205579E+00 0.25380731E+04</pdfrwt>
<pdfrwt beam="2">  1       -2 0.80747337E-01 0.25380731E+04</pdfrwt>
<totfact> 0.18975027E+00</totfact>
</mgrwt>
</event>
<event>
 6    1  0.1885829E-005  0.7069901E+03  0.7818608E-02  0.9705352E-01
          2   -1    0    0  501    0  0.00000000000E+00  0.00000000000E+00  0.16439569054E+04  0.16439569054E+04  0.00000000000E+00 0.  1.
         -2   -1    0    0    0  501 -0.00000000000E+00 -0.00000000000E+00 -0.76010972366E+02  0.76010972366E+02  0.00000000000E+00 0. -1.
         23    2    1    2    0    0 -0.76006400076E+02  0.14646847105E+03  0.15413019883E+04  0.15528155949E+04  0.91621323007E+02 0.  0.
         11    1    3    3    0    0 -0.45634977359E+01  0.85217392221E+02  0.49617765368E+03  0.50346310039E+03  0.00000000000E+00 0.  1.
        -11    1    3    3    0    0 -0.71442902340E+02  0.61251078825E+02  0.10451243346E+04  0.10493524945E+04  0.00000000000E+00 0. -1.
         22    1    1    2    0    0  0.76006400076E+02 -0.14646847105E+03  0.26643944713E+02  0.16715228282E+03  0.00000000000E+00 0. -1.
<mgrwt>
<rscale>  0 0.70699014E+03</rscale>
<asrwt>0</asrwt>
<pdfrwt beam="1">  1        2 0.25291642E+00 0.70699014E+03</pdfrwt>
<pdfrwt beam="2">  1       -2 0.11693997E-01 0.70699014E+03</pdfrwt>
<totfact> 0.56963609E+02</totfact>
</mgrwt>
</event>
<event>
 6    1  0.1885829E-005  0.3573495E+04  0.7818608E-02  0.8096590E-01
          2   -1    0    0  501    0  0.00000000000E+00  0.00000000000E+00  0.16111373329E+04  0.16111373329E+04  0.00000000000E+00 0. -1.
         -2   -1    0    0    0  501 -0.00000000000E+00 -0.00000000000E+00 -0.19814984994E+04  0.19814984994E+04  0.00000000000E+00 0.  1.
         23    2    1    2    0    0  0.31116486524E+02 -0.66277420819E+03 -0.18518759988E+04  0.19693293040E+04  0.92602947535E+02 0.  0.
         11    1    3    3    0    0  0.55957636179E+02 -0.40586065774E+03 -0.12110935451E+04  0.12785154303E+04  0.00000000000E+00 0.  1.
        -11    1    3    3    0    0 -0.24841149654E+02 -0.25691355045E+03 -0.64078245372E+03  0.69081387371E+03  0.00000000000E+00 0. -1.
         22    1    1    2    0    0 -0.31116486524E+02  0.66277420819E+03  0.14815148323E+04  0.16233065284E+04  0.00000000000E+00 0. -1.
<mgrwt>
<rscale>  0 0.35734948E+04</rscale>
<asrwt>0</asrwt>
<pdfrwt beam="1">  1        2 0.24786728E+00 0.35734948E+04</pdfrwt>
<pdfrwt beam="2">  1       -2 0.30484592E+00 0.35734948E+04</pdfrwt>
<totfact> 0.26649038E-01</totfact>
</mgrwt>
</event>
<event>
 6    1  0.1885829E-005  0.2511309E+04  0.7818608E-02  0.8398968E-01
         -2   -1    0    0    0  501 -0.00000000000E+00  0.00000000000E+00  0.67118620269E+03  0.67118620269E+03  0.00000000000E+00 0.  1.
          2   -1    0    0  501    0  0.00000000000E+00 -0.00000000000E+00 -0.23490780016E+04  0.23490780016E+04  0.00000000000E+00 0. -1.
         23    2    1    2    0    0  0.58518501795E+03  0.52424925476E+03 -0.20156111046E+04  0.21650840386E+04  0.87303968786E+02 0.  0.
         11    1    3    3    0    0  0.35934216602E+03  0.36648182070E+03 -0.13790218650E+04  0.14714404579E+04  0.00000000000E+00 0.  1.
        -11    1    3    3    0    0  0.22584285193E+03  0.15776743406E+03 -0.63658923966E+03  0.69364358072E+03  0.00000000000E+00 0. -1.
         22    1    1    2    0    0 -0.58518501795E+03 -0.52424925476E+03  0.33771930567E+03  0.85518016568E+03  0.00000000000E+00 0.  1.
<mgrwt>
<rscale>  0 0.25113094E+04</rscale>
<asrwt>0</asrwt>
<pdfrwt beam="1">  1        2 0.36139661E+00 0.25113094E+04</pdfrwt>
<pdfrwt beam="2">  1       -2 0.10325942E+00 0.25113094E+04</pdfrwt>
<totfact> 0.28979688E+00</totfact>
</mgrwt>
</event>
<event>
 6    1  0.1885829E-005  0.8417826E+03  0.7818608E-02  0.9501433E-01
         -1   -1    0    0    0  501 -0.00000000000E+00  0.00000000000E+00  0.12713008669E+04  0.12713008669E+04  0.00000000000E+00 0.  1.
          1   -1    0    0  501    0  0.00000000000E+00 -0.00000000000E+00 -0.13934504658E+03  0.13934504658E+03  0.00000000000E+00 0. -1.
         23    2    1    2    0    0  0.46494741677E+02  0.21018009483E+03 -0.23990766250E+02  0.23482707357E+03  0.90723560061E+02 0.  0.
         11    1    3    3    0    0  0.59130034484E+00  0.11656670152E+03  0.25640351893E+02  0.11935482054E+03  0.00000000000E+00 0. -1.
        -11    1    3    3    0    0  0.45903441332E+02  0.93613393306E+02 -0.49631118144E+02  0.11547225303E+03  0.00000000000E+00 0.  1.
         22    1    1    2    0    0 -0.46494741677E+02 -0.21018009483E+03  0.11559465865E+04  0.11758188399E+04  0.00000000000E+00 0.  1.
<mgrwt>
<rscale>  0 0.84178258E+03</rscale>
<asrwt>0</asrwt>
<pdfrwt beam="1">  1        1 0.21437700E-01 0.84178258E+03</pdfrwt>
<pdfrwt beam="2">  1       -1 0.19558474E+00 0.84178258E+03</pdfrwt>
<totfact> 0.39242396E+01</totfact>
</mgrwt>
</event>
<event>
 6    1  0.1885829E-005  0.3266154E+04  0.7818608E-02  0.8171561E-01
          2   -1    0    0  501    0  0.00000000000E+00  0.00000000000E+00  0.16073462377E+04  0.16073462377E+04  0.00000000000E+00 0. -1.
         -2   -1    0    0    0  501 -0.00000000000E+00 -0.00000000000E+00 -0.16592195172E+04  0.16592195172E+04  0.00000000000E+00 0.  1.
         23    2    1    2    0    0 -0.86792579500E+03 -0.13796380135E+04  0.46847893706E+02  0.16336413525E+04  0.99464112549E+02 0.  0.
         13    1    3    3    0    0 -0.32971594329E+03 -0.55979420247E+03  0.63540089148E+02  0.65277828955E+03  0.00000000000E+00 0. -1.
        -13    1    3    3    0    0 -0.53820985171E+03 -0.81984381099E+03 -0.16692195442E+02  0.98086306296E+03  0.00000000000E+00 0.  1.
         22    1    1    2    0    0  0.86792579500E+03  0.13796380135E+04 -0.98721173256E+02  0.16329244024E+04  0.00000000000E+00 0. -1.
<mgrwt>
<rscale>  0 0.32661539E+04</rscale>
<asrwt>0</asrwt>
<pdfrwt beam="1">  1        2 0.24728404E+00 0.32661539E+04</pdfrwt>
<pdfrwt beam="2">  1       -2 0.25526454E+00 0.32661539E+04</pdfrwt>
<totfact> 0.55186948E-01</totfact>
</mgrwt>
</event>
<event>
 6    1  0.1885829E-005  0.1146654E+04  0.7818608E-02  0.9160876E-01
         -2   -1    0    0    0  501 -0.00000000000E+00  0.00000000000E+00  0.61010651608E+03  0.61010651608E+03  0.00000000000E+00 0.  1.
          2   -1    0    0  501    0  0.00000000000E+00 -0.00000000000E+00 -0.53876457688E+03  0.53876457688E+03  0.00000000000E+00 0. -1.
         23    2    1    2    0    0 -0.73877933805E+02 -0.50737764832E+02  0.59985370040E+03  0.61281423813E+03  0.87661614679E+02 0.  0.
         11    1    3    3    0    0 -0.25056716196E+02  0.22065518260E+02  0.24646609545E+03  0.24871723368E+03  0.00000000000E+00 0. -1.
        -11    1    3    3    0    0 -0.48821217609E+02 -0.72803283093E+02  0.35338760494E+03  0.36409700444E+03  0.00000000000E+00 0.  1.
         22    1    1    2    0    0  0.73877933805E+02  0.50737764832E+02 -0.52851176120E+03  0.53605685483E+03  0.00000000000E+00 0. -1.
<mgrwt>
<rscale>  0 0.11466539E+04</rscale>
<asrwt>0</asrwt>
<pdfrwt beam="1">  1        2 0.82886858E-01 0.11466539E+04</pdfrwt>
<pdfrwt beam="2">  1       -2 0.93862541E-01 0.11466539E+04</pdfrwt>
<totfact> 0.53562681E+01</totfact>
</mgrwt>
</event>
<event>
 6    1  0.1885829E-005  0.3384036E+04  0.7818608E-02  0.8141836E-01
         -2   -1    0    0    0  501 -0.00000000000E+00  0.00000000000E+00  0.97421068361E+03  0.97421068361E+03  0.00000000000E+00 0.  1.
          2   -1    0    0  501    0  0.00000000000E+00 -0.00000000000E+00 -0.29387121057E+04  0.29387121057E+04  0.00000000000E+00 0. -1.
         23    2    1    2    0    0  0.44372722544E+03 -0.15798932682E+03 -0.28605596251E+04  0.29006111866E+04  0.94283665057E+02 0.  0.
         13    1    3    3    0    0  0.32425218308E+03 -0.70087857028E+02 -0.19294694483E+04  0.19577804111E+04  0.00000000000E+00 0. -1.
        -13    1    3    3    0    0  0.11947504236E+03 -0.87901469794E+02 -0.93109017671E+03  0.94283077554E+03  0.00000000000E+00 0.  1.
         22    1    1    2    0    0 -0.44372722544E+03  0.15798932682E+03  0.89605820292E+03  0.10123116027E+04  0.00000000000E+00 0.  1.
<mgrwt>
<rscale>  0 0.33840359E+04</rscale>
<asrwt>0</asrwt>
<pdfrwt beam="1">  1        2 0.45210956E+00 0.33840359E+04</pdfrwt>
<pdfrwt beam="2">  1       -2 0.14987857E+00 0.33840359E+04</pdfrwt>
<totfact> 0.47327448E-01</totfact>
</mgrwt>
</event>
<event>
 6    1  0.1885829E-005  0.1417802E+04  0.7818608E-02  0.8941032E-01
          2   -1    0    0  501    0  0.00000000000E+00  0.00000000000E+00  0.13927523444E+04  0.13927523444E+04  0.00000000000E+00 0. -1.
         -2   -1    0    0    0  501 -0.00000000000E+00 -0.00000000000E+00 -0.36082569148E+03  0.36082569148E+03  0.00000000000E+00 0.  1.
         23    2    1    2    0    0  0.44427176130E+03  0.37625311302E+03  0.24332451517E+02  0.58988139258E+03  0.91783365433E+02 0.  0.
         11    1    3    3    0    0  0.25654320239E+03  0.23812110596E+03 -0.27547668418E+02  0.35110532583E+03  0.00000000000E+00 0.  1.
        -11    1    3    3    0    0  0.18772855891E+03  0.13813200706E+03  0.51880119934E+02  0.23877606674E+03  0.00000000000E+00 0. -1.
         22    1    1    2    0    0 -0.44427176130E+03 -0.37625311302E+03  0.10075942014E+04  0.11636966433E+04  0.00000000000E+00 0. -1.
<mgrwt>
<rscale>  0 0.14178023E+04</rscale>
<asrwt>0</asrwt>
<pdfrwt beam="1">  1        2 0.21426959E+00 0.14178023E+04</pdfrwt>
<pdfrwt beam="2">  1       -2 0.55511645E-01 0.14178023E+04</pdfrwt>
<totfact> 0.43301800E+01</totfact>
</mgrwt>
</event>
<event>
 6    1  0.1885829E-005  0.2182466E+04  0.7818608E-02  0.8525762E-01
          1   -1    0    0  501    0  0.00000000000E+00  0.00000000000E+00  0.87312215630E+03  0.87312215630E+03  0.00000000000E+00 0. -1.
         -1   -1    0    0    0  501 -0.00000000000E+00 -0.00000000000E+00 -0.13638288544E+04  0.13638288544E+04  0.00000000000E+00 0.  1.
         23    2    1    2    0    0 -0.78036074685E+03  0.77585338968E+02  0.52918680213E+03  0.95041879896E+03  0.90966157570E+02 0.  0.
         13    1    3    3    0    0 -0.60076360697E+03  0.26937135217E+02  0.42822918306E+03  0.73825656376E+03  0.00000000000E+00 0.  1.
        -13    1    3    3    0    0 -0.17959713988E+03  0.50648203751E+02  0.10095761907E+03  0.21216223520E+03  0.00000000000E+00 0. -1.
         22    1    1    2    0    0  0.78036074685E+03 -0.77585338968E+02 -0.10198935002E+04  0.12865322117E+04  0.00000000000E+00 0.  1.
<mgrwt>
<rscale>  0 0.21824658E+04</rscale>
<asrwt>0</asrwt>
<pdfrwt beam="1">  1        1 0.13432649E+00 0.21824658E+04</pdfrwt>
<pdfrwt beam="2">  1       -1 0.20981982E+00 0.21824658E+04</pdfrwt>
<totfact> 0.22544880E+00</totfact>
</mgrwt>
</event>
<event>
 6    1  0.1885829E-005  0.4699778E+03  0.7818608E-02  0.1021926E+00
         -4   -1    0    0    0  501 -0.00000000000E+00  0.00000000000E+00  0.27732546308E+02  0.27732546308E+02  0.00000000000E+00 0. -1.
          4   -1    0    0  501    0  0.00000000000E+00 -0.00000000000E+00 -0.19911546390E+04  0.19911546390E+04  0.00000000000E+00 0.  1.
         23    2    1    2    0    0  0.76914151879E+02  0.17582816761E+03 -0.15262704714E+04  0.15414640279E+04  0.98886126329E+02 0.  0.
         13    1    3    3    0    0  0.19456292863E+02  0.86628119399E+02 -0.10384042360E+04  0.10421930415E+04  0.00000000000E+00 0.  1.
        -13    1    3    3    0    0  0.57457859016E+02  0.89200048211E+02 -0.48786623545E+03  0.49927098640E+03  0.00000000000E+00 0. -1.
         22    1    1    2    0    0 -0.76914151879E+02 -0.17582816761E+03 -0.43715162127E+03  0.47742315744E+03  0.00000000000E+00 0. -1.
<mgrwt>
<rscale>  0 0.46997782E+03</rscale>
<asrwt>0</asrwt>
<pdfrwt beam="1">  1        4 0.30633158E+00 0.46997782E+03</pdfrwt>
<pdfrwt beam="2">  1       -4 0.42665442E-02 0.46997782E+03</pdfrwt>
<totfact> 0.19262869E+01</totfact>
</mgrwt>
</event>
<event>
 6    1  0.1885829E-005  0.7055558E+03  0.7818608E-02  0.9707778E-01
          2   -1    0    0  501    0  0.00000000000E+00  0.00000000000E+00  0.79876519322E+03  0.79876519322E+03  0.00000000000E+00 0. -1.
         -2   -1    0    0    0  501 -0.00000000000E+00 -0.00000000000E+00 -0.15580580784E+03  0.15580580784E+03  0.00000000000E+00 0.  1.
         23    2    1    2    0    0 -0.24892647920E+03 -0.24204215850E+03  0.32067014238E+03  0.48084201240E+03  0.88492384602E+02 0.  0.
         11    1    3    3    0    0 -0.86352286288E+02 -0.54251001026E+02  0.50346495663E+02  0.11373063829E+03  0.00000000000E+00 0. -1.
        -11    1    3    3    0    0 -0.16257419292E+03 -0.18779115748E+03  0.27032364671E+03  0.36711137411E+03  0.00000000000E+00 0.  1.
         22    1    1    2    0    0  0.24892647920E+03  0.24204215850E+03  0.32228924301E+03  0.47372898866E+03  0.00000000000E+00 0.  1.
<mgrwt>
<rscale>  0 0.70555583E+03</rscale>
<asrwt>0</asrwt>
<pdfrwt beam="1">  1        2 0.12288695E+00 0.70555583E+03</pdfrwt>
<pdfrwt beam="2">  1       -2 0.23970125E-01 0.70555583E+03</pdfrwt>
<totfact> 0.53695830E+02</totfact>
</mgrwt>
</event>
<event>
 6    1  0.1885829E-005  0.3840407E+04  0.7818608E-02  0.8037539E-01
         -2   -1    0    0    0  501 -0.00000000000E+00  0.00000000000E+00  0.11611958078E+04  0.11611958078E+04  0.00000000000E+00 0.  1.
          2   -1    0    0  501    0  0.00000000000E+00 -0.00000000000E+00 -0.31753312146E+04  0.31753312146E+04  0.00000000000E+00 0. -1.
         23    2    1    2    0    0 -0.51405337929E+03 -0.14094136547E+04 -0.23590387223E+04  0.27971583129E+04  0.91286401857E+02 0.  0.
         13    1    3    3    0    0 -0.45026370103E+03 -0.12658671429E+04 -0.20610367107E+04  0.24602905005E+04  0.00000000000E+00 0. -1.
        -13    1    3    3    0    0 -0.63789678265E+02 -0.14354651178E+03 -0.29800201165E+03  0.33686781242E+03  0.00000000000E+00 0.  1.
         22    1    1    2    0    0  0.51405337929E+03  0.14094136547E+04  0.34490331551E+03  0.15393687095E+04  0.00000000000E+00 0.  1.
<mgrwt>
<rscale>  0 0.38404069E+04</rscale>
<asrwt>0</asrwt>
<pdfrwt beam="1">  1        2 0.48851249E+00 0.38404069E+04</pdfrwt>
<pdfrwt beam="2">  1       -2 0.17864551E+00 0.38404069E+04</pdfrwt>
<totfact> 0.19906355E-01</totfact>
</mgrwt>
</event>
<event>
 6    1  0.1885829E-005  0.2909165E+04  0.7818608E-02  0.8270156E-01
          2   -1    0    0  501    0  0.00000000000E+00  0.00000000000E+00  0.24673730179E+04  0.24673730179E+04  0.00000000000E+00 0. -1.
         -2   -1    0    0    0  501 -0.00000000000E+00 -0.00000000000E+00 -0.85751521460E+03  0.85751521460E+03  0.00000000000E+00 0.  1.
         23    2    1    2    0    0 -0.45936497305E+03  0.76516728220E+03  0.21165826218E+04  0.22986001687E+04  0.84519775406E+02 0.  0.
         11    1    3    3    0    0 -0.33206622792E+03  0.51287188183E+03  0.13590522662E+04  0.14900767125E+04  0.00000000000E+00 0.  1.
        -11    1    3    3    0    0 -0.12729874513E+03  0.25229540037E+03  0.75753035560E+03  0.80852345619E+03  0.00000000000E+00 0. -1.
         22    1    1    2    0    0  0.45936497305E+03 -0.76516728220E+03 -0.50672481850E+03  0.10262880638E+04  0.00000000000E+00 0.  1.
<mgrwt>
<rscale>  0 0.29091648E+04</rscale>
<asrwt>0</asrwt>
<pdfrwt beam="1">  1        2 0.37959585E+00 0.29091648E+04</pdfrwt>
<pdfrwt beam="2">  1       -2 0.13192542E+00 0.29091648E+04</pdfrwt>
<totfact> 0.13116526E+00</totfact>
</mgrwt>
</event>
<event>
 6    1  0.1885829E-005  0.3851332E+04  0.7818608E-02  0.8035228E-01
         -2   -1    0    0    0  501 -0.00000000000E+00  0.00000000000E+00  0.35448336843E+04  0.35448336843E+04  0.00000000000E+00 0.  1.
          2   -1    0    0  501    0  0.00000000000E+00 -0.00000000000E+00 -0.10460828443E+04  0.10460828443E+04  0.00000000000E+00 0. -1.
         23    2    1    2    0    0 -0.41277843100E+03 -0.69662062917E+03 -0.83115902393E+03  0.11639694856E+04  0.91286944541E+02 0.  0.
         13    1    3    3    0    0 -0.15306495820E+03 -0.34761595864E+03 -0.38570692351E+03  0.54132759673E+03  0.00000000000E+00 0.  1.
        -13    1    3    3    0    0 -0.25971347280E+03 -0.34900467052E+03 -0.44545210042E+03  0.62264188887E+03  0.00000000000E+00 0. -1.
         22    1    1    2    0    0  0.41277843100E+03  0.69662062917E+03  0.33299098639E+04  0.34269470431E+04  0.00000000000E+00 0.  1.
<mgrwt>
<rscale>  0 0.38513321E+04</rscale>
<asrwt>0</asrwt>
<pdfrwt beam="1">  1        2 0.16093582E+00 0.38513321E+04</pdfrwt>
<pdfrwt beam="2">  1       -2 0.54535902E+00 0.38513321E+04</pdfrwt>
<totfact> 0.16960082E-02</totfact>
</mgrwt>
</event>
<event>
 6    1  0.1885829E-005  0.2938705E+04  0.7818608E-02  0.8261454E-01
          2   -1    0    0  501    0  0.00000000000E+00  0.00000000000E+00  0.72308568054E+03  0.72308568054E+03  0.00000000000E+00 0. -1.
         -2   -1    0    0    0  501 -0.00000000000E+00 -0.00000000000E+00 -0.29858097030E+04  0.29858097030E+04  0.00000000000E+00 0.  1.
         23    2    1    2    0    0 -0.74501856279E+03  0.10241006340E+04 -0.19559372037E+03  0.12846712905E+04  0.91042043817E+02 0.  0.
         13    1    3    3    0    0 -0.61373127564E+03  0.81164438526E+03 -0.18816203569E+03  0.10348128519E+04  0.00000000000E+00 0.  1.
        -13    1    3    3    0    0 -0.13128728715E+03  0.21245624872E+03 -0.74316846723E+01  0.24985843857E+03  0.00000000000E+00 0. -1.
         22    1    1    2    0    0  0.74501856279E+03 -0.10241006340E+04 -0.20671303021E+04  0.24242240930E+04  0.00000000000E+00 0.  1.
<mgrwt>
<rscale>  0 0.29387046E+04</rscale>
<asrwt>0</asrwt>
<pdfrwt beam="1">  1        2 0.11124395E+00 0.29387046E+04</pdfrwt>
<pdfrwt beam="2">  1       -2 0.45935534E+00 0.29387046E+04</pdfrwt>
<totfact> 0.10165689E-01</totfact>
</mgrwt>
</event>
<event>
 6    1  0.1885829E-005  0.1254534E+04  0.7818608E-02  0.9066418E-01
          2   -1    0    0  501    0  0.00000000000E+00  0.00000000000E+00  0.13962128475E+04  0.13962128475E+04  0.00000000000E+00 0. -1.
         -2   -1    0    0    0  501 -0.00000000000E+00 -0.00000000000E+00 -0.28180809635E+03  0.28180809635E+03  0.00000000000E+00 0.  1.
         23    2    1    2    0    0  0.49402451832E+03  0.31023826662E+03  0.26545936877E+03  0.64796450411E+03  0.95295935621E+02 0.  0.
         13    1    3    3    0    0  0.33713196420E+03  0.16982636472E+03  0.20156764129E+03  0.42793512295E+03  0.00000000000E+00 0.  1.
        -13    1    3    3    0    0  0.15689255411E+03  0.14041190191E+03  0.63891727481E+02  0.22002938116E+03  0.00000000000E+00 0. -1.
         22    1    1    2    0    0 -0.49402451832E+03 -0.31023826662E+03  0.84894538236E+03  0.10300564397E+04  0.00000000000E+00 0. -1.
<mgrwt>
<rscale>  0 0.12545343E+04</rscale>
<asrwt>0</asrwt>
<pdfrwt beam="1">  1        2 0.21480197E+00 0.12545343E+04</pdfrwt>
<pdfrwt beam="2">  1       -2 0.43355092E-01 0.12545343E+04</pdfrwt>
<totfact> 0.72097665E+01</totfact>
</mgrwt>
</event>
<event>
 6    1  0.1885829E-005  0.3391128E+04  0.7818608E-02  0.8140087E-01
         -2   -1    0    0    0  501 -0.00000000000E+00  0.00000000000E+00  0.11525934269E+04  0.11525934269E+04  0.00000000000E+00 0.  1.
          2   -1    0    0  501    0  0.00000000000E+00 -0.00000000000E+00 -0.24943207345E+04  0.24943207345E+04  0.00000000000E+00 0. -1.
         23    2    1    2    0    0 -0.10298897243E+04 -0.79854684395E+03 -0.18361223292E+04  0.22530790407E+04  0.81670372363E+02 0.  0.
         11    1    3    3    0    0 -0.98489819149E+03 -0.78234040900E+03 -0.17626116017E+04  0.21653823269E+04  0.00000000000E+00 0. -1.
        -11    1    3    3    0    0 -0.44991532798E+02 -0.16206434952E+02 -0.73510727545E+02  0.87696713859E+02  0.00000000000E+00 0.  1.
         22    1    1    2    0    0  0.10298897243E+04  0.79854684395E+03  0.49439502160E+03  0.13938351207E+04  0.00000000000E+00 0.  1.
<mgrwt>
<rscale>  0 0.33911282E+04</rscale>
<asrwt>0</asrwt>
<pdfrwt beam="1">  1        2 0.38374165E+00 0.33911282E+04</pdfrwt>
<pdfrwt beam="2">  1       -2 0.17732207E+00 0.33911282E+04</pdfrwt>
<totfact> 0.55028309E-01</totfact>
</mgrwt>
</event>
<event>
 6    1  0.1885829E-005  0.8754257E+03  0.7818608E-02  0.9456833E-01
         -2   -1    0    0    0  501 -0.00000000000E+00  0.00000000000E+00  0.26512703670E+03  0.26512703670E+03  0.00000000000E+00 0.  1.
          2   -1    0    0  501    0  0.00000000000E+00 -0.00000000000E+00 -0.72264423851E+03  0.72264423851E+03  0.00000000000E+00 0. -1.
         23    2    1    2    0    0 -0.34422809636E+03  0.15973006197E+03  0.34553549887E+01  0.39069307837E+03  0.92857239816E+02 0.  0.
         13    1    3    3    0    0 -0.18989380812E+03  0.40974593949E+02  0.19811824501E+02  0.19527182106E+03  0.00000000000E+00 0.  1.
        -13    1    3    3    0    0 -0.15433428824E+03  0.11875546802E+03 -0.16356469513E+02  0.19542125730E+03  0.00000000000E+00 0. -1.
         22    1    1    2    0    0  0.34422809636E+03 -0.15973006197E+03 -0.46097255680E+03  0.59707819684E+03  0.00000000000E+00 0. -1.
<mgrwt>
<rscale>  0 0.87542567E+03</rscale>
<asrwt>0</asrwt>
<pdfrwt beam="1">  1        2 0.11117604E+00 0.87542567E+03</pdfrwt>
<pdfrwt beam="2">  1       -2 0.40788775E-01 0.87542567E+03</pdfrwt>
<totfact> 0.22468790E+02</totfact>
</mgrwt>
</event>
<event>
 6    1  0.1885829E-005  0.2171381E+04  0.7818608E-02  0.8530435E-01
         -2   -1    0    0    0  501 -0.00000000000E+00  0.00000000000E+00  0.46882958349E+03  0.46882958349E+03  0.00000000000E+00 0.  1.
          2   -1    0    0  501    0  0.00000000000E+00 -0.00000000000E+00 -0.25141832178E+04  0.25141832178E+04  0.00000000000E+00 0. -1.
         23    2    1    2    0    0  0.87689708833E+03  0.22152001021E+03 -0.18450233093E+04  0.20566479393E+04  0.87579197353E+02 0.  0.
         13    1    3    3    0    0  0.24358217844E+03  0.87078133315E+02 -0.59878892934E+03  0.65227529530E+03  0.00000000000E+00 0.  1.
        -13    1    3    3    0    0  0.63331490989E+03  0.13444187690E+03 -0.12462343800E+04  0.14043726440E+04  0.00000000000E+00 0. -1.
         22    1    1    2    0    0 -0.87689708833E+03 -0.22152001021E+03 -0.20033032499E+03  0.92636486200E+03  0.00000000000E+00 0.  1.
<mgrwt>
<rscale>  0 0.21713806E+04</rscale>
<asrwt>0</asrwt>
<pdfrwt beam="1">  1        2 0.38679743E+00 0.21713806E+04</pdfrwt>
<pdfrwt beam="2">  1       -2 0.72127626E-01 0.21713806E+04</pdfrwt>
<totfact> 0.54485385E+00</totfact>
</mgrwt>
</event>
<event>
 6    1  0.1885829E-005  0.3765378E+04  0.7818608E-02  0.8053626E-01
         -2   -1    0    0    0  501 -0.00000000000E+00  0.00000000000E+00  0.11337117049E+04  0.11337117049E+04  0.00000000000E+00 0.  1.
          2   -1    0    0  501    0  0.00000000000E+00 -0.00000000000E+00 -0.31264718383E+04  0.31264718383E+04  0.00000000000E+00 0. -1.
         23    2    1    2    0    0 -0.15112561427E+04 -0.17376051831E+03  0.25557986631E+03  0.15455711214E+04  0.96856475065E+02 0.  0.
         11    1    3    3    0    0 -0.12908005389E+04 -0.12714424610E+03  0.18998541173E+03  0.13108875418E+04  0.00000000000E+00 0.  1.
        -11    1    3    3    0    0 -0.22045560373E+03 -0.46616272209E+02  0.65594454570E+02  0.23468357957E+03  0.00000000000E+00 0. -1.
         22    1    1    2    0    0  0.15112561427E+04  0.17376051831E+03 -0.22483399997E+04  0.27146124218E+04  0.00000000000E+00 0. -1.
<mgrwt>
<rscale>  0 0.37653779E+04</rscale>
<asrwt>0</asrwt>
<pdfrwt beam="1">  1        2 0.48099567E+00 0.37653779E+04</pdfrwt>
<pdfrwt beam="2">  1       -2 0.17441718E+00 0.37653779E+04</pdfrwt>
<totfact> 0.23059298E-01</totfact>
</mgrwt>
</event>
<event>
 6    1  0.1885829E-005  0.2979663E+04  0.7818608E-02  0.8249562E-01
          2   -1    0    0  501    0  0.00000000000E+00  0.00000000000E+00  0.58959889334E+04  0.58959889334E+04  0.00000000000E+00 0. -1.
         -2   -1    0    0    0  501 -0.00000000000E+00 -0.00000000000E+00 -0.37645884113E+03  0.37645884113E+03  0.00000000000E+00 0.  1.
         23    2    1    2    0    0  0.81153937802E+03  0.19715068131E+03  0.53559481523E+04  0.54214344936E+04  0.91141680304E+02 0.  0.
         13    1    3    3    0    0  0.52433132258E+03  0.17185693392E+03  0.35088610346E+04  0.35519802789E+04  0.00000000000E+00 0. -1.
        -13    1    3    3    0    0  0.28720805544E+03  0.25293747385E+02  0.18470871177E+04  0.18694542148E+04  0.00000000000E+00 0.  1.
         22    1    1    2    0    0 -0.81153937802E+03 -0.19715068131E+03  0.16358194006E+03  0.85101328094E+03  0.00000000000E+00 0.  1.
<mgrwt>
<rscale>  0 0.29796625E+04</rscale>
<asrwt>0</asrwt>
<pdfrwt beam="1">  1        2 0.90707515E+00 0.29796625E+04</pdfrwt>
<pdfrwt beam="2">  1       -2 0.57916749E-01 0.29796625E+04</pdfrwt>
<totfact> 0.17365116E-03</totfact>
</mgrwt>
</event>
<event>
 6    1  0.1885829E-005  0.2503827E+04  0.7818608E-02  0.8401623E-01
         -2   -1    0    0    0  501 -0.00000000000E+00  0.00000000000E+00  0.64746160479E+03  0.64746160479E+03  0.00000000000E+00 0.  1.
          2   -1    0    0  501    0  0.00000000000E+00 -0.00000000000E+00 -0.24206649816E+04  0.24206649816E+04  0.00000000000E+00 0. -1.
         23    2    1    2    0    0  0.98142919713E+03  0.68884508688E+03 -0.13239058170E+04  0.17876660755E+04  0.72887328461E+02 0.  0.
         13    1    3    3    0    0  0.36846188965E+03  0.29184768124E+03 -0.48452444284E+03  0.67505790039E+03  0.00000000000E+00 0. -1.
        -13    1    3    3    0    0  0.61296730748E+03  0.39699740564E+03 -0.83938137412E+03  0.11126081751E+04  0.00000000000E+00 0.  1.
         22    1    1    2    0    0 -0.98142919713E+03 -0.68884508688E+03 -0.44929755988E+03  0.12804605109E+04  0.00000000000E+00 0.  1.
<mgrwt>
<rscale>  0 0.25038272E+04</rscale>
<asrwt>0</asrwt>
<pdfrwt beam="1">  1        2 0.37241000E+00 0.25038272E+04</pdfrwt>
<pdfrwt beam="2">  1       -2 0.99609478E-01 0.25038272E+04</pdfrwt>
<totfact> 0.28749680E+00</totfact>
</mgrwt>
</event>
<event>
 6    1  0.1885829E-005  0.1840207E+04  0.7818608E-02  0.8685205E-01
          2   -1    0    0  501    0  0.00000000000E+00  0.00000000000E+00  0.16130090896E+04  0.16130090896E+04  0.00000000000E+00 0. -1.
         -2   -1    0    0    0  501 -0.00000000000E+00 -0.00000000000E+00 -0.52485143856E+03  0.52485143856E+03  0.00000000000E+00 0.  1.
         23    2    1    2    0    0 -0.57899034236E+03  0.65260012524E+03  0.21426599851E+03  0.90303124425E+03  0.91862777858E+02 0.  0.
         13    1    3    3    0    0 -0.13479868261E+03  0.12319553864E+03  0.12171716511E+02  0.18301905983E+03  0.00000000000E+00 0.  1.
        -13    1    3    3    0    0 -0.44419165975E+03  0.52940458660E+03  0.20209428200E+03  0.72001218442E+03  0.00000000000E+00 0. -1.
         22    1    1    2    0    0  0.57899034236E+03 -0.65260012524E+03  0.87389165249E+03  0.12348292839E+04  0.00000000000E+00 0.  1.
<mgrwt>
<rscale>  0 0.18402067E+04</rscale>
<asrwt>0</asrwt>
<pdfrwt beam="1">  1        2 0.24815524E+00 0.18402067E+04</pdfrwt>
<pdfrwt beam="2">  1       -2 0.80746376E-01 0.18402067E+04</pdfrwt>
<totfact> 0.13969143E+01</totfact>
</mgrwt>
</event>
<event>
 6    1  0.1885829E-005  0.3871101E+04  0.7818608E-02  0.8031067E-01
         -1   -1    0    0    0  501 -0.00000000000E+00  0.00000000000E+00  0.25191528763E+04  0.25191528763E+04  0.00000000000E+00 0.  1.
          1   -1    0    0  501    0  0.00000000000E+00 -0.00000000000E+00 -0.14871493121E+04  0.14871493121E+04  0.00000000000E+00 0. -1.
         23    2    1    2    0    0 -0.41767591053E+02  0.14963416506E+04 -0.75168155034E+03  0.16777156097E+04  0.94454471166E+02 0.  0.
         13    1    3    3    0    0  0.15206091435E+02  0.10009288263E+04 -0.48949429997E+03  0.11143134255E+04  0.00000000000E+00 0. -1.
        -13    1    3    3    0    0 -0.56973682488E+02  0.49541282432E+03 -0.26218725037E+03  0.56340218428E+03  0.00000000000E+00 0.  1.
         22    1    1    2    0    0  0.41767591053E+02 -0.14963416506E+04  0.17836851145E+04  0.23285865787E+04  0.00000000000E+00 0.  1.
<mgrwt>
<rscale>  0 0.38711014E+04</rscale>
<asrwt>0</asrwt>
<pdfrwt beam="1">  1        1 0.22879220E+00 0.38711014E+04</pdfrwt>
<pdfrwt beam="2">  1       -1 0.38756198E+00 0.38711014E+04</pdfrwt>
<totfact> 0.45893855E-02</totfact>
</mgrwt>
</event>
<event>
 6    1  0.1885829E-005  0.9481484E+03  0.7818608E-02  0.9367317E-01
          2   -1    0    0  501    0  0.00000000000E+00  0.00000000000E+00  0.88465280359E+03  0.88465280359E+03  0.00000000000E+00 0. -1.
         -2   -1    0    0    0  501 -0.00000000000E+00 -0.00000000000E+00 -0.25405033521E+03  0.25405033521E+03  0.00000000000E+00 0.  1.
         23    2    1    2    0    0  0.28647488203E+02  0.34673558986E+03  0.69695183675E+03  0.78451606035E+03  0.93152232073E+02 0.  0.
         11    1    3    3    0    0  0.77581547424E+01  0.29101203512E+03  0.49791812625E+03  0.57677608654E+03  0.00000000000E+00 0.  1.
        -11    1    3    3    0    0  0.20889333460E+02  0.55723554743E+02  0.19903371050E+03  0.20773997382E+03  0.00000000000E+00 0. -1.
         22    1    1    2    0    0 -0.28647488203E+02 -0.34673558986E+03 -0.66349368370E+02  0.35418707845E+03  0.00000000000E+00 0.  1.
<mgrwt>
<rscale>  0 0.94814839E+03</rscale>
<asrwt>0</asrwt>
<pdfrwt beam="1">  1        2 0.13610043E+00 0.94814839E+03</pdfrwt>
<pdfrwt beam="2">  1       -2 0.39084667E-01 0.94814839E+03</pdfrwt>
<totfact> 0.18586685E+02</totfact>
</mgrwt>
</event>
<event>
 6    1  0.1885829E-005  0.3144465E+04  0.7818608E-02  0.8203640E-01
         -2   -1    0    0    0  501 -0.00000000000E+00  0.00000000000E+00  0.50237860514E+03  0.50237860514E+03  0.00000000000E+00 0.  1.
          2   -1    0    0  501    0  0.00000000000E+00 -0.00000000000E+00 -0.49204230624E+04  0.49204230624E+04  0.00000000000E+00 0. -1.
         23    2    1    2    0    0 -0.76593996562E+03  0.92496995184E+03 -0.46458815216E+03  0.12909679101E+04  0.92317663765E+02 0.  0.
         13    1    3    3    0    0 -0.18998956926E+03  0.27521189201E+03 -0.98082659984E+02  0.34850800582E+03  0.00000000000E+00 0.  1.
        -13    1    3    3    0    0 -0.57595039637E+03  0.64975805983E+03 -0.36650549217E+03  0.94245990428E+03  0.00000000000E+00 0. -1.
         22    1    1    2    0    0  0.76593996562E+03 -0.92496995184E+03 -0.39534563051E+04  0.41318337574E+04  0.00000000000E+00 0. -1.
<mgrwt>
<rscale>  0 0.31444652E+04</rscale>
<asrwt>0</asrwt>
<pdfrwt beam="1">  1        2 0.75698814E+00 0.31444652E+04</pdfrwt>
<pdfrwt beam="2">  1       -2 0.77289018E-01 0.31444652E+04</pdfrwt>
<totfact> 0.54237311E-02</totfact>
</mgrwt>
</event>
<event>
 6    1  0.1885829E-005  0.2455985E+04  0.7818608E-02  0.8418836E-01
          2   -1    0    0  501    0  0.00000000000E+00  0.00000000000E+00  0.17000626023E+04  0.17000626023E+04  0.00000000000E+00 0. -1.
         -2   -1    0    0    0  501 -0.00000000000E+00 -0.00000000000E+00 -0.88700566805E+03  0.88700566805E+03  0.00000000000E+00 0.  1.
         23    2    1    2    0    0  0.11113893352E+04 -0.32406978743E+03  0.83308088140E+03  0.14292218039E+04  0.91889761991E+02 0.  0.
         11    1    3    3    0    0  0.23873022949E+03 -0.65439380751E+02  0.22577359314E+03  0.33503455103E+03  0.00000000000E+00 0. -1.
        -11    1    3    3    0    0  0.87265910567E+03 -0.25863040668E+03  0.60730728826E+03  0.10941872529E+04  0.00000000000E+00 0.  1.
         22    1    1    2    0    0 -0.11113893352E+04  0.32406978743E+03 -0.20023947142E+02  0.11578464665E+04  0.00000000000E+00 0. -1.
<mgrwt>
<rscale>  0 0.24559847E+04</rscale>
<asrwt>0</asrwt>
<pdfrwt beam="1">  1        2 0.26154809E+00 0.24559847E+04</pdfrwt>
<pdfrwt beam="2">  1       -2 0.13646241E+00 0.24559847E+04</pdfrwt>
<totfact> 0.33691114E+00</totfact>
</mgrwt>
</event>
<event>
 6    1  0.1885829E-005  0.4161728E+04  0.7818608E-02  0.7972693E-01
          2   -1    0    0  501    0  0.00000000000E+00  0.00000000000E+00  0.34199875905E+04  0.34199875905E+04  0.00000000000E+00 0. -1.
         -2   -1    0    0    0  501 -0.00000000000E+00 -0.00000000000E+00 -0.12660848823E+04  0.12660848823E+04  0.00000000000E+00 0.  1.
         23    2    1    2    0    0 -0.11564109836E+04  0.17000056562E+04  0.14308321968E+04  0.25065916726E+04  0.91735727014E+02 0.  0.
         13    1    3    3    0    0 -0.68249325802E+03  0.10086535818E+04  0.90204496056E+03  0.15155408956E+04  0.00000000000E+00 0. -1.
        -13    1    3    3    0    0 -0.47391772558E+03  0.69135207440E+03  0.52878723624E+03  0.99105077701E+03  0.00000000000E+00 0.  1.
         22    1    1    2    0    0  0.11564109836E+04 -0.17000056562E+04  0.72307051142E+03  0.21794808002E+04  0.00000000000E+00 0. -1.
<mgrwt>
<rscale>  0 0.41617278E+04</rscale>
<asrwt>0</asrwt>
<pdfrwt beam="1">  1        2 0.52615193E+00 0.41617278E+04</pdfrwt>
<pdfrwt beam="2">  1       -2 0.19478229E+00 0.41617278E+04</pdfrwt>
<totfact> 0.10341753E-01</totfact>
</mgrwt>
</event>
<event>
 6    1  0.1885829E-005  0.1491726E+04  0.7818608E-02  0.8889974E-01
          2   -1    0    0  501    0  0.00000000000E+00  0.00000000000E+00  0.91489392085E+03  0.91489392085E+03  0.00000000000E+00 0.  1.
         -2   -1    0    0    0  501 -0.00000000000E+00 -0.00000000000E+00 -0.60806093085E+03  0.60806093085E+03  0.00000000000E+00 0. -1.
         23    2    1    2    0    0 -0.33706021461E+03 -0.25105917078E+03 -0.47149766481E+03  0.63839908538E+03  0.92752621416E+02 0.  0.
         13    1    3    3    0    0 -0.21137413041E+03 -0.20893250602E+03 -0.30979612702E+03  0.42930811242E+03  0.00000000000E+00 0. -1.
        -13    1    3    3    0    0 -0.12568608420E+03 -0.42126664768E+02 -0.16170153779E+03  0.20909097295E+03  0.00000000000E+00 0.  1.
         22    1    1    2    0    0  0.33706021461E+03  0.25105917078E+03  0.77833065481E+03  0.88455576632E+03  0.00000000000E+00 0.  1.
<mgrwt>
<rscale>  0 0.14917255E+04</rscale>
<asrwt>0</asrwt>
<pdfrwt beam="1">  1        2 0.14075291E+00 0.14917255E+04</pdfrwt>
<pdfrwt beam="2">  1       -2 0.93547835E-01 0.14917255E+04</pdfrwt>
<totfact> 0.26768121E+01</totfact>
</mgrwt>
</event>
<event>
 6    1  0.1885829E-005  0.3511888E+04  0.7818608E-02  0.8110978E-01
          2   -1    0    0  501    0  0.00000000000E+00  0.00000000000E+00  0.26758527790E+04  0.26758527790E+04  0.00000000000E+00 0. -1.
         -2   -1    0    0    0  501 -0.00000000000E+00 -0.00000000000E+00 -0.11522826935E+04  0.11522826935E+04  0.00000000000E+00 0.  1.
         23    2    1    2    0    0 -0.80644525883E+03  0.10510169893E+04  0.20167400387E+04  0.24145558780E+04  0.88594789596E+02 0.  0.
         11    1    3    3    0    0 -0.59444865302E+03  0.75216177855E+03  0.13896945489E+04  0.16883031367E+04  0.00000000000E+00 0. -1.
        -11    1    3    3    0    0 -0.21199660580E+03  0.29885521074E+03  0.62704548988E+03  0.72625274129E+03  0.00000000000E+00 0.  1.
         22    1    1    2    0    0  0.80644525883E+03 -0.10510169893E+04 -0.49316995319E+03  0.14135795945E+04  0.00000000000E+00 0.  1.
<mgrwt>
<rscale>  0 0.35118877E+04</rscale>
<asrwt>0</asrwt>
<pdfrwt beam="1">  1        2 0.41166966E+00 0.35118877E+04</pdfrwt>
<pdfrwt beam="2">  1       -2 0.17727426E+00 0.35118877E+04</pdfrwt>
<totfact> 0.42667020E-01</totfact>
</mgrwt>
</event>
<event>
 6    1  0.1885829E-005  0.1756391E+04  0.7818608E-02  0.8729840E-01
          2   -1    0    0  501    0  0.00000000000E+00  0.00000000000E+00  0.83140048332E+03  0.83140048332E+03  0.00000000000E+00 0.  1.
         -2   -1    0    0    0  501 -0.00000000000E+00 -0.00000000000E+00 -0.92762405114E+03  0.92762405114E+03  0.00000000000E+00 0. -1.
         23    2    1    2    0    0 -0.54572838843E+03 -0.53439099334E+03 -0.47775191246E+03  0.90523469764E+03  0.88372847987E+02 0.  0.
         13    1    3    3    0    0 -0.12758936646E+03 -0.10505584084E+03 -0.65263172567E+02  0.17769371914E+03  0.00000000000E+00 0.  1.
        -13    1    3    3    0    0 -0.41813902197E+03 -0.42933515250E+03 -0.41248873989E+03  0.72754097850E+03  0.00000000000E+00 0. -1.
         22    1    1    2    0    0  0.54572838843E+03  0.53439099334E+03  0.38152834464E+03  0.85378983682E+03  0.00000000000E+00 0.  1.
<mgrwt>
<rscale>  0 0.17563907E+04</rscale>
<asrwt>0</asrwt>
<pdfrwt beam="1">  1        2 0.12790777E+00 0.17563907E+04</pdfrwt>
<pdfrwt beam="2">  1       -2 0.14271139E+00 0.17563907E+04</pdfrwt>
<totfact> 0.10583129E+01</totfact>
</mgrwt>
</event>
<event>
 6    1  0.2164892E-005  0.3138759E+04  0.7818608E-02  0.8205181E-01
         -2   -1    0    0    0  501 -0.00000000000E+00  0.00000000000E+00  0.14774029996E+04  0.14774029996E+04  0.00000000000E+00 0.  1.
          2   -1    0    0  501    0  0.00000000000E+00 -0.00000000000E+00 -0.16670819544E+04  0.16670819544E+04  0.00000000000E+00 0. -1.
         23    2    1    2    0    0  0.40195767506E+03 -0.65846837907E+02 -0.16119488669E+04  0.16650399631E+04  0.89850713099E+02 0.  0.
         13    1    3    3    0    0  0.12419646928E+03 -0.59921150634E+02 -0.60040569088E+03  0.61603758077E+03  0.00000000000E+00 0.  1.
        -13    1    3    3    0    0  0.27776120579E+03 -0.59256872734E+01 -0.10115431760E+04  0.10490023823E+04  0.00000000000E+00 0. -1.
         22    1    1    2    0    0 -0.40195767506E+03  0.65846837907E+02  0.14222699120E+04  0.14794449909E+04  0.00000000000E+00 0.  1.
<mgrwt>
<rscale>  0 0.31387589E+04</rscale>
<asrwt>0</asrwt>
<pdfrwt beam="1">  1        2 0.25647415E+00 0.31387589E+04</pdfrwt>
<pdfrwt beam="2">  1       -2 0.22729277E+00 0.31387589E+04</pdfrwt>
<totfact> 0.76977928E-01</totfact>
</mgrwt>
</event>
<event>
 6    1  0.1885829E-005  0.4026704E+04  0.7818608E-02  0.7999181E-01
         -2   -1    0    0    0  501 -0.00000000000E+00  0.00000000000E+00  0.12607397788E+04  0.12607397788E+04  0.00000000000E+00 0.  1.
          2   -1    0    0  501    0  0.00000000000E+00 -0.00000000000E+00 -0.32152448784E+04  0.32152448784E+04  0.00000000000E+00 0. -1.
         23    2    1    2    0    0 -0.83004955125E+03  0.12707958497E+04  0.49074824359E+03  0.15979352723E+04  0.93053461431E+02 0.  0.
         13    1    3    3    0    0 -0.61637198315E+03  0.88053984173E+03  0.37270924043E+03  0.11376190102E+04  0.00000000000E+00 0. -1.
        -13    1    3    3    0    0 -0.21367756810E+03  0.39025600796E+03  0.11803900316E+03  0.46031626207E+03  0.00000000000E+00 0.  1.
         22    1    1    2    0    0  0.83004955125E+03 -0.12707958497E+04 -0.24452533432E+04  0.28780493848E+04  0.00000000000E+00 0. -1.
<mgrwt>
<rscale>  0 0.40267044E+04</rscale>
<asrwt>0</asrwt>
<pdfrwt beam="1">  1        2 0.49465306E+00 0.40267044E+04</pdfrwt>
<pdfrwt beam="2">  1       -2 0.19395997E+00 0.40267044E+04</pdfrwt>
<totfact> 0.14532623E-01</totfact>
</mgrwt>
</event>
<event>
 6    1  0.1885829E-005  0.4419759E+04  0.7818608E-02  0.7924837E-01
         -2   -1    0    0    0  501 -0.00000000000E+00  0.00000000000E+00  0.29369497673E+04  0.29369497673E+04  0.00000000000E+00 0.  1.
          2   -1    0    0  501    0  0.00000000000E+00 -0.00000000000E+00 -0.16628021932E+04  0.16628021932E+04  0.00000000000E+00 0. -1.
         23    2    1    2    0    0 -0.68399745368E+03  0.26342827748E+03 -0.15317517504E+04  0.16996971345E+04  0.73891475744E+02 0.  0.
         13    1    3    3    0    0 -0.71876235959E+02  0.77040749404E+01 -0.12567178490E+03  0.14497911431E+03  0.00000000000E+00 0.  1.
        -13    1    3    3    0    0 -0.61212121772E+03  0.25572420254E+03 -0.14060799655E+04  0.15547180202E+04  0.00000000000E+00 0. -1.
         22    1    1    2    0    0  0.68399745368E+03 -0.26342827748E+03  0.28058993245E+04  0.29000548259E+04  0.00000000000E+00 0.  1.
<mgrwt>
<rscale>  0 0.44197586E+04</rscale>
<asrwt>0</asrwt>
<pdfrwt beam="1">  1        2 0.25581572E+00 0.44197586E+04</pdfrwt>
<pdfrwt beam="2">  1       -2 0.45183842E+00 0.44197586E+04</pdfrwt>
<totfact> 0.26507157E-02</totfact>
</mgrwt>
</event>
<event>
 6    1  0.1885829E-005  0.2310592E+04  0.7818608E-02  0.8473756E-01
          2   -1    0    0  501    0  0.00000000000E+00  0.00000000000E+00  0.15674649304E+04  0.15674649304E+04  0.00000000000E+00 0. -1.
         -2   -1    0    0    0  501 -0.00000000000E+00 -0.00000000000E+00 -0.85150831063E+03  0.85150831063E+03  0.00000000000E+00 0.  1.
         23    2    1    2    0    0 -0.84539201145E+03  0.76881066653E+03  0.19555073025E+03  0.11633539580E+04  0.96927032115E+02 0.  0.
         11    1    3    3    0    0 -0.66434020911E+03  0.58011605124E+03  0.11333590848E+03  0.88922864017E+03  0.00000000000E+00 0.  1.
        -11    1    3    3    0    0 -0.18105180235E+03  0.18869461528E+03  0.82214821775E+02  0.27412531785E+03  0.00000000000E+00 0. -1.
         22    1    1    2    0    0  0.84539201145E+03 -0.76881066653E+03  0.52040588950E+03  0.12556192830E+04  0.00000000000E+00 0. -1.
<mgrwt>
<rscale>  0 0.23105925E+04</rscale>
<asrwt>0</asrwt>
<pdfrwt beam="1">  1        2 0.24114845E+00 0.23105925E+04</pdfrwt>
<pdfrwt beam="2">  1       -2 0.13100128E+00 0.23105925E+04</pdfrwt>
<totfact> 0.44879572E+00</totfact>
</mgrwt>
</event>
<event>
 6    1  0.1885829E-005  0.3567083E+04  0.7818608E-02  0.8098073E-01
          2   -1    0    0  501    0  0.00000000000E+00  0.00000000000E+00  0.22998375548E+04  0.22998375548E+04  0.00000000000E+00 0. -1.
         -2   -1    0    0    0  501 -0.00000000000E+00 -0.00000000000E+00 -0.13831503397E+04  0.13831503397E+04  0.00000000000E+00 0.  1.
         23    2    1    2    0    0 -0.16784829310E+04 -0.44181534990E+03  0.87687609584E+03  0.19468742236E+04  0.94349362470E+02 0.  0.
         11    1    3    3    0    0 -0.12032307053E+04 -0.35950607110E+03  0.64298241194E+03  0.14108278164E+04  0.00000000000E+00 0.  1.
        -11    1    3    3    0    0 -0.47525222566E+03 -0.82309278797E+02  0.23389368390E+03  0.53604640726E+03  0.00000000000E+00 0. -1.
         22    1    1    2    0    0  0.16784829310E+04  0.44181534990E+03  0.39811119183E+02  0.17361136709E+04  0.00000000000E+00 0. -1.
<mgrwt>
<rscale>  0 0.35670835E+04</rscale>
<asrwt>0</asrwt>
<pdfrwt beam="1">  1        2 0.35382116E+00 0.35670835E+04</pdfrwt>
<pdfrwt beam="2">  1       -2 0.21279236E+00 0.35670835E+04</pdfrwt>
<totfact> 0.40715791E-01</totfact>
</mgrwt>
</event>
<event>
 6    1  0.1885829E-005  0.3882161E+04  0.7818608E-02  0.8028750E-01
         -2   -1    0    0    0  501 -0.00000000000E+00  0.00000000000E+00  0.19710807515E+04  0.19710807515E+04  0.00000000000E+00 0.  1.
          2   -1    0    0  501    0  0.00000000000E+00 -0.00000000000E+00 -0.19115367791E+04  0.19115367791E+04  0.00000000000E+00 0. -1.
         23    2    1    2    0    0  0.10184408176E+04  0.67053037239E+03  0.15388806679E+04  0.19655182274E+04  0.90969846282E+02 0.  0.
         11    1    3    3    0    0  0.82228636753E+03  0.50591240729E+03  0.11797225977E+04  0.15244171482E+04  0.00000000000E+00 0. -1.
        -11    1    3    3    0    0  0.19615445011E+03  0.16461796510E+03  0.35915807020E+03  0.44110107926E+03  0.00000000000E+00 0.  1.
         22    1    1    2    0    0 -0.10184408176E+04 -0.67053037239E+03 -0.14793366956E+04  0.19170993032E+04  0.00000000000E+00 0. -1.
<mgrwt>
<rscale>  0 0.38821609E+04</rscale>
<asrwt>0</asrwt>
<pdfrwt beam="1">  1        2 0.29408258E+00 0.38821609E+04</pdfrwt>
<pdfrwt beam="2">  1       -2 0.30324319E+00 0.38821609E+04</pdfrwt>
<totfact> 0.18093046E-01</totfact>
</mgrwt>
</event>
<event>
 6    1  0.1885829E-005  0.5033066E+03  0.7818608E-02  0.1012919E+00
         -3   -1    0    0    0  501 -0.00000000000E+00  0.00000000000E+00  0.11091487448E+04  0.11091487448E+04  0.00000000000E+00 0.  1.
          3   -1    0    0  501    0  0.00000000000E+00 -0.00000000000E+00 -0.57097284169E+02  0.57097284169E+02  0.00000000000E+00 0. -1.
         23    2    1    2    0    0 -0.30238156780E+02  0.24173921428E+03  0.50917638388E+03  0.57121196036E+03  0.87580362585E+02 0.  0.
         11    1    3    3    0    0 -0.31586798006E+02  0.48975924663E+02  0.18594343020E+03  0.19486232638E+03  0.00000000000E+00 0.  1.
        -11    1    3    3    0    0  0.13486412262E+01  0.19276328962E+03  0.32323295368E+03  0.37634963399E+03  0.00000000000E+00 0. -1.
         22    1    1    2    0    0  0.30238156780E+02 -0.24173921428E+03  0.54287507674E+03  0.59503406860E+03  0.00000000000E+00 0. -1.
<mgrwt>
<rscale>  0 0.50330659E+03</rscale>
<asrwt>0</asrwt>
<pdfrwt beam="1">  1        3 0.87841984E-02 0.50330659E+03</pdfrwt>
<pdfrwt beam="2">  1       -3 0.17063825E+00 0.50330659E+03</pdfrwt>
<totfact> 0.57816358E+01</totfact>
</mgrwt>
</event>
<event>
 6    1  0.1885829E-005  0.3700670E+04  0.7818608E-02  0.8067813E-01
         -2   -1    0    0    0  501 -0.00000000000E+00  0.00000000000E+00  0.28875532354E+04  0.28875532354E+04  0.00000000000E+00 0. -1.
          2   -1    0    0  501    0  0.00000000000E+00 -0.00000000000E+00 -0.11856885193E+04  0.11856885193E+04  0.00000000000E+00 0.  1.
         23    2    1    2    0    0 -0.94535409867E+03 -0.68847466496E+03 -0.72520164696E+03  0.13791105652E+04  0.91306002158E+02 0.  0.
         11    1    3    3    0    0 -0.54727071066E+03 -0.43000187641E+03 -0.38746522980E+03  0.79657777321E+03  0.00000000000E+00 0. -1.
        -11    1    3    3    0    0 -0.39808338801E+03 -0.25847278855E+03 -0.33773641716E+03  0.58253279196E+03  0.00000000000E+00 0.  1.
         22    1    1    2    0    0  0.94535409867E+03  0.68847466496E+03  0.24270663631E+04  0.26941311896E+04  0.00000000000E+00 0. -1.
<mgrwt>
<rscale>  0 0.37006695E+04</rscale>
<asrwt>0</asrwt>
<pdfrwt beam="1">  1        2 0.18241362E+00 0.37006695E+04</pdfrwt>
<pdfrwt beam="2">  1       -2 0.44423896E+00 0.37006695E+04</pdfrwt>
<totfact> 0.59131052E-02</totfact>
</mgrwt>
</event>
<event>
 6    1  0.2559104E-005  0.2635128E+04  0.7818608E-02  0.8356366E-01
          2   -1    0    0  501    0  0.00000000000E+00  0.00000000000E+00  0.15396435617E+04  0.15396435617E+04  0.00000000000E+00 0. -1.
         -2   -1    0    0    0  501 -0.00000000000E+00 -0.00000000000E+00 -0.11275176931E+04  0.11275176931E+04  0.00000000000E+00 0.  1.
         23    2    1    2    0    0 -0.10185215727E+04  0.36268122392E+03  0.96665893384E+03  0.14520765727E+04  0.71923670678E+02 0.  0.
         13    1    3    3    0    0 -0.41134473264E+03  0.17594329130E+03  0.37013922827E+03  0.58065788475E+03  0.00000000000E+00 0. -1.
        -13    1    3    3    0    0 -0.60717684005E+03  0.18673793262E+03  0.59651970557E+03  0.87141868795E+03  0.00000000000E+00 0.  1.
         22    1    1    2    0    0  0.10185215727E+04 -0.36268122392E+03 -0.55453306528E+03  0.12150846821E+04  0.00000000000E+00 0.  1.
<mgrwt>
<rscale>  0 0.26351284E+04</rscale>
<asrwt>0</asrwt>
<pdfrwt beam="1">  1        2 0.23686824E+00 0.26351284E+04</pdfrwt>
<pdfrwt beam="2">  1       -2 0.17346426E+00 0.26351284E+04</pdfrwt>
<totfact> 0.21423974E+00</totfact>
</mgrwt>
</event>
<event>
 6    1  0.1885829E-005  0.2733268E+04  0.7818608E-02  0.8324291E-01
          2   -1    0    0  501    0  0.00000000000E+00  0.00000000000E+00  0.28219947402E+04  0.28219947402E+04  0.00000000000E+00 0. -1.
         -2   -1    0    0    0  501 -0.00000000000E+00 -0.00000000000E+00 -0.66183295274E+03  0.66183295274E+03  0.00000000000E+00 0.  1.
         23    2    1    2    0    0 -0.67286831360E+03  0.11457454955E+03  0.25881601045E+04  0.26781840656E+04  0.90653559711E+02 0.  0.
         11    1    3    3    0    0 -0.30053869930E+03  0.70055307294E+01  0.11743060172E+04  0.12121745788E+04  0.00000000000E+00 0. -1.
        -11    1    3    3    0    0 -0.37232961430E+03  0.10756901882E+03  0.14138540873E+04  0.14660094869E+04  0.00000000000E+00 0.  1.
         22    1    1    2    0    0  0.67286831360E+03 -0.11457454955E+03 -0.42799831705E+03  0.80564362732E+03  0.00000000000E+00 0.  1.
<mgrwt>
<rscale>  0 0.27332685E+04</rscale>
<asrwt>0</asrwt>
<pdfrwt beam="1">  1        2 0.43415303E+00 0.27332685E+04</pdfrwt>
<pdfrwt beam="2">  1       -2 0.10182046E+00 0.27332685E+04</pdfrwt>
<totfact> 0.15518949E+00</totfact>
</mgrwt>
</event>
<event>
 6    1  0.1885829E-005  0.6932136E+03  0.7818608E-02  0.9728909E-01
         -2   -1    0    0    0  501 -0.00000000000E+00  0.00000000000E+00  0.24754680864E+03  0.24754680864E+03  0.00000000000E+00 0. -1.
          2   -1    0    0  501    0  0.00000000000E+00 -0.00000000000E+00 -0.48530725367E+03  0.48530725367E+03  0.00000000000E+00 0.  1.
         23    2    1    2    0    0 -0.53655494966E+02  0.15682212228E+03  0.19351075343E+03  0.27082923961E+03  0.91814896184E+02 0.  0.
         13    1    3    3    0    0  0.78808769297E+01  0.11175464225E+03  0.12966777808E+03  0.17136201726E+03  0.00000000000E+00 0.  1.
        -13    1    3    3    0    0 -0.61536371895E+02  0.45067480027E+02  0.63842975344E+02  0.99467222354E+02  0.00000000000E+00 0. -1.
         22    1    1    2    0    0  0.53655494966E+02 -0.15682212228E+03 -0.43127119845E+03  0.46202482270E+03  0.00000000000E+00 0.  1.
<mgrwt>
<rscale>  0 0.69321357E+03</rscale>
<asrwt>0</asrwt>
<pdfrwt beam="1">  1        2 0.74662655E-01 0.69321357E+03</pdfrwt>
<pdfrwt beam="2">  1       -2 0.38084124E-01 0.69321357E+03</pdfrwt>
<totfact> 0.41814580E+02</totfact>
</mgrwt>
</event>
<event>
 6    1  0.1885829E-005  0.2484091E+04  0.7818608E-02  0.8408675E-01
          2   -1    0    0  501    0  0.00000000000E+00  0.00000000000E+00  0.13995585462E+04  0.13995585462E+04  0.00000000000E+00 0. -1.
         -2   -1    0    0    0  501 -0.00000000000E+00 -0.00000000000E+00 -0.11022597114E+04  0.11022597114E+04  0.00000000000E+00 0.  1.
         23    2    1    2    0    0 -0.68971477202E+02  0.11640979114E+04  0.57454545336E+03  0.13031745659E+04  0.90997028163E+02 0.  0.
         13    1    3    3    0    0 -0.27273062866E+01  0.36220483892E+03  0.13684052455E+03  0.38720164346E+03  0.00000000000E+00 0.  1.
        -13    1    3    3    0    0 -0.66244170916E+02  0.80189307250E+03  0.43770492881E+03  0.91597292242E+03  0.00000000000E+00 0. -1.
         22    1    1    2    0    0  0.68971477202E+02 -0.11640979114E+04 -0.27724661859E+03  0.11986436917E+04  0.00000000000E+00 0. -1.
<mgrwt>
<rscale>  0 0.24840910E+04</rscale>
<asrwt>0</asrwt>
<pdfrwt beam="1">  1        2 0.21531670E+00 0.24840910E+04</pdfrwt>
<pdfrwt beam="2">  1       -2 0.16957842E+00 0.24840910E+04</pdfrwt>
<totfact> 0.27753990E+00</totfact>
</mgrwt>
</event>
<event>
 6    1  0.1885829E-005  0.5773932E+03  0.7818608E-02  0.9953451E-01
         -2   -1    0    0    0  501 -0.00000000000E+00  0.00000000000E+00  0.28462326196E+03  0.28462326196E+03  0.00000000000E+00 0.  1.
          2   -1    0    0  501    0  0.00000000000E+00 -0.00000000000E+00 -0.29282823295E+03  0.29282823295E+03  0.00000000000E+00 0. -1.
         23    2    1    2    0    0  0.14749329878E+03  0.15047375218E+03 -0.19079834597E+03  0.29863800193E+03  0.91564316688E+02 0.  0.
         11    1    3    3    0    0  0.24850991873E+02  0.81414667407E+02 -0.99163624098E+02  0.13068796506E+03  0.00000000000E+00 0. -1.
        -11    1    3    3    0    0  0.12264230690E+03  0.69059084769E+02 -0.91634721875E+02  0.16795003687E+03  0.00000000000E+00 0.  1.
         22    1    1    2    0    0 -0.14749329878E+03 -0.15047375218E+03  0.18259337499E+03  0.27881349298E+03  0.00000000000E+00 0.  1.
<mgrwt>
<rscale>  0 0.57739320E+03</rscale>
<asrwt>0</asrwt>
<pdfrwt beam="1">  1        2 0.45050497E-01 0.57739320E+03</pdfrwt>
<pdfrwt beam="2">  1       -2 0.43788194E-01 0.57739320E+03</pdfrwt>
<totfact> 0.56207574E+02</totfact>
</mgrwt>
</event>
<event>
 6    1  0.1885829E-005  0.1659691E+04  0.7818608E-02  0.8784694E-01
         -2   -1    0    0    0  501 -0.00000000000E+00  0.00000000000E+00  0.38928841144E+03  0.38928841144E+03  0.00000000000E+00 0.  1.
          2   -1    0    0  501    0  0.00000000000E+00 -0.00000000000E+00 -0.17689806530E+04  0.17689806530E+04  0.00000000000E+00 0. -1.
         23    2    1    2    0    0  0.26945249217E+03 -0.36611160228E+03 -0.15908729057E+04  0.16570309735E+04  0.90734194926E+02 0.  0.
         13    1    3    3    0    0  0.43571713451E+02 -0.11769000637E+03 -0.50968795036E+03  0.52491069579E+03  0.00000000000E+00 0. -1.
        -13    1    3    3    0    0  0.22588077872E+03 -0.24842159591E+03 -0.10811849554E+04  0.11321202777E+04  0.00000000000E+00 0.  1.
         22    1    1    2    0    0 -0.26945249217E+03  0.36611160228E+03  0.21118066419E+03  0.50123809092E+03  0.00000000000E+00 0.  1.
<mgrwt>
<rscale>  0 0.16596911E+04</rscale>
<asrwt>0</asrwt>
<pdfrwt beam="1">  1        2 0.27215087E+00 0.16596911E+04</pdfrwt>
<pdfrwt beam="2">  1       -2 0.59890525E-01 0.16596911E+04</pdfrwt>
<totfact> 0.22279191E+01</totfact>
</mgrwt>
</event>
<event>
 6    1  0.1885829E-005  0.2543225E+04  0.7818608E-02  0.8387746E-01
         -1   -1    0    0    0  501 -0.00000000000E+00  0.00000000000E+00  0.54421343521E+03  0.54421343521E+03  0.00000000000E+00 0. -1.
          1   -1    0    0  501    0  0.00000000000E+00 -0.00000000000E+00 -0.29712584095E+04  0.29712584095E+04  0.00000000000E+00 0.  1.
         23    2    1    2    0    0  0.19608738852E+03  0.66194596546E+03 -0.26884396364E+04  0.27772646282E+04  0.94172241655E+02 0.  0.
         13    1    3    3    0    0  0.17443387325E+03  0.57056962097E+03 -0.24336833910E+04  0.25057517267E+04  0.00000000000E+00 0.  1.
        -13    1    3    3    0    0  0.21653515263E+02  0.91376344496E+02 -0.25475624548E+03  0.27151290148E+03  0.00000000000E+00 0. -1.
         22    1    1    2    0    0 -0.19608738852E+03 -0.66194596546E+03  0.26139466214E+03  0.73820721652E+03  0.00000000000E+00 0. -1.
<mgrwt>
<rscale>  0 0.25432253E+04</rscale>
<asrwt>0</asrwt>
<pdfrwt beam="1">  1        1 0.45711667E+00 0.25432253E+04</pdfrwt>
<pdfrwt beam="2">  1       -1 0.83725145E-01 0.25432253E+04</pdfrwt>
<totfact> 0.78530586E-01</totfact>
</mgrwt>
</event>
<event>
 6    1  0.1885829E-005  0.1992262E+04  0.7818608E-02  0.8610247E-01
         -2   -1    0    0    0  501 -0.00000000000E+00  0.00000000000E+00  0.78510296863E+03  0.78510296863E+03  0.00000000000E+00 0.  1.
          2   -1    0    0  501    0  0.00000000000E+00 -0.00000000000E+00 -0.12638814840E+04  0.12638814840E+04  0.00000000000E+00 0. -1.
         23    2    1    2    0    0  0.22424493253E+03  0.59570151022E+03 -0.10250885818E+04  0.12101753160E+04  0.92583020973E+02 0.  0.
         13    1    3    3    0    0  0.16638009473E+03  0.48023784455E+03 -0.74631623030E+03  0.90293888988E+03  0.00000000000E+00 0.  1.
        -13    1    3    3    0    0  0.57864837798E+02  0.11546366567E+03 -0.27877235152E+03  0.30723642609E+03  0.00000000000E+00 0. -1.
         22    1    1    2    0    0 -0.22424493253E+03 -0.59570151022E+03  0.54631006645E+03  0.83880913666E+03  0.00000000000E+00 0.  1.
<mgrwt>
<rscale>  0 0.19922621E+04</rscale>
<asrwt>0</asrwt>
<pdfrwt beam="1">  1        2 0.19444330E+00 0.19922621E+04</pdfrwt>
<pdfrwt beam="2">  1       -2 0.12078507E+00 0.19922621E+04</pdfrwt>
<totfact> 0.84318077E+00</totfact>
</mgrwt>
</event>
<event>
 6    1  0.1885829E-005  0.3584825E+04  0.7818608E-02  0.8093976E-01
          2   -1    0    0  501    0  0.00000000000E+00  0.00000000000E+00  0.24495587993E+04  0.24495587993E+04  0.00000000000E+00 0.  1.
         -2   -1    0    0    0  501 -0.00000000000E+00 -0.00000000000E+00 -0.13115599797E+04  0.13115599797E+04  0.00000000000E+00 0. -1.
         23    2    1    2    0    0  0.13893625769E+04  0.99930557571E+03  0.11247774599E+04  0.20496530890E+04  0.83746327712E+02 0.  0.
         13    1    3    3    0    0  0.68253799465E+03  0.45514006712E+03  0.50286587456E+03  0.96222901777E+03  0.00000000000E+00 0. -1.
        -13    1    3    3    0    0  0.70682458221E+03  0.54416550859E+03  0.62191158537E+03  0.10874240713E+04  0.00000000000E+00 0.  1.
         22    1    1    2    0    0 -0.13893625769E+04 -0.99930557571E+03  0.13221359595E+02  0.17114656900E+04  0.00000000000E+00 0. -1.
<mgrwt>
<rscale>  0 0.35848254E+04</rscale>
<asrwt>0</asrwt>
<pdfrwt beam="1">  1        2 0.37685520E+00 0.35848254E+04</pdfrwt>
<pdfrwt beam="2">  1       -2 0.20177846E+00 0.35848254E+04</pdfrwt>
<totfact> 0.39333770E-01</totfact>
</mgrwt>
</event>
<event>
 6    1  0.1885829E-005  0.3364862E+04  0.7818608E-02  0.8146585E-01
         -2   -1    0    0    0  501 -0.00000000000E+00  0.00000000000E+00  0.13974933589E+04  0.13974933589E+04  0.00000000000E+00 0. -1.
          2   -1    0    0  501    0  0.00000000000E+00 -0.00000000000E+00 -0.20254649864E+04  0.20254649864E+04  0.00000000000E+00 0.  1.
         23    2    1    2    0    0  0.10957350341E+03  0.16762581648E+04 -0.38829907881E+03  0.17261110575E+04  0.82676603882E+02 0.  0.
         11    1    3    3    0    0  0.45180961368E+02  0.30748763584E+03 -0.51291325044E+02  0.31499327848E+03  0.00000000000E+00 0.  1.
        -11    1    3    3    0    0  0.64392542038E+02  0.13687705289E+04 -0.33700775376E+03  0.14111177791E+04  0.00000000000E+00 0. -1.
         22    1    1    2    0    0 -0.10957350341E+03 -0.16762581648E+04 -0.23967254870E+03  0.16968472878E+04  0.00000000000E+00 0. -1.
<mgrwt>
<rscale>  0 0.33648619E+04</rscale>
<asrwt>0</asrwt>
<pdfrwt beam="1">  1        2 0.31161000E+00 0.33648619E+04</pdfrwt>
<pdfrwt beam="2">  1       -2 0.21499898E+00 0.33648619E+04</pdfrwt>
<totfact> 0.57141663E-01</totfact>
</mgrwt>
</event>
<event>
 6    1  0.1885829E-005  0.1964578E+04  0.7818608E-02  0.8623363E-01
         -2   -1    0    0    0  501 -0.00000000000E+00  0.00000000000E+00  0.56658251768E+03  0.56658251768E+03  0.00000000000E+00 0.  1.
          2   -1    0    0  501    0  0.00000000000E+00 -0.00000000000E+00 -0.17030035210E+04  0.17030035210E+04  0.00000000000E+00 0. -1.
         23    2    1    2    0    0  0.16508447630E+03 -0.46743344072E+03 -0.15463102470E+04  0.16263472822E+04  0.90461021467E+02 0.  0.
         13    1    3    3    0    0  0.88201957634E+02 -0.36223504833E+03 -0.11045698055E+04  0.11657908349E+04  0.00000000000E+00 0. -1.
        -13    1    3    3    0    0  0.76882518665E+02 -0.10519839239E+03 -0.44174044151E+03  0.46055644725E+03  0.00000000000E+00 0.  1.
         22    1    1    2    0    0 -0.16508447630E+03  0.46743344072E+03  0.40988924367E+03  0.64323875653E+03  0.00000000000E+00 0.  1.
<mgrwt>
<rscale>  0 0.19645783E+04</rscale>
<asrwt>0</asrwt>
<pdfrwt beam="1">  1        2 0.26200054E+00 0.19645783E+04</pdfrwt>
<pdfrwt beam="2">  1       -2 0.87166541E-01 0.19645783E+04</pdfrwt>
<totfact> 0.10353817E+01</totfact>
</mgrwt>
</event>
<event>
 6    1  0.1885829E-005  0.4204298E+04  0.7818608E-02  0.7964555E-01
         -1   -1    0    0    0  501 -0.00000000000E+00  0.00000000000E+00  0.12090154606E+04  0.12090154606E+04  0.00000000000E+00 0.  1.
          1   -1    0    0  501    0  0.00000000000E+00 -0.00000000000E+00 -0.36550645263E+04  0.36550645263E+04  0.00000000000E+00 0. -1.
         23    2    1    2    0    0 -0.47670259088E+03 -0.90261485958E+03  0.90120718668E+03  0.13646395511E+04  0.90043134900E+02 0.  0.
         11    1    3    3    0    0 -0.36467517384E+03 -0.74668703678E+03  0.76224329843E+03  0.11276277574E+04  0.00000000000E+00 0. -1.
        -11    1    3    3    0    0 -0.11202741704E+03 -0.15592782280E+03  0.13896388826E+03  0.23701179365E+03  0.00000000000E+00 0.  1.
         22    1    1    2    0    0  0.47670259088E+03  0.90261485958E+03 -0.33472562524E+04  0.34994404358E+04  0.00000000000E+00 0. -1.
<mgrwt>
<rscale>  0 0.42042976E+04</rscale>
<asrwt>0</asrwt>
<pdfrwt beam="1">  1        1 0.56231762E+00 0.42042976E+04</pdfrwt>
<pdfrwt beam="2">  1       -1 0.18600238E+00 0.42042976E+04</pdfrwt>
<totfact> 0.27194979E-02</totfact>
</mgrwt>
</event>
<event>
 6    1  0.1885829E-005  0.3109232E+04  0.7818608E-02  0.8213209E-01
         -2   -1    0    0    0  501 -0.00000000000E+00  0.00000000000E+00  0.17038090210E+04  0.17038090210E+04  0.00000000000E+00 0.  1.
          2   -1    0    0  501    0  0.00000000000E+00 -0.00000000000E+00 -0.14184873261E+04  0.14184873261E+04  0.00000000000E+00 0. -1.
         23    2    1    2    0    0 -0.45065913230E+03  0.14088077317E+04 -0.33344592169E+03  0.15189541373E+04  0.90568261888E+02 0.  0.
         13    1    3    3    0    0 -0.34278612106E+03  0.95577668695E+03 -0.25196800093E+03  0.10461831931E+04  0.00000000000E+00 0. -1.
        -13    1    3    3    0    0 -0.10787301125E+03  0.45303104472E+03 -0.81477920758E+02  0.47277094412E+03  0.00000000000E+00 0.  1.
         22    1    1    2    0    0  0.45065913230E+03 -0.14088077317E+04  0.61876761667E+03  0.16033422098E+04  0.00000000000E+00 0.  1.
<mgrwt>
<rscale>  0 0.31092324E+04</rscale>
<asrwt>0</asrwt>
<pdfrwt beam="1">  1        2 0.21822882E+00 0.31092324E+04</pdfrwt>
<pdfrwt beam="2">  1       -2 0.26212446E+00 0.31092324E+04</pdfrwt>
<totfact> 0.64874666E-01</totfact>
</mgrwt>
</event>
<event>
 6    1  0.1885829E-005  0.1631019E+04  0.7818608E-02  0.8801715E-01
          2   -1    0    0  501    0  0.00000000000E+00  0.00000000000E+00  0.17148112232E+04  0.17148112232E+04  0.00000000000E+00 0. -1.
         -2   -1    0    0    0  501 -0.00000000000E+00 -0.00000000000E+00 -0.38783014259E+03  0.38783014259E+03  0.00000000000E+00 0.  1.
         23    2    1    2    0    0 -0.20619666342E+03 -0.45058798614E+03  0.14961942962E+04  0.15790196420E+04  0.95702981204E+02 0.  0.
         11    1    3    3    0    0 -0.79960695239E+02 -0.13445443579E+03  0.60874691511E+03  0.62852566753E+03  0.00000000000E+00 0. -1.
        -11    1    3    3    0    0 -0.12623596818E+03 -0.31613355035E+03  0.88744738106E+03  0.95049397445E+03  0.00000000000E+00 0.  1.
         22    1    1    2    0    0  0.20619666342E+03  0.45058798614E+03 -0.16921321560E+03  0.52362172376E+03  0.00000000000E+00 0.  1.
<mgrwt>
<rscale>  0 0.16310187E+04</rscale>
<asrwt>0</asrwt>
<pdfrwt beam="1">  1        2 0.26381711E+00 0.16310187E+04</pdfrwt>
<pdfrwt beam="2">  1       -2 0.59666177E-01 0.16310187E+04</pdfrwt>
<totfact> 0.24121998E+01</totfact>
</mgrwt>
</event>
<event>
 6    1  0.1885829E-005  0.3669818E+04  0.7818608E-02  0.8074684E-01
         -2   -1    0    0    0  501 -0.00000000000E+00  0.00000000000E+00  0.21954752233E+04  0.21954752233E+04  0.00000000000E+00 0.  1.
          2   -1    0    0  501    0  0.00000000000E+00 -0.00000000000E+00 -0.15335589201E+04  0.15335589201E+04  0.00000000000E+00 0. -1.
         23    2    1    2    0    0  0.35701937396E+03 -0.91666009412E+03  0.19040385004E+04  0.21445480708E+04  0.77429035597E+02 0.  0.
         13    1    3    3    0    0  0.94648689080E+02 -0.16721396618E+03  0.34237479121E+03  0.39260588697E+03  0.00000000000E+00 0. -1.
        -13    1    3    3    0    0  0.26237068488E+03 -0.74944612795E+03  0.15616637092E+04  0.17519421839E+04  0.00000000000E+00 0.  1.
         22    1    1    2    0    0 -0.35701937396E+03  0.91666009412E+03 -0.12421221971E+04  0.15844860726E+04  0.00000000000E+00 0. -1.
<mgrwt>
<rscale>  0 0.36698178E+04</rscale>
<asrwt>0</asrwt>
<pdfrwt beam="1">  1        2 0.23593214E+00 0.36698178E+04</pdfrwt>
<pdfrwt beam="2">  1       -2 0.33776542E+00 0.36698178E+04</pdfrwt>
<totfact> 0.18281715E-01</totfact>
</mgrwt>
</event>
<event>
 6    1  0.1885829E-005  0.5820694E+04  0.7818608E-02  0.7713040E-01
         -2   -1    0    0    0  501 -0.00000000000E+00  0.00000000000E+00  0.44284543762E+04  0.44284543762E+04  0.00000000000E+00 0. -1.
          2   -1    0    0  501    0  0.00000000000E+00 -0.00000000000E+00 -0.19126583005E+04  0.19126583005E+04  0.00000000000E+00 0.  1.
         23    2    1    2    0    0  0.17358564755E+04  0.22727462222E+04  0.18389858641E+04  0.34022957112E+04  0.12318280815E+03 0.  0.
         13    1    3    3    0    0  0.88980829432E+03  0.10856464275E+04  0.94772822352E+03  0.16936870289E+04  0.00000000000E+00 0. -1.
        -13    1    3    3    0    0  0.84604818121E+03  0.11870997947E+04  0.89125764054E+03  0.17086086823E+04  0.00000000000E+00 0.  1.
         22    1    1    2    0    0 -0.17358564755E+04 -0.22727462222E+04  0.67681021171E+03  0.29388169655E+04  0.00000000000E+00 0. -1.
<mgrwt>
<rscale>  0 0.58206941E+04</rscale>
<asrwt>0</asrwt>
<pdfrwt beam="1">  1        2 0.29425512E+00 0.58206941E+04</pdfrwt>
<pdfrwt beam="2">  1       -2 0.68130067E+00 0.58206941E+04</pdfrwt>
<totfact> 0.13708344E-03</totfact>
</mgrwt>
</event>
<event>
 6    1  0.1885829E-005  0.1662109E+04  0.7818608E-02  0.8783275E-01
         -2   -1    0    0    0  501 -0.00000000000E+00  0.00000000000E+00  0.11519635955E+04  0.11519635955E+04  0.00000000000E+00 0.  1.
          2   -1    0    0  501    0  0.00000000000E+00 -0.00000000000E+00 -0.59954294309E+03  0.59954294309E+03  0.00000000000E+00 0. -1.
         23    2    1    2    0    0  0.72543896337E+03  0.26444026767E+03  0.59332716123E+03  0.97829008301E+03  0.93936263076E+02 0.  0.
         13    1    3    3    0    0  0.33223119693E+03  0.15371179553E+03  0.32520902429E+03  0.48965885449E+03  0.00000000000E+00 0. -1.
        -13    1    3    3    0    0  0.39320776644E+03  0.11072847215E+03  0.26811813694E+03  0.48863122852E+03  0.00000000000E+00 0.  1.
         22    1    1    2    0    0 -0.72543896337E+03 -0.26444026767E+03 -0.40906508803E+02  0.77321645560E+03  0.00000000000E+00 0. -1.
<mgrwt>
<rscale>  0 0.16621091E+04</rscale>
<asrwt>0</asrwt>
<pdfrwt beam="1">  1        2 0.92237376E-01 0.16621091E+04</pdfrwt>
<pdfrwt beam="2">  1       -2 0.17722517E+00 0.16621091E+04</pdfrwt>
<totfact> 0.89722716E+00</totfact>
</mgrwt>
</event>
<event>
 6    1  0.1885829E-005  0.3378054E+04  0.7818608E-02  0.8143314E-01
          2   -1    0    0  501    0  0.00000000000E+00  0.00000000000E+00  0.31056637430E+04  0.31056637430E+04  0.00000000000E+00 0. -1.
         -2   -1    0    0    0  501 -0.00000000000E+00 -0.00000000000E+00 -0.91858372103E+03  0.91858372103E+03  0.00000000000E+00 0.  1.
         23    2    1    2    0    0 -0.11123506540E+04  0.89680182243E+03  0.23333930230E+02  0.14313003694E+04  0.80615065622E+02 0.  0.
         13    1    3    3    0    0 -0.91220539313E+03  0.70572479525E+03  0.40695071501E+02  0.11540460367E+04  0.00000000000E+00 0.  1.
        -13    1    3    3    0    0 -0.20014526090E+03  0.19107702718E+03 -0.17361141270E+02  0.27725433271E+03  0.00000000000E+00 0. -1.
         22    1    1    2    0    0  0.11123506540E+04 -0.89680182243E+03  0.21637460918E+04  0.25929470947E+04  0.00000000000E+00 0. -1.
<mgrwt>
<rscale>  0 0.33780540E+04</rscale>
<asrwt>0</asrwt>
<pdfrwt beam="1">  1        2 0.47779442E+00 0.33780540E+04</pdfrwt>
<pdfrwt beam="2">  1       -2 0.14132057E+00 0.33780540E+04</pdfrwt>
<totfact> 0.43370203E-01</totfact>
</mgrwt>
</event>
<event>
 6    1  0.1885829E-005  0.1732938E+04  0.7818608E-02  0.8742799E-01
          2   -1    0    0  501    0  0.00000000000E+00  0.00000000000E+00  0.24671041476E+04  0.24671041476E+04  0.00000000000E+00 0.  1.
         -2   -1    0    0    0  501 -0.00000000000E+00 -0.00000000000E+00 -0.30431158471E+03  0.30431158471E+03  0.00000000000E+00 0. -1.
         23    2    1    2    0    0 -0.58559871032E+03 -0.21773138995E+03  0.20392748225E+04  0.21345566899E+04  0.85776763460E+02 0.  0.
         13    1    3    3    0    0 -0.21740308503E+03 -0.11926952481E+03  0.87731222677E+03  0.91168309416E+03  0.00000000000E+00 0.  1.
        -13    1    3    3    0    0 -0.36819562529E+03 -0.98461865139E+02  0.11619625957E+04  0.12228735957E+04  0.00000000000E+00 0. -1.
         22    1    1    2    0    0  0.58559871032E+03  0.21773138995E+03  0.12351774042E+03  0.63685904241E+03  0.00000000000E+00 0. -1.
<mgrwt>
<rscale>  0 0.17329378E+04</rscale>
<asrwt>0</asrwt>
<pdfrwt beam="1">  1        2 0.37955447E+00 0.17329378E+04</pdfrwt>
<pdfrwt beam="2">  1       -2 0.46817168E-01 0.17329378E+04</pdfrwt>
<totfact> 0.14949719E+01</totfact>
</mgrwt>
</event>
<event>
 6    1  0.1885829E-005  0.3727791E+03  0.7818608E-02  0.1053635E+00
          2   -1    0    0  501    0  0.00000000000E+00  0.00000000000E+00  0.14377559961E+04  0.14377559961E+04  0.00000000000E+00 0. -1.
         -2   -1    0    0    0  501 -0.00000000000E+00 -0.00000000000E+00 -0.24163389758E+02  0.24163389758E+02  0.00000000000E+00 0.  1.
         23    2    1    2    0    0  0.23481317848E+02 -0.10123661621E+03  0.13021779613E+04  0.13095597853E+04  0.92082374243E+02 0.  0.
         13    1    3    3    0    0  0.40526381205E+02 -0.20138333144E+02  0.73123919869E+03  0.73263818201E+03  0.00000000000E+00 0. -1.
        -13    1    3    3    0    0 -0.17045063356E+02 -0.81098283068E+02  0.57093876258E+03  0.57692160327E+03  0.00000000000E+00 0.  1.
         22    1    1    2    0    0 -0.23481317848E+02  0.10123661621E+03  0.11141464503E+03  0.15235960054E+03  0.00000000000E+00 0.  1.
<mgrwt>
<rscale>  0 0.37277907E+03</rscale>
<asrwt>0</asrwt>
<pdfrwt beam="1">  1        2 0.22119316E+00 0.37277907E+03</pdfrwt>
<pdfrwt beam="2">  1       -2 0.37174457E-02 0.37277907E+03</pdfrwt>
<totfact> 0.45372826E+03</totfact>
</mgrwt>
</event>
<event>
 6    1  0.1885829E-005  0.2995125E+04  0.7818608E-02  0.8245124E-01
         -2   -1    0    0    0  501 -0.00000000000E+00  0.00000000000E+00  0.19325074372E+04  0.19325074372E+04  0.00000000000E+00 0.  1.
          2   -1    0    0  501    0  0.00000000000E+00 -0.00000000000E+00 -0.11605095850E+04  0.11605095850E+04  0.00000000000E+00 0. -1.
         23    2    1    2    0    0  0.34699123646E+02  0.51186856686E+03  0.18380092344E+04  0.19099727602E+04  0.80650729434E+02 0.  0.
         11    1    3    3    0    0  0.61160746066E+02  0.34195951033E+03  0.12308755368E+04  0.12789572044E+04  0.00000000000E+00 0.  1.
        -11    1    3    3    0    0 -0.26461622420E+02  0.16990905652E+03  0.60713369756E+03  0.63101555580E+03  0.00000000000E+00 0. -1.
         22    1    1    2    0    0 -0.34699123646E+02 -0.51186856686E+03 -0.10660113822E+04  0.11830442620E+04  0.00000000000E+00 0. -1.
<mgrwt>
<rscale>  0 0.29951250E+04</rscale>
<asrwt>0</asrwt>
<pdfrwt beam="1">  1        2 0.17853994E+00 0.29951250E+04</pdfrwt>
<pdfrwt beam="2">  1       -2 0.29730884E+00 0.29951250E+04</pdfrwt>
<totfact> 0.56555557E-01</totfact>
</mgrwt>
</event>
<event>
 6    1  0.1885829E-005  0.3490606E+04  0.7818608E-02  0.8116020E-01
         -1   -1    0    0    0  501 -0.00000000000E+00  0.00000000000E+00  0.24175785357E+04  0.24175785357E+04  0.00000000000E+00 0.  1.
          1   -1    0    0  501    0  0.00000000000E+00 -0.00000000000E+00 -0.12599726309E+04  0.12599726309E+04  0.00000000000E+00 0. -1.
         23    2    1    2    0    0  0.22244579627E+03 -0.17104384938E+04  0.30668473967E+03  0.17542340314E+04  0.90551277756E+02 0.  0.
         11    1    3    3    0    0  0.19578069737E+03 -0.12714694945E+04  0.20264704696E+03  0.13023173893E+04  0.00000000000E+00 0.  1.
        -11    1    3    3    0    0  0.26665098901E+02 -0.43896899932E+03  0.10403769270E+03  0.45191664206E+03  0.00000000000E+00 0. -1.
         22    1    1    2    0    0 -0.22244579627E+03  0.17104384938E+04  0.85092116512E+03  0.19233171352E+04  0.00000000000E+00 0.  1.
<mgrwt>
<rscale>  0 0.34906061E+04</rscale>
<asrwt>0</asrwt>
<pdfrwt beam="1">  1        1 0.19384194E+00 0.34906061E+04</pdfrwt>
<pdfrwt beam="2">  1       -1 0.37193516E+00 0.34906061E+04</pdfrwt>
<totfact> 0.87452302E-02</totfact>
</mgrwt>
</event>
<event>
 6    1  0.1885829E-005  0.9105009E+03  0.7818608E-02  0.9412549E-01
         -2   -1    0    0    0  501 -0.00000000000E+00  0.00000000000E+00  0.12929237087E+03  0.12929237087E+03  0.00000000000E+00 0.  1.
          2   -1    0    0  501    0  0.00000000000E+00 -0.00000000000E+00 -0.16029791478E+04  0.16029791478E+04  0.00000000000E+00 0. -1.
         23    2    1    2    0    0 -0.24723555228E+03 -0.36848883140E+03 -0.89711716119E+03  0.10047126145E+04  0.87856699870E+02 0.  0.
         13    1    3    3    0    0 -0.18196085048E+03 -0.22826636404E+03 -0.50669846739E+03  0.58477228125E+03  0.00000000000E+00 0.  1.
        -13    1    3    3    0    0 -0.65274701803E+02 -0.14022246736E+03 -0.39041869380E+03  0.41994033328E+03  0.00000000000E+00 0. -1.
         22    1    1    2    0    0  0.24723555228E+03  0.36848883140E+03 -0.57656961569E+03  0.72755890409E+03  0.00000000000E+00 0.  1.
<mgrwt>
<rscale>  0 0.91050090E+03</rscale>
<asrwt>0</asrwt>
<pdfrwt beam="1">  1        2 0.24661219E+00 0.91050090E+03</pdfrwt>
<pdfrwt beam="2">  1       -2 0.19891133E-01 0.91050090E+03</pdfrwt>
<totfact> 0.24047769E+02</totfact>
</mgrwt>
</event>
<event>
 6    1  0.1885829E-005  0.2837726E+04  0.7818608E-02  0.8291651E-01
          2   -1    0    0  501    0  0.00000000000E+00  0.00000000000E+00  0.11221390607E+04  0.11221390607E+04  0.00000000000E+00 0. -1.
         -2   -1    0    0    0  501 -0.00000000000E+00 -0.00000000000E+00 -0.17940483958E+04  0.17940483958E+04  0.00000000000E+00 0.  1.
         23    2    1    2    0    0 -0.10484257435E+04 -0.61778620931E+03  0.41061283396E+03  0.12874730596E+04  0.90153423974E+02 0.  0.
         13    1    3    3    0    0 -0.26844727847E+03 -0.15202935432E+03  0.14566965398E+03  0.34116933330E+03  0.00000000000E+00 0.  1.
        -13    1    3    3    0    0 -0.77997846499E+03 -0.46575685499E+03  0.26494317998E+03  0.94630372631E+03  0.00000000000E+00 0. -1.
         22    1    1    2    0    0  0.10484257435E+04  0.61778620931E+03 -0.10825221691E+04  0.16287143968E+04  0.00000000000E+00 0.  1.
<mgrwt>
<rscale>  0 0.28377257E+04</rscale>
<asrwt>0</asrwt>
<pdfrwt beam="1">  1        2 0.17263678E+00 0.28377257E+04</pdfrwt>
<pdfrwt beam="2">  1       -2 0.27600744E+00 0.28377257E+04</pdfrwt>
<totfact> 0.81576670E-01</totfact>
</mgrwt>
</event>
<event>
 6    1  0.1885829E-005  0.3097749E+04  0.7818608E-02  0.8216356E-01
          2   -1    0    0  501    0  0.00000000000E+00  0.00000000000E+00  0.31774716337E+04  0.31774716337E+04  0.00000000000E+00 0. -1.
         -2   -1    0    0    0  501 -0.00000000000E+00 -0.00000000000E+00 -0.75500674726E+03  0.75500674726E+03  0.00000000000E+00 0.  1.
         23    2    1    2    0    0 -0.86769650209E+02  0.79009408843E+03 -0.47279012622E+03  0.93009945266E+03  0.98877943081E+02 0.  0.
         11    1    3    3    0    0 -0.47100265353E+02  0.70991412093E+03 -0.42287442688E+03  0.82765891223E+03  0.00000000000E+00 0.  1.
        -11    1    3    3    0    0 -0.39669384856E+02  0.80179967502E+02 -0.49915699334E+02  0.10244054043E+03  0.00000000000E+00 0. -1.
         22    1    1    2    0    0  0.86769650209E+02 -0.79009408843E+03  0.28952550127E+04  0.30023789283E+04  0.00000000000E+00 0. -1.
<mgrwt>
<rscale>  0 0.30977492E+04</rscale>
<asrwt>0</asrwt>
<pdfrwt beam="1">  1        2 0.48884178E+00 0.30977492E+04</pdfrwt>
<pdfrwt beam="2">  1       -2 0.11615489E+00 0.30977492E+04</pdfrwt>
<totfact> 0.65487452E-01</totfact>
</mgrwt>
</event>
<event>
 6    1  0.1885829E-005  0.1717215E+04  0.7818608E-02  0.8751607E-01
          2   -1    0    0  501    0  0.00000000000E+00  0.00000000000E+00  0.22900840085E+04  0.22900840085E+04  0.00000000000E+00 0. -1.
         -2   -1    0    0    0  501 -0.00000000000E+00 -0.00000000000E+00 -0.32191254357E+03  0.32191254357E+03  0.00000000000E+00 0.  1.
         23    2    1    2    0    0 -0.31990950568E+03 -0.40439742912E+03  0.20265018406E+04  0.20930728533E+04  0.91459754755E+02 0.  0.
         13    1    3    3    0    0 -0.13780230949E+03 -0.18537896204E+03  0.10902996567E+04  0.11144990702E+04  0.00000000000E+00 0.  1.
        -13    1    3    3    0    0 -0.18210719618E+03 -0.21901846708E+03  0.93620218381E+03  0.97857378301E+03  0.00000000000E+00 0. -1.
         22    1    1    2    0    0  0.31990950568E+03  0.40439742912E+03 -0.58330375609E+02  0.51892369884E+03  0.00000000000E+00 0.  1.
<mgrwt>
<rscale>  0 0.17172149E+04</rscale>
<asrwt>0</asrwt>
<pdfrwt beam="1">  1        2 0.35232061E+00 0.17172149E+04</pdfrwt>
<pdfrwt beam="2">  1       -2 0.49525008E-01 0.17172149E+04</pdfrwt>
<totfact> 0.16853084E+01</totfact>
</mgrwt>
</event>
<event>
 6    1  0.1885829E-005  0.2414433E+04  0.7818608E-02  0.8434120E-01
         -2   -1    0    0    0  501 -0.00000000000E+00  0.00000000000E+00  0.44556839568E+03  0.44556839568E+03  0.00000000000E+00 0.  1.
          2   -1    0    0  501    0  0.00000000000E+00 -0.00000000000E+00 -0.32708155396E+04  0.32708155396E+04  0.00000000000E+00 0. -1.
         23    2    1    2    0    0 -0.10341427220E+04  0.36151229752E+03 -0.64005525768E+03  0.12719605083E+04  0.89835911439E+02 0.  0.
         11    1    3    3    0    0 -0.20130798907E+03  0.74325091965E+02 -0.85546166819E+02  0.23101357626E+03  0.00000000000E+00 0. -1.
        -11    1    3    3    0    0 -0.83283473295E+03  0.28718720556E+03 -0.55450909086E+03  0.10409469320E+04  0.00000000000E+00 0.  1.
         22    1    1    2    0    0  0.10341427220E+04 -0.36151229752E+03 -0.21851918863E+04  0.24444234270E+04  0.00000000000E+00 0. -1.
<mgrwt>
<rscale>  0 0.24144333E+04</rscale>
<asrwt>0</asrwt>
<pdfrwt beam="1">  1        2 0.50320236E+00 0.24144333E+04</pdfrwt>
<pdfrwt beam="2">  1       -2 0.68548988E-01 0.24144333E+04</pdfrwt>
<totfact> 0.20378998E+00</totfact>
</mgrwt>
</event>
<event>
 6    1  0.1885829E-005  0.1975526E+04  0.7818608E-02  0.8618149E-01
          2   -1    0    0  501    0  0.00000000000E+00  0.00000000000E+00  0.21667846840E+04  0.21667846840E+04  0.00000000000E+00 0. -1.
         -2   -1    0    0    0  501 -0.00000000000E+00 -0.00000000000E+00 -0.45028727712E+03  0.45028727712E+03  0.00000000000E+00 0.  1.
         23    2    1    2    0    0 -0.93586373081E+03 -0.20313462203E+03  0.55074894789E+03  0.11084056405E+04  0.90189040315E+02 0.  0.
         13    1    3    3    0    0 -0.38035155144E+03 -0.48116799089E+02  0.18716302130E+03  0.42662926011E+03  0.00000000000E+00 0. -1.
        -13    1    3    3    0    0 -0.55551217937E+03 -0.15501782294E+03  0.36358592658E+03  0.68177638039E+03  0.00000000000E+00 0.  1.
         22    1    1    2    0    0  0.93586373081E+03  0.20313462203E+03  0.11657484589E+04  0.15086663206E+04  0.00000000000E+00 0. -1.
<mgrwt>
<rscale>  0 0.19755258E+04</rscale>
<asrwt>0</asrwt>
<pdfrwt beam="1">  1        2 0.33335148E+00 0.19755258E+04</pdfrwt>
<pdfrwt beam="2">  1       -2 0.69274967E-01 0.19755258E+04</pdfrwt>
<totfact> 0.95432039E+00</totfact>
</mgrwt>
</event>
<event>
 6    1  0.1885829E-005  0.3423747E+04  0.7818608E-02  0.8132103E-01
          2   -1    0    0  501    0  0.00000000000E+00  0.00000000000E+00  0.37022223740E+04  0.37022223740E+04  0.00000000000E+00 0. -1.
         -2   -1    0    0    0  501 -0.00000000000E+00 -0.00000000000E+00 -0.79155447493E+03  0.79155447493E+03  0.00000000000E+00 0.  1.
         23    2    1    2    0    0 -0.69661687613E+03  0.61763766707E+03 -0.42725925539E+03  0.10284472761E+04  0.91662252264E+02 0.  0.
         13    1    3    3    0    0 -0.82000129972E+02  0.57121435619E+02 -0.75762895313E+02  0.12540692177E+03  0.00000000000E+00 0. -1.
        -13    1    3    3    0    0 -0.61461674616E+03  0.56051623145E+03 -0.35149636008E+03  0.90304035432E+03  0.00000000000E+00 0.  1.
         22    1    1    2    0    0  0.69661687613E+03 -0.61763766707E+03  0.33379271545E+04  0.34653295728E+04  0.00000000000E+00 0. -1.
<mgrwt>
<rscale>  0 0.34237469E+04</rscale>
<asrwt>0</asrwt>
<pdfrwt beam="1">  1        2 0.56957267E+00 0.34237469E+04</pdfrwt>
<pdfrwt beam="2">  1       -2 0.12177761E+00 0.34237469E+04</pdfrwt>
<totfact> 0.24565113E-01</totfact>
</mgrwt>
</event>
<event>
 6    1  0.1885829E-005  0.3678183E+04  0.7818608E-02  0.8072814E-01
         -2   -1    0    0    0  501 -0.00000000000E+00  0.00000000000E+00  0.19782856813E+04  0.19782856813E+04  0.00000000000E+00 0. -1.
          2   -1    0    0  501    0  0.00000000000E+00 -0.00000000000E+00 -0.17096916164E+04  0.17096916164E+04  0.00000000000E+00 0.  1.
         23    2    1    2    0    0  0.92424898562E+03  0.30645629824E+02  0.17269772012E+04  0.19611140391E+04  0.91338265547E+02 0.  0.
         13    1    3    3    0    0  0.63794390344E+02 -0.15324285754E+02  0.15820775093E+03  0.17127244503E+03  0.00000000000E+00 0. -1.
        -13    1    3    3    0    0  0.86045459527E+03  0.45969915578E+02  0.15687694503E+04  0.17898415940E+04  0.00000000000E+00 0.  1.
         22    1    1    2    0    0 -0.92424898562E+03 -0.30645629824E+02 -0.14583831363E+04  0.17268632587E+04  0.00000000000E+00 0.  1.
<mgrwt>
<rscale>  0 0.36781835E+04</rscale>
<asrwt>0</asrwt>
<pdfrwt beam="1">  1        2 0.26302948E+00 0.36781835E+04</pdfrwt>
<pdfrwt beam="2">  1       -2 0.30435164E+00 0.36781835E+04</pdfrwt>
<totfact> 0.23444215E-01</totfact>
</mgrwt>
</event>
<event>
 6    1  0.1885829E-005  0.3830947E+04  0.7818608E-02  0.8039546E-01
         -2   -1    0    0    0  501 -0.00000000000E+00  0.00000000000E+00  0.21759243270E+04  0.21759243270E+04  0.00000000000E+00 0. -1.
          2   -1    0    0  501    0  0.00000000000E+00 -0.00000000000E+00 -0.16861977711E+04  0.16861977711E+04  0.00000000000E+00 0.  1.
         23    2    1    2    0    0 -0.17863238240E+04 -0.68426416490E+03  0.31560759444E+03  0.19413181872E+04  0.99689009663E+02 0.  0.
         13    1    3    3    0    0 -0.64209797437E+03 -0.29487014683E+03  0.10116617339E+03  0.71377363836E+03  0.00000000000E+00 0. -1.
        -13    1    3    3    0    0 -0.11442258496E+04 -0.38939401807E+03  0.21444142105E+03  0.12275445488E+04  0.00000000000E+00 0.  1.
         22    1    1    2    0    0  0.17863238240E+04  0.68426416490E+03  0.17411896138E+03  0.19208039109E+04  0.00000000000E+00 0.  1.
<mgrwt>
<rscale>  0 0.38309470E+04</rscale>
<asrwt>0</asrwt>
<pdfrwt beam="1">  1        2 0.25941504E+00 0.38309470E+04</pdfrwt>
<pdfrwt beam="2">  1       -2 0.33475759E+00 0.38309470E+04</pdfrwt>
<totfact> 0.15476236E-01</totfact>
</mgrwt>
</event>
<event>
 6    1  0.1885829E-005  0.2665719E+04  0.7818608E-02  0.8346214E-01
         -2   -1    0    0    0  501 -0.00000000000E+00  0.00000000000E+00  0.51561375342E+03  0.51561375342E+03  0.00000000000E+00 0. -1.
          2   -1    0    0  501    0  0.00000000000E+00 -0.00000000000E+00 -0.34454357837E+04  0.34454357837E+04  0.00000000000E+00 0.  1.
         23    2    1    2    0    0 -0.70394353420E+01 -0.98675717804E+03 -0.27945536503E+04  0.29650390870E+04  0.90484260167E+02 0.  0.
         13    1    3    3    0    0 -0.48300584139E+02 -0.51558161475E+03 -0.14820117777E+04  0.15698777841E+04  0.00000000000E+00 0. -1.
        -13    1    3    3    0    0  0.41261148797E+02 -0.47117556329E+03 -0.13125418726E+04  0.13951613029E+04  0.00000000000E+00 0.  1.
         22    1    1    2    0    0  0.70394353420E+01  0.98675717804E+03 -0.13526838000E+03  0.99601045009E+03  0.00000000000E+00 0. -1.
<mgrwt>
<rscale>  0 0.26657187E+04</rscale>
<asrwt>0</asrwt>
<pdfrwt beam="1">  1        2 0.53006703E+00 0.26657187E+04</pdfrwt>
<pdfrwt beam="2">  1       -2 0.79325195E-01 0.26657187E+04</pdfrwt>
<totfact> 0.11000408E+00</totfact>
</mgrwt>
</event>
<event>
 6    1  0.1885829E-005  0.2903222E+04  0.7818608E-02  0.8271919E-01
          2   -1    0    0  501    0  0.00000000000E+00  0.00000000000E+00  0.11662072046E+04  0.11662072046E+04  0.00000000000E+00 0. -1.
         -2   -1    0    0    0  501 -0.00000000000E+00 -0.00000000000E+00 -0.18068617306E+04  0.18068617306E+04  0.00000000000E+00 0.  1.
         23    2    1    2    0    0  0.47873124683E+03 -0.86992216688E+03  0.76179881218E+03  0.12546907611E+04  0.89237283049E+02 0.  0.
         13    1    3    3    0    0  0.38759020438E+02 -0.96588048481E+02  0.11232935737E+03  0.15313196042E+03  0.00000000000E+00 0. -1.
        -13    1    3    3    0    0  0.43997222639E+03 -0.77333411840E+03  0.64946945482E+03  0.11015588007E+04  0.00000000000E+00 0.  1.
         22    1    1    2    0    0 -0.47873124683E+03  0.86992216688E+03 -0.14024533382E+04  0.17183781740E+04  0.00000000000E+00 0.  1.
<mgrwt>
<rscale>  0 0.29032225E+04</rscale>
<asrwt>0</asrwt>
<pdfrwt beam="1">  1        2 0.17941649E+00 0.29032225E+04</pdfrwt>
<pdfrwt beam="2">  1       -2 0.27797873E+00 0.29032225E+04</pdfrwt>
<totfact> 0.74196198E-01</totfact>
</mgrwt>
</event>
<event>
 6    1  0.1885829E-005  0.1834007E+04  0.7818608E-02  0.8688421E-01
          2   -1    0    0  501    0  0.00000000000E+00  0.00000000000E+00  0.20439361426E+04  0.20439361426E+04  0.00000000000E+00 0. -1.
         -2   -1    0    0    0  501 -0.00000000000E+00 -0.00000000000E+00 -0.41140970519E+03  0.41140970519E+03  0.00000000000E+00 0.  1.
         23    2    1    2    0    0  0.85487983714E+03  0.93928909533E+02  0.12354727643E+04  0.15080899186E+04  0.91104749080E+02 0.  0.
         13    1    3    3    0    0  0.64340858011E+03  0.76561583786E+02  0.99515335326E+03  0.11875043047E+04  0.00000000000E+00 0.  1.
        -13    1    3    3    0    0  0.21147125703E+03  0.17367325747E+02  0.24031941102E+03  0.32058561394E+03  0.00000000000E+00 0. -1.
         22    1    1    2    0    0 -0.85487983714E+03 -0.93928909533E+02  0.39705367308E+03  0.94725592915E+03  0.00000000000E+00 0.  1.
<mgrwt>
<rscale>  0 0.18340067E+04</rscale>
<asrwt>0</asrwt>
<pdfrwt beam="1">  1        2 0.31445171E+00 0.18340067E+04</pdfrwt>
<pdfrwt beam="2">  1       -2 0.63293802E-01 0.18340067E+04</pdfrwt>
<totfact> 0.13743110E+01</totfact>
</mgrwt>
</event>
<event>
 6    1  0.1885829E-005  0.5646935E+04  0.7818608E-02  0.7735788E-01
         -2   -1    0    0    0  501 -0.00000000000E+00  0.00000000000E+00  0.21197504156E+04  0.21197504156E+04  0.00000000000E+00 0.  1.
          2   -1    0    0  501    0  0.00000000000E+00 -0.00000000000E+00 -0.37608059263E+04  0.37608059263E+04  0.00000000000E+00 0. -1.
         23    2    1    2    0    0 -0.19436038354E+04 -0.12772851874E+04  0.84531759661E+03  0.24759852166E+04  0.82991774833E+02 0.  0.
         13    1    3    3    0    0 -0.19089678522E+03 -0.12262872555E+03  0.10900291884E+03  0.25171615612E+03  0.00000000000E+00 0. -1.
        -13    1    3    3    0    0 -0.17527070502E+04 -0.11546564618E+04  0.73631467776E+03  0.22242690605E+04  0.00000000000E+00 0.  1.
         22    1    1    2    0    0  0.19436038354E+04  0.12772851874E+04 -0.24863731073E+04  0.34045711254E+04  0.00000000000E+00 0. -1.
<mgrwt>
<rscale>  0 0.56469354E+04</rscale>
<asrwt>0</asrwt>
<pdfrwt beam="1">  1        2 0.57858552E+00 0.56469354E+04</pdfrwt>
<pdfrwt beam="2">  1       -2 0.32611545E+00 0.56469354E+04</pdfrwt>
<totfact> 0.79543797E-03</totfact>
</mgrwt>
</event>
<event>
 6    1  0.1885829E-005  0.1433905E+04  0.7818608E-02  0.8929635E-01
          1   -1    0    0  501    0  0.00000000000E+00  0.00000000000E+00  0.15370994955E+04  0.15370994955E+04  0.00000000000E+00 0. -1.
         -1   -1    0    0    0  501 -0.00000000000E+00 -0.00000000000E+00 -0.33440979218E+03  0.33440979218E+03  0.00000000000E+00 0.  1.
         23    2    1    2    0    0  0.66479357552E+03 -0.11750037644E+03  0.30101322237E+03  0.74510913105E+03  0.93924547481E+02 0.  0.
         13    1    3    3    0    0  0.16912510972E+03 -0.99186232504E+01  0.37435763859E+02  0.17350250212E+03  0.00000000000E+00 0.  1.
        -13    1    3    3    0    0  0.49566846579E+03 -0.10758175319E+03  0.26357745851E+03  0.57160662893E+03  0.00000000000E+00 0. -1.
         22    1    1    2    0    0 -0.66479357552E+03  0.11750037644E+03  0.90167648091E+03  0.11264001566E+04  0.00000000000E+00 0. -1.
<mgrwt>
<rscale>  0 0.14339053E+04</rscale>
<asrwt>0</asrwt>
<pdfrwt beam="1">  1        1 0.23647684E+00 0.14339053E+04</pdfrwt>
<pdfrwt beam="2">  1       -1 0.51447661E-01 0.14339053E+04</pdfrwt>
<totfact> 0.22788262E+01</totfact>
</mgrwt>
</event>
<event>
 6    1  0.1885829E-005  0.2233545E+04  0.7818608E-02  0.8504594E-01
          2   -1    0    0  501    0  0.00000000000E+00  0.00000000000E+00  0.19598055152E+04  0.19598055152E+04  0.00000000000E+00 0. -1.
         -2   -1    0    0    0  501 -0.00000000000E+00 -0.00000000000E+00 -0.63637998598E+03  0.63637998598E+03  0.00000000000E+00 0.  1.
         23    2    1    2    0    0  0.20407161986E+03 -0.40809888057E+03 -0.51956390071E+03  0.69755442559E+03  0.91899985795E+02 0.  0.
         11    1    3    3    0    0  0.20625289161E+03 -0.36699687747E+03 -0.44631962603E+03  0.61353742506E+03  0.00000000000E+00 0.  1.
        -11    1    3    3    0    0 -0.21812717474E+01 -0.41102003094E+02 -0.73244274676E+02  0.84017000528E+02  0.00000000000E+00 0. -1.
         22    1    1    2    0    0 -0.20407161986E+03  0.40809888057E+03  0.18429894299E+04  0.18986310756E+04  0.00000000000E+00 0. -1.
<mgrwt>
<rscale>  0 0.22335452E+04</rscale>
<asrwt>0</asrwt>
<pdfrwt beam="1">  1        2 0.30150854E+00 0.22335452E+04</pdfrwt>
<pdfrwt beam="2">  1       -2 0.97904615E-01 0.22335452E+04</pdfrwt>
<totfact> 0.55676784E+00</totfact>
</mgrwt>
</event>
<event>
 6    1  0.1885829E-005  0.2108728E+04  0.7818608E-02  0.8557408E-01
          2   -1    0    0  501    0  0.00000000000E+00  0.00000000000E+00  0.13920717521E+04  0.13920717521E+04  0.00000000000E+00 0. -1.
         -2   -1    0    0    0  501 -0.00000000000E+00 -0.00000000000E+00 -0.79858185019E+03  0.79858185019E+03  0.00000000000E+00 0.  1.
         23    2    1    2    0    0 -0.67217736124E+03  0.23517051406E+03  0.11014989825E+04  0.13158960349E+04  0.10561624248E+03 0.  0.
         11    1    3    3    0    0 -0.51159807338E+03  0.16779659532E+03  0.90754109655E+03  0.10552341579E+04  0.00000000000E+00 0. -1.
        -11    1    3    3    0    0 -0.16057928786E+03  0.67373918745E+02  0.19395788595E+03  0.26066187704E+03  0.00000000000E+00 0.  1.
         22    1    1    2    0    0  0.67217736124E+03 -0.23517051406E+03 -0.50800908060E+03  0.87475756735E+03  0.00000000000E+00 0.  1.
<mgrwt>
<rscale>  0 0.21087278E+04</rscale>
<asrwt>0</asrwt>
<pdfrwt beam="1">  1        2 0.21416488E+00 0.21087278E+04</pdfrwt>
<pdfrwt beam="2">  1       -2 0.12285875E+00 0.21087278E+04</pdfrwt>
<totfact> 0.67438269E+00</totfact>
</mgrwt>
</event>
<event>
 6    1  0.1885829E-005  0.4763290E+04  0.7818608E-02  0.7866097E-01
         -1   -1    0    0    0  501 -0.00000000000E+00  0.00000000000E+00  0.15000851973E+04  0.15000851973E+04  0.00000000000E+00 0. -1.
          1   -1    0    0  501    0  0.00000000000E+00 -0.00000000000E+00 -0.37812742286E+04  0.37812742286E+04  0.00000000000E+00 0.  1.
         23    2    1    2    0    0 -0.61648148908E+03  0.22199690435E+04 -0.18060898317E+04  0.29289072521E+04  0.90693055850E+02 0.  0.
         13    1    3    3    0    0 -0.10417681364E+03  0.43871564050E+03 -0.31378501907E+03  0.54934985202E+03  0.00000000000E+00 0. -1.
        -13    1    3    3    0    0 -0.51230467544E+03  0.17812534030E+04 -0.14923048127E+04  0.23795574001E+04  0.00000000000E+00 0.  1.
         22    1    1    2    0    0  0.61648148908E+03 -0.22199690435E+04 -0.47509919957E+03  0.23524521738E+04  0.00000000000E+00 0.  1.
<mgrwt>
<rscale>  0 0.47632902E+04</rscale>
<asrwt>0</asrwt>
<pdfrwt beam="1">  1        1 0.58173450E+00 0.47632902E+04</pdfrwt>
<pdfrwt beam="2">  1       -1 0.23078234E+00 0.47632902E+04</pdfrwt>
<totfact> 0.10114771E-02</totfact>
</mgrwt>
</event>
<event>
 6    1  0.1997326E-005  0.3270374E+04  0.7818608E-02  0.8170475E-01
         -2   -1    0    0    0  501 -0.00000000000E+00  0.00000000000E+00  0.13239061008E+04  0.13239061008E+04  0.00000000000E+00 0.  1.
          2   -1    0    0  501    0  0.00000000000E+00 -0.00000000000E+00 -0.20196571154E+04  0.20196571154E+04  0.00000000000E+00 0. -1.
         23    2    1    2    0    0 -0.51177696310E+03 -0.13525950910E+04  0.42907152560E+03  0.15114456198E+04  0.94532254818E+02 0.  0.
         11    1    3    3    0    0 -0.22966891748E+03 -0.71013091601E+03  0.25243045944E+03  0.78787998222E+03  0.00000000000E+00 0.  1.
        -11    1    3    3    0    0 -0.28210804562E+03 -0.64246417502E+03  0.17664106616E+03  0.72356563754E+03  0.00000000000E+00 0. -1.
         22    1    1    2    0    0  0.51177696310E+03  0.13525950910E+04 -0.11248225402E+04  0.18321175965E+04  0.00000000000E+00 0. -1.
<mgrwt>
<rscale>  0 0.32703739E+04</rscale>
<asrwt>0</asrwt>
<pdfrwt beam="1">  1        2 0.31071648E+00 0.32703739E+04</pdfrwt>
<pdfrwt beam="2">  1       -2 0.20367786E+00 0.32703739E+04</pdfrwt>
<totfact> 0.68637517E-01</totfact>
</mgrwt>
</event>
<event>
 6    1  0.1885829E-005  0.7743984E+03  0.7818608E-02  0.9597832E-01
         -2   -1    0    0    0  501 -0.00000000000E+00  0.00000000000E+00  0.45777919882E+03  0.45777919882E+03  0.00000000000E+00 0.  1.
          2   -1    0    0  501    0  0.00000000000E+00 -0.00000000000E+00 -0.32750116052E+03  0.32750116052E+03  0.00000000000E+00 0. -1.
         23    2    1    2    0    0 -0.23244934210E+03 -0.11976092318E+03 -0.21628889189E+03  0.35113290460E+03  0.90211177685E+02 0.  0.
         11    1    3    3    0    0 -0.89030402201E+02 -0.92162921915E+02 -0.12432039751E+03  0.17853844944E+03  0.00000000000E+00 0. -1.
        -11    1    3    3    0    0 -0.14341893989E+03 -0.27598001265E+02 -0.91968494375E+02  0.17259445516E+03  0.00000000000E+00 0.  1.
         22    1    1    2    0    0  0.23244934210E+03  0.11976092318E+03  0.34656693018E+03  0.43414745474E+03  0.00000000000E+00 0.  1.
<mgrwt>
<rscale>  0 0.77439840E+03</rscale>
<asrwt>0</asrwt>
<pdfrwt beam="1">  1        2 0.50384794E-01 0.77439840E+03</pdfrwt>
<pdfrwt beam="2">  1       -2 0.70427569E-01 0.77439840E+03</pdfrwt>
<totfact> 0.18414019E+02</totfact>
</mgrwt>
</event>
<event>
 6    1  0.1885829E-005  0.6756003E+04  0.7818608E-02  0.7603136E-01
          2   -1    0    0  501    0  0.00000000000E+00  0.00000000000E+00  0.53395714251E+04  0.53395714251E+04  0.00000000000E+00 0. -1.
         -2   -1    0    0    0  501 -0.00000000000E+00 -0.00000000000E+00 -0.21370429989E+04  0.21370429989E+04  0.00000000000E+00 0.  1.
         23    2    1    2    0    0 -0.88193829399E+03  0.17348950716E+04 -0.14530237221E+04  0.24306415873E+04  0.95207799010E+02 0.  0.
         13    1    3    3    0    0 -0.16071639022E+03  0.39492675301E+03 -0.33884952065E+03  0.54462454588E+03  0.00000000000E+00 0. -1.
        -13    1    3    3    0    0 -0.72122190378E+03  0.13399683186E+04 -0.11141742014E+04  0.18860170414E+04  0.00000000000E+00 0.  1.
         22    1    1    2    0    0  0.88193829399E+03 -0.17348950716E+04  0.46555521482E+04  0.50459728367E+04  0.00000000000E+00 0. -1.
<mgrwt>
<rscale>  0 0.67560029E+04</rscale>
<asrwt>0</asrwt>
<pdfrwt beam="1">  1        2 0.82147252E+00 0.67560029E+04</pdfrwt>
<pdfrwt beam="2">  1       -2 0.32877585E+00 0.67560029E+04</pdfrwt>
<totfact> 0.14633155E-04</totfact>
</mgrwt>
</event>
<event>
 6    1  0.1885829E-005  0.3250706E+04  0.7818608E-02  0.8175553E-01
          2   -1    0    0  501    0  0.00000000000E+00  0.00000000000E+00  0.18429018683E+04  0.18429018683E+04  0.00000000000E+00 0. -1.
         -2   -1    0    0    0  501 -0.00000000000E+00 -0.00000000000E+00 -0.14334846975E+04  0.14334846975E+04  0.00000000000E+00 0.  1.
         23    2    1    2    0    0  0.28848281096E+03 -0.96133057738E+03  0.14917510583E+04  0.18003020644E+04  0.91583252134E+02 0.  0.
         11    1    3    3    0    0  0.11864905808E+03 -0.25712569337E+03  0.40047035635E+03  0.49047704074E+03  0.00000000000E+00 0.  1.
        -11    1    3    3    0    0  0.16983375289E+03 -0.70420488401E+03  0.10912807019E+04  0.13098250237E+04  0.00000000000E+00 0. -1.
         22    1    1    2    0    0 -0.28848281096E+03  0.96133057738E+03 -0.10823338874E+04  0.14760845014E+04  0.00000000000E+00 0.  1.
<mgrwt>
<rscale>  0 0.32507055E+04</rscale>
<asrwt>0</asrwt>
<pdfrwt beam="1">  1        2 0.28352337E+00 0.32507055E+04</pdfrwt>
<pdfrwt beam="2">  1       -2 0.22053611E+00 0.32507055E+04</pdfrwt>
<totfact> 0.67176978E-01</totfact>
</mgrwt>
</event>
